 Entering Gaussian System, Link 0=/opt/software/Gaussian/g16-AVX-C.01/g16/g16
 Input=charge-conf-231.com
 Output=charge-conf-231.log
 Initial command:
 /opt/software/Gaussian/g16-AVX-C.01/g16/l1.exe "/mnt/gs18/scratch/users/kengmith/Gau-13901.inp" -scrdir="/mnt/gs18/scratch/users/kengmith/"
 Entering Link 1 = /opt/software/Gaussian/g16-AVX-C.01/g16/l1.exe PID=     13943.
  
 Copyright (c) 1988-2019, Gaussian, Inc.  All Rights Reserved.
  
 This is part of the Gaussian(R) 16 program.  It is based on
 the Gaussian(R) 09 system (copyright 2009, Gaussian, Inc.),
 the Gaussian(R) 03 system (copyright 2003, Gaussian, Inc.),
 the Gaussian(R) 98 system (copyright 1998, Gaussian, Inc.),
 the Gaussian(R) 94 system (copyright 1995, Gaussian, Inc.),
 the Gaussian 92(TM) system (copyright 1992, Gaussian, Inc.),
 the Gaussian 90(TM) system (copyright 1990, Gaussian, Inc.),
 the Gaussian 88(TM) system (copyright 1988, Gaussian, Inc.),
 the Gaussian 86(TM) system (copyright 1986, Carnegie Mellon
 University), and the Gaussian 82(TM) system (copyright 1983,
 Carnegie Mellon University). Gaussian is a federally registered
 trademark of Gaussian, Inc.
  
 This software contains proprietary and confidential information,
 including trade secrets, belonging to Gaussian, Inc.
  
 This software is provided under written license and may be
 used, copied, transmitted, or stored only in accord with that
 written license.
  
 The following legend is applicable only to US Government
 contracts under FAR:
  
                    RESTRICTED RIGHTS LEGEND
  
 Use, reproduction and disclosure by the US Government is
 subject to restrictions as set forth in subparagraphs (a)
 and (c) of the Commercial Computer Software - Restricted
 Rights clause in FAR 52.227-19.
  
 Gaussian, Inc.
 340 Quinnipiac St., Bldg. 40, Wallingford CT 06492
  
  
 ---------------------------------------------------------------
 Warning -- This program may not be used in any manner that
 competes with the business of Gaussian, Inc. or will provide
 assistance to any competitor of Gaussian, Inc.  The licensee
 of this program is prohibited from giving any competitor of
 Gaussian, Inc. access to this program.  By using this program,
 the user acknowledges that Gaussian, Inc. is engaged in the
 business of creating and licensing software in the field of
 computational chemistry and represents and warrants to the
 licensee that it is not a competitor of Gaussian, Inc. and that
 it will not use this program in any manner prohibited above.
 ---------------------------------------------------------------
  

 Cite this work as:
 Gaussian 16, Revision C.01,
 M. J. Frisch, G. W. Trucks, H. B. Schlegel, G. E. Scuseria, 
 M. A. Robb, J. R. Cheeseman, G. Scalmani, V. Barone, 
 G. A. Petersson, H. Nakatsuji, X. Li, M. Caricato, A. V. Marenich, 
 J. Bloino, B. G. Janesko, R. Gomperts, B. Mennucci, H. P. Hratchian, 
 J. V. Ortiz, A. F. Izmaylov, J. L. Sonnenberg, D. Williams-Young, 
 F. Ding, F. Lipparini, F. Egidi, J. Goings, B. Peng, A. Petrone, 
 T. Henderson, D. Ranasinghe, V. G. Zakrzewski, J. Gao, N. Rega, 
 G. Zheng, W. Liang, M. Hada, M. Ehara, K. Toyota, R. Fukuda, 
 J. Hasegawa, M. Ishida, T. Nakajima, Y. Honda, O. Kitao, H. Nakai, 
 T. Vreven, K. Throssell, J. A. Montgomery, Jr., J. E. Peralta, 
 F. Ogliaro, M. J. Bearpark, J. J. Heyd, E. N. Brothers, K. N. Kudin, 
 V. N. Staroverov, T. A. Keith, R. Kobayashi, J. Normand, 
 K. Raghavachari, A. P. Rendell, J. C. Burant, S. S. Iyengar, 
 J. Tomasi, M. Cossi, J. M. Millam, M. Klene, C. Adamo, R. Cammi, 
 J. W. Ochterski, R. L. Martin, K. Morokuma, O. Farkas, 
 J. B. Foresman, and D. J. Fox, Gaussian, Inc., Wallingford CT, 2019.
 
 ******************************************
 Gaussian 16:  ES64L-G16RevC.01  3-Jul-2019
                23-Jun-2022 
 ******************************************
 %mem=8gb
 %nproc=4
 Will use up to    4 processors via shared memory.
 %chk=conf-231.chk
 ----------------------------------------------------------------------
 # B3LYP/6-31G* empiricaldispersion=gd3 guess=read geom=check nosymm in
 tegral(ultrafinegrid)
 ----------------------------------------------------------------------
 1/29=2,38=1,172=1/1;
 2/12=2,15=1,40=1/2;
 3/5=1,6=6,7=1,11=2,14=-4,25=1,30=1,74=-5,75=-5,116=-2,124=31/1,2,3;
 4/5=1/1;
 5/5=2,38=6/2;
 6/7=2,8=2,9=2,10=2,28=1/1;
 99/5=1,9=1/99;
 ------------------------------------------------------
 Candidate Structure: Conf:231 Charge calc in gas phase
 ------------------------------------------------------
 Structure from the checkpoint file:  "conf-231.chk"
 Charge =  1 Multiplicity = 1
 Redundant internal coordinates found in file.  (old form).
 N,0,-1.4647081374,-3.2222179131,3.1671043858
 H,0,-2.1635562977,-3.9667716759,3.2425833895
 H,0,-0.9657722401,-3.3183459604,2.2354871582
 H,0,-0.8065930307,-3.3025402727,3.9473995662
 C,0,-2.0692702156,-1.8317587241,3.054589448
 H,0,-3.0963230284,-1.8761055779,3.4222589553
 C,0,-2.0032210301,-1.571855002,1.5297040627
 C,0,-1.202757083,-0.8514306933,3.868575356
 H,0,-1.1770265467,-1.2199442632,4.9053324506
 H,0,-0.1866985095,-0.8729957501,3.4578072615
 O,0,-1.2535424577,-2.2906054863,0.8560696027
 C,0,-1.6790673249,0.6164655954,3.8890588097
 H,0,-1.6459968802,1.0040957365,2.8645213076
 C,0,-3.1028531022,0.7699177547,4.4448540197
 H,0,-3.1727269501,0.3708247057,5.4646971941
 H,0,-3.8666989687,0.2580817142,3.8417648136
 H,0,-3.3859053748,1.8263763846,4.4836211475
 C,0,-0.676911388,1.440940572,4.7119237772
 H,0,-0.6546777288,1.1092342963,5.757758026
 H,0,0.3326658695,1.3507330954,4.2982797969
 H,0,-0.9575933725,2.4990489254,4.7036874247
 N,0,-2.7469660907,-0.5749180418,1.0372418832
 H,0,-3.2270702097,0.0339297063,1.6893049911
 C,0,-2.4551624433,0.0042103631,-0.2908660442
 H,0,-2.3625448163,-0.8235758307,-0.9969812442
 C,0,-1.1243157486,0.7591694798,-0.1286816783
 C,0,-3.5725010643,0.959590925,-0.7281975414
 H,0,-4.5262199694,0.4163509663,-0.7131180859
 H,0,-3.6330361115,1.7757666203,0.001146921
 O,0,-1.0772853072,1.7681246381,0.5911722505
 C,0,-3.2766762365,1.5019589868,-2.0922767141
 C,0,-2.8047543656,2.7556318758,-2.396144064
 H,0,-2.606574231,3.5907002028,-1.7384673599
 C,0,-3.3350598652,0.7676373916,-3.3308129162
 C,0,-2.8905124257,1.6460861784,-4.355635486
 C,0,-3.7178400037,-0.5410218084,-3.6724952356
 H,0,-4.0724493364,-1.2309512935,-2.9098227492
 N,0,-2.5733320502,2.8482437353,-3.7521195528
 H,0,-2.26450565,3.6783726874,-4.2339122329
 C,0,-3.207399641,-0.0454528892,-6.0034630781
 H,0,-3.1676236939,-0.382003373,-7.0352445379
 C,0,-2.8239958537,1.2550753994,-5.6963468322
 H,0,-2.4855857662,1.9401809471,-6.4686583233
 C,0,-3.6501197195,-0.9355429934,-5.0025320936
 H,0,-3.945460114,-1.9428624508,-5.2815638737
 N,0,-0.0576612175,0.2022945409,-0.7153615927
 H,0,-0.1308389207,-0.6434421836,-1.2730873101
 C,0,1.2943610304,0.6866675231,-0.508319361
 H,0,1.2748431443,1.782428647,-0.5253904548
 C,0,2.1599119417,0.122586032,-1.6412909699
 C,0,1.8669584623,0.198055431,0.8499305547
 H,0,2.8368084582,0.6831820378,1.024201175
 H,0,2.0522709556,-0.878325649,0.7978052725
 O,0,1.8087872747,-0.8787852957,-2.2546961984
 O,0,0.9669486343,0.4234218369,1.9284496891
 H,0,0.4665705518,1.2399411097,1.7426992833
 N,0,3.3264979017,0.7868462398,-1.8754066654
 H,0,3.6106094464,1.450134501,-1.1637415292
 C,0,4.4236361217,0.0697897335,-2.5109490725
 H,0,4.0209254202,-0.4056073265,-3.4100687966
 C,0,4.9197071575,-1.0388430679,-1.5459324068
 C,0,5.5490738192,1.0416423229,-2.8819655245
 H,0,6.3634325387,0.5187897767,-3.3909700997
 H,0,5.9682083761,1.5123983529,-1.9844053158
 H,0,5.1722471746,1.8254081595,-3.5455844919
 O,0,4.56857047,-1.0728113609,-0.366646237
 N,0,5.7653268616,-1.9326013421,-2.0978316541
 H,0,6.0508746789,-1.8711681525,-3.0690111527
 C,0,6.3803200972,-3.0087508274,-1.3375641777
 H,0,6.7541442071,-2.6114885238,-0.388984765
 C,0,7.5163184294,-3.5632607739,-2.1834233344
 C,0,5.3804669209,-4.1696002262,-1.038122428
 H,0,5.7231221521,-4.6836950776,-0.1342254791
 H,0,4.4315625677,-3.6879283635,-0.7864139704
 O,0,8.2239432923,-4.4878660191,-1.5508951542
 C,0,5.2025592943,-5.1988495075,-2.1874629817
 H,0,4.1385687203,-5.4389238253,-2.2863806507
 H,0,5.4745397591,-4.729779971,-3.1419648315
 C,0,5.9976196176,-6.5223513031,-1.9817999603
 H,0,5.2992148527,-7.3105042956,-1.6730301147
 H,0,6.7087893023,-6.4061375049,-1.1583220208
 C,0,6.775329402,-7.0588586613,-3.1934446114
 H,0,7.1339908709,-8.0642076695,-2.9481249607
 H,0,6.106010841,-7.1618307785,-4.0607728716
 N,0,7.9715993169,-6.241226582,-3.5276103922
 H,0,7.7248585371,-5.4693098874,-4.1466236254
 H,0,8.4720890556,-5.191805872,-2.2533605417
 H,0,8.6533218861,-6.8049826864,-4.0309992749
 O,0,7.6325665567,-3.2827054442,-3.369266041
 Recover connectivity data from disk.
                           ----------------------------
                           !    Current Parameters    !
                           ! (Angstroms and Degrees)  !
 --------------------------                            --------------------------
 ! Name  Definition              Value                                          !
 --------------------------------------------------------------------------------
 ! R1    R(1,2)                  1.0239                                         !
 ! R2    R(1,3)                  1.0612                                         !
 ! R3    R(1,4)                  1.0239                                         !
 ! R4    R(1,5)                  1.5204                                         !
 ! R5    R(5,6)                  1.0918                                         !
 ! R6    R(5,7)                  1.5483                                         !
 ! R7    R(5,8)                  1.5409                                         !
 ! R8    R(7,11)                 1.2379                                         !
 ! R9    R(7,22)                 1.3377                                         !
 ! R10   R(8,9)                  1.1006                                         !
 ! R11   R(8,10)                 1.0962                                         !
 ! R12   R(8,12)                 1.5434                                         !
 ! R13   R(12,13)                1.0959                                         !
 ! R14   R(12,14)                1.5361                                         !
 ! R15   R(12,18)                1.5366                                         !
 ! R16   R(14,15)                1.0974                                         !
 ! R17   R(14,16)                1.0996                                         !
 ! R18   R(14,17)                1.0944                                         !
 ! R19   R(18,19)                1.0974                                         !
 ! R20   R(18,20)                1.0948                                         !
 ! R21   R(18,21)                1.0947                                         !
 ! R22   R(22,23)                1.0131                                         !
 ! R23   R(22,24)                1.478                                          !
 ! R24   R(24,25)                1.092                                          !
 ! R25   R(24,26)                1.5386                                         !
 ! R26   R(24,27)                1.5338                                         !
 ! R27   R(26,30)                1.2403                                         !
 ! R28   R(26,46)                1.3387                                         !
 ! R29   R(27,28)                1.0977                                         !
 ! R30   R(27,29)                1.0962                                         !
 ! R31   R(27,31)                1.4975                                         !
 ! R32   R(31,32)                1.3736                                         !
 ! R33   R(31,34)                1.441                                          !
 ! R34   R(32,33)                1.0813                                         !
 ! R35   R(32,38)                1.3787                                         !
 ! R36   R(34,35)                1.4211                                         !
 ! R37   R(34,36)                1.4057                                         !
 ! R38   R(35,38)                1.382                                          !
 ! R39   R(35,42)                1.3981                                         !
 ! R40   R(36,37)                1.0879                                         !
 ! R41   R(36,44)                1.389                                          !
 ! R42   R(38,39)                1.0083                                         !
 ! R43   R(40,41)                1.086                                          !
 ! R44   R(40,42)                1.3902                                         !
 ! R45   R(40,44)                1.4107                                         !
 ! R46   R(42,43)                1.0864                                         !
 ! R47   R(44,45)                1.0862                                         !
 ! R48   R(46,47)                1.0157                                         !
 ! R49   R(46,48)                1.451                                          !
 ! R50   R(48,49)                1.0961                                         !
 ! R51   R(48,50)                1.5333                                         !
 ! R52   R(48,51)                1.5529                                         !
 ! R53   R(50,54)                1.2257                                         !
 ! R54   R(50,57)                1.3627                                         !
 ! R55   R(51,52)                1.0983                                         !
 ! R56   R(51,53)                1.0935                                         !
 ! R57   R(51,55)                1.4227                                         !
 ! R58   R(55,56)                0.9755                                         !
 ! R59   R(57,58)                1.0135                                         !
 ! R60   R(57,59)                1.4566                                         !
 ! R61   R(59,60)                1.0939                                         !
 ! R62   R(59,61)                1.5513                                         !
 ! R63   R(59,62)                1.5326                                         !
 ! R64   R(61,66)                1.2309                                         !
 ! R65   R(61,67)                1.3485                                         !
 ! R66   R(62,63)                1.0935                                         !
 ! R67   R(62,64)                1.0968                                         !
 ! R68   R(62,65)                1.0939                                         !
 ! R69   R(67,68)                1.0142                                         !
 ! R70   R(67,69)                1.4541                                         !
 ! R71   R(69,70)                1.0942                                         !
 ! R72   R(69,71)                1.521                                          !
 ! R73   R(69,72)                1.5611                                         !
 ! R74   R(71,75)                1.325                                          !
 ! R75   R(71,89)                1.2241                                         !
 ! R76   R(72,73)                1.0949                                         !
 ! R77   R(72,74)                1.0935                                         !
 ! R78   R(72,76)                1.5531                                         !
 ! R79   R(76,77)                1.0952                                         !
 ! R80   R(76,78)                1.0978                                         !
 ! R81   R(76,79)                1.5576                                         !
 ! R82   R(79,80)                1.0974                                         !
 ! R83   R(79,81)                1.0943                                         !
 ! R84   R(79,82)                1.5365                                         !
 ! R85   R(82,83)                1.0952                                         !
 ! R86   R(82,84)                1.1004                                         !
 ! R87   R(82,85)                1.487                                          !
 ! R88   R(85,86)                1.0198                                         !
 ! R89   R(85,87)                1.725                                          !
 ! R90   R(85,88)                1.0178                                         !
 ! A1    A(2,1,3)              108.6474                                         !
 ! A2    A(2,1,4)              108.9933                                         !
 ! A3    A(2,1,5)              113.5204                                         !
 ! A4    A(3,1,4)              111.0829                                         !
 ! A5    A(3,1,5)              101.8199                                         !
 ! A6    A(4,1,5)              112.5641                                         !
 ! A7    A(1,5,6)              108.1796                                         !
 ! A8    A(1,5,7)              102.0898                                         !
 ! A9    A(1,5,8)              108.6105                                         !
 ! A10   A(6,5,7)              112.2483                                         !
 ! A11   A(6,5,8)              112.1444                                         !
 ! A12   A(7,5,8)              112.9219                                         !
 ! A13   A(5,7,11)             117.6661                                         !
 ! A14   A(5,7,22)             117.6421                                         !
 ! A15   A(11,7,22)            124.6854                                         !
 ! A16   A(5,8,9)              107.3214                                         !
 ! A17   A(5,8,10)             108.1058                                         !
 ! A18   A(5,8,12)             116.0111                                         !
 ! A19   A(9,8,10)             108.9497                                         !
 ! A20   A(9,8,12)             108.2502                                         !
 ! A21   A(10,8,12)            108.044                                          !
 ! A22   A(8,12,13)            108.3419                                         !
 ! A23   A(8,12,14)            112.6973                                         !
 ! A24   A(8,12,18)            108.43                                           !
 ! A25   A(13,12,14)           109.3229                                         !
 ! A26   A(13,12,18)           106.9278                                         !
 ! A27   A(14,12,18)           110.9246                                         !
 ! A28   A(12,14,15)           111.0354                                         !
 ! A29   A(12,14,16)           113.5103                                         !
 ! A30   A(12,14,17)           110.4245                                         !
 ! A31   A(15,14,16)           107.2291                                         !
 ! A32   A(15,14,17)           107.5585                                         !
 ! A33   A(16,14,17)           106.8038                                         !
 ! A34   A(12,18,19)           111.1846                                         !
 ! A35   A(12,18,20)           110.7869                                         !
 ! A36   A(12,18,21)           110.3258                                         !
 ! A37   A(19,18,20)           108.4512                                         !
 ! A38   A(19,18,21)           107.7291                                         !
 ! A39   A(20,18,21)           108.2549                                         !
 ! A40   A(7,22,23)            118.3202                                         !
 ! A41   A(7,22,24)            120.8669                                         !
 ! A42   A(23,22,24)           115.8772                                         !
 ! A43   A(22,24,25)           107.5043                                         !
 ! A44   A(22,24,26)           105.564                                          !
 ! A45   A(22,24,27)           110.8834                                         !
 ! A46   A(25,24,26)           111.5156                                         !
 ! A47   A(25,24,27)           110.4631                                         !
 ! A48   A(26,24,27)           110.7646                                         !
 ! A49   A(24,26,30)           119.5453                                         !
 ! A50   A(24,26,46)           116.0326                                         !
 ! A51   A(30,26,46)           124.2311                                         !
 ! A52   A(24,27,28)           108.7089                                         !
 ! A53   A(24,27,29)           108.3175                                         !
 ! A54   A(24,27,31)           109.9641                                         !
 ! A55   A(28,27,29)           108.1401                                         !
 ! A56   A(28,27,31)           111.3093                                         !
 ! A57   A(29,27,31)           110.3223                                         !
 ! A58   A(27,31,32)           126.8672                                         !
 ! A59   A(27,31,34)           126.1818                                         !
 ! A60   A(32,31,34)           106.7907                                         !
 ! A61   A(31,32,33)           129.2935                                         !
 ! A62   A(31,32,38)           109.6672                                         !
 ! A63   A(33,32,38)           121.0359                                         !
 ! A64   A(31,34,35)           106.9859                                         !
 ! A65   A(31,34,36)           133.9767                                         !
 ! A66   A(35,34,36)           119.0374                                         !
 ! A67   A(34,35,38)           107.1316                                         !
 ! A68   A(34,35,42)           122.2441                                         !
 ! A69   A(38,35,42)           130.624                                          !
 ! A70   A(34,36,37)           120.584                                          !
 ! A71   A(34,36,44)           118.9422                                         !
 ! A72   A(37,36,44)           120.4701                                         !
 ! A73   A(32,38,35)           109.4228                                         !
 ! A74   A(32,38,39)           125.2176                                         !
 ! A75   A(35,38,39)           125.2952                                         !
 ! A76   A(41,40,42)           119.3199                                         !
 ! A77   A(41,40,44)           119.3442                                         !
 ! A78   A(42,40,44)           121.3358                                         !
 ! A79   A(35,42,40)           117.409                                          !
 ! A80   A(35,42,43)           121.3406                                         !
 ! A81   A(40,42,43)           121.2504                                         !
 ! A82   A(36,44,40)           121.031                                          !
 ! A83   A(36,44,45)           119.746                                          !
 ! A84   A(40,44,45)           119.2225                                         !
 ! A85   A(26,46,47)           121.9791                                         !
 ! A86   A(26,46,48)           122.7544                                         !
 ! A87   A(47,46,48)           115.0514                                         !
 ! A88   A(46,48,49)           108.3553                                         !
 ! A89   A(46,48,50)           107.3225                                         !
 ! A90   A(46,48,51)           111.3057                                         !
 ! A91   A(49,48,50)           111.4894                                         !
 ! A92   A(49,48,51)           109.5573                                         !
 ! A93   A(50,48,51)           108.8078                                         !
 ! A94   A(48,50,54)           120.5735                                         !
 ! A95   A(48,50,57)           115.5232                                         !
 ! A96   A(54,50,57)           123.8838                                         !
 ! A97   A(48,51,52)           108.9899                                         !
 ! A98   A(48,51,53)           109.3009                                         !
 ! A99   A(48,51,55)           112.3315                                         !
 ! A100  A(52,51,53)           107.0203                                         !
 ! A101  A(52,51,55)           111.6146                                         !
 ! A102  A(53,51,55)           107.4147                                         !
 ! A103  A(51,55,56)           108.2245                                         !
 ! A104  A(50,57,58)           116.0                                            !
 ! A105  A(50,57,59)           118.6721                                         !
 ! A106  A(58,57,59)           114.6707                                         !
 ! A107  A(57,59,60)           107.1738                                         !
 ! A108  A(57,59,61)           108.7384                                         !
 ! A109  A(57,59,62)           110.2777                                         !
 ! A110  A(60,59,61)           108.5698                                         !
 ! A111  A(60,59,62)           110.3011                                         !
 ! A112  A(61,59,62)           111.6514                                         !
 ! A113  A(59,61,66)           121.6338                                         !
 ! A114  A(59,61,67)           114.809                                          !
 ! A115  A(66,61,67)           123.5519                                         !
 ! A116  A(59,62,63)           110.8782                                         !
 ! A117  A(59,62,64)           110.7751                                         !
 ! A118  A(59,62,65)           110.3795                                         !
 ! A119  A(63,62,64)           107.5524                                         !
 ! A120  A(63,62,65)           108.4664                                         !
 ! A121  A(64,62,65)           108.6975                                         !
 ! A122  A(61,67,68)           121.8934                                         !
 ! A123  A(61,67,69)           122.8029                                         !
 ! A124  A(68,67,69)           115.2422                                         !
 ! A125  A(67,69,70)           109.2114                                         !
 ! A126  A(67,69,71)           107.1535                                         !
 ! A127  A(67,69,72)           112.3183                                         !
 ! A128  A(70,69,71)           111.0568                                         !
 ! A129  A(70,69,72)           108.814                                          !
 ! A130  A(71,69,72)           108.2968                                         !
 ! A131  A(69,71,75)           112.8167                                         !
 ! A132  A(69,71,89)           121.7427                                         !
 ! A133  A(75,71,89)           124.8658                                         !
 ! A134  A(69,72,73)           107.8832                                         !
 ! A135  A(69,72,74)           105.8066                                         !
 ! A136  A(69,72,76)           115.1021                                         !
 ! A137  A(73,72,74)           106.7604                                         !
 ! A138  A(73,72,76)           109.6113                                         !
 ! A139  A(74,72,76)           111.2758                                         !
 ! A140  A(72,76,77)           108.8686                                         !
 ! A141  A(72,76,78)           109.3849                                         !
 ! A142  A(72,76,79)           114.0126                                         !
 ! A143  A(77,76,78)           104.8227                                         !
 ! A144  A(77,76,79)           108.7571                                         !
 ! A145  A(78,76,79)           110.5743                                         !
 ! A146  A(76,79,80)           108.8178                                         !
 ! A147  A(76,79,81)           109.9298                                         !
 ! A148  A(76,79,82)           116.8045                                         !
 ! A149  A(80,79,81)           106.1499                                         !
 ! A150  A(80,79,82)           107.0515                                         !
 ! A151  A(81,79,82)           107.552                                          !
 ! A152  A(79,82,83)           108.0378                                         !
 ! A153  A(79,82,84)           110.2651                                         !
 ! A154  A(79,82,85)           113.1047                                         !
 ! A155  A(83,82,84)           106.8483                                         !
 ! A156  A(83,82,85)           106.9542                                         !
 ! A157  A(84,82,85)           111.3247                                         !
 ! A158  A(82,85,86)           110.9755                                         !
 ! A159  A(82,85,87)           113.6983                                         !
 ! A160  A(82,85,88)           110.207                                          !
 ! A161  A(86,85,87)            93.3308                                         !
 ! A162  A(86,85,88)           106.3266                                         !
 ! A163  A(87,85,88)           120.5294                                         !
 ! D1    D(2,1,5,6)             19.5518                                         !
 ! D2    D(2,1,5,7)            -98.996                                          !
 ! D3    D(2,1,5,8)            141.5045                                         !
 ! D4    D(3,1,5,6)            136.1258                                         !
 ! D5    D(3,1,5,7)             17.578                                          !
 ! D6    D(3,1,5,8)           -101.9215                                         !
 ! D7    D(4,1,5,6)           -104.866                                          !
 ! D8    D(4,1,5,7)            136.5862                                         !
 ! D9    D(4,1,5,8)             17.0867                                         !
 ! D10   D(1,5,7,11)           -16.8606                                         !
 ! D11   D(1,5,7,22)           164.0114                                         !
 ! D12   D(6,5,7,11)          -132.4781                                         !
 ! D13   D(6,5,7,22)            48.3939                                         !
 ! D14   D(8,5,7,11)            99.5582                                         !
 ! D15   D(8,5,7,22)           -79.5698                                         !
 ! D16   D(1,5,8,9)            -57.9397                                         !
 ! D17   D(1,5,8,10)            59.4381                                         !
 ! D18   D(1,5,8,12)          -179.0845                                         !
 ! D19   D(6,5,8,9)             61.5633                                         !
 ! D20   D(6,5,8,10)           178.9411                                         !
 ! D21   D(6,5,8,12)           -59.5815                                         !
 ! D22   D(7,5,8,9)           -170.4187                                         !
 ! D23   D(7,5,8,10)           -53.0409                                         !
 ! D24   D(7,5,8,12)            68.4365                                         !
 ! D25   D(5,7,22,23)            7.4045                                         !
 ! D26   D(5,7,22,24)          161.5226                                         !
 ! D27   D(11,7,22,23)        -171.6563                                         !
 ! D28   D(11,7,22,24)         -17.5381                                         !
 ! D29   D(5,8,12,13)          -62.8059                                         !
 ! D30   D(5,8,12,14)           58.2938                                         !
 ! D31   D(5,8,12,18)         -178.5156                                         !
 ! D32   D(9,8,12,13)          176.5473                                         !
 ! D33   D(9,8,12,14)          -62.353                                          !
 ! D34   D(9,8,12,18)           60.8376                                         !
 ! D35   D(10,8,12,13)          58.7045                                         !
 ! D36   D(10,8,12,14)         179.8042                                         !
 ! D37   D(10,8,12,18)         -57.0052                                         !
 ! D38   D(8,12,14,15)          58.3047                                         !
 ! D39   D(8,12,14,16)         -62.5837                                         !
 ! D40   D(8,12,14,17)         177.5212                                         !
 ! D41   D(13,12,14,15)        178.8435                                         !
 ! D42   D(13,12,14,16)         57.9551                                         !
 ! D43   D(13,12,14,17)        -61.9399                                         !
 ! D44   D(18,12,14,15)        -63.4849                                         !
 ! D45   D(18,12,14,16)        175.6267                                         !
 ! D46   D(18,12,14,17)         55.7316                                         !
 ! D47   D(8,12,18,19)         -63.4546                                         !
 ! D48   D(8,12,18,20)          57.2219                                         !
 ! D49   D(8,12,18,21)         177.0841                                         !
 ! D50   D(13,12,18,19)        179.9208                                         !
 ! D51   D(13,12,18,20)        -59.4027                                         !
 ! D52   D(13,12,18,21)         60.4595                                         !
 ! D53   D(14,12,18,19)         60.7989                                         !
 ! D54   D(14,12,18,20)       -178.5246                                         !
 ! D55   D(14,12,18,21)        -58.6624                                         !
 ! D56   D(7,22,24,25)          49.802                                          !
 ! D57   D(7,22,24,26)         -69.3444                                         !
 ! D58   D(7,22,24,27)         170.6446                                         !
 ! D59   D(23,22,24,25)       -155.4813                                         !
 ! D60   D(23,22,24,26)         85.3723                                         !
 ! D61   D(23,22,24,27)        -34.6387                                         !
 ! D62   D(22,24,26,30)        -66.9893                                         !
 ! D63   D(22,24,26,46)        108.2011                                         !
 ! D64   D(25,24,26,30)        176.5608                                         !
 ! D65   D(25,24,26,46)         -8.2489                                         !
 ! D66   D(27,24,26,30)         53.0999                                         !
 ! D67   D(27,24,26,46)       -131.7098                                         !
 ! D68   D(22,24,27,28)        -56.2112                                         !
 ! D69   D(22,24,27,29)         61.0707                                         !
 ! D70   D(22,24,27,31)       -178.2995                                         !
 ! D71   D(25,24,27,28)         62.8653                                         !
 ! D72   D(25,24,27,29)       -179.8527                                         !
 ! D73   D(25,24,27,31)        -59.2229                                         !
 ! D74   D(26,24,27,28)       -173.0697                                         !
 ! D75   D(26,24,27,29)        -55.7878                                         !
 ! D76   D(26,24,27,31)         64.842                                          !
 ! D77   D(24,26,46,47)          2.9342                                         !
 ! D78   D(24,26,46,48)       -171.4721                                         !
 ! D79   D(30,26,46,47)        177.8726                                         !
 ! D80   D(30,26,46,48)          3.4663                                         !
 ! D81   D(24,27,31,32)       -103.5723                                         !
 ! D82   D(24,27,31,34)         71.207                                          !
 ! D83   D(28,27,31,32)        135.8964                                         !
 ! D84   D(28,27,31,34)        -49.3242                                         !
 ! D85   D(29,27,31,32)         15.841                                          !
 ! D86   D(29,27,31,34)       -169.3796                                         !
 ! D87   D(27,31,32,33)         -3.3588                                         !
 ! D88   D(27,31,32,38)        175.9602                                         !
 ! D89   D(34,31,32,33)       -178.9591                                         !
 ! D90   D(34,31,32,38)          0.3599                                         !
 ! D91   D(27,31,34,35)       -176.0777                                         !
 ! D92   D(27,31,34,36)          3.9137                                         !
 ! D93   D(32,31,34,35)         -0.4385                                         !
 ! D94   D(32,31,34,36)        179.5529                                         !
 ! D95   D(31,32,38,35)         -0.1419                                         !
 ! D96   D(31,32,38,39)        177.0631                                         !
 ! D97   D(33,32,38,35)        179.243                                          !
 ! D98   D(33,32,38,39)         -3.5519                                         !
 ! D99   D(31,34,35,38)          0.3549                                         !
 ! D100  D(31,34,35,42)       -179.8072                                         !
 ! D101  D(36,34,35,38)       -179.6381                                         !
 ! D102  D(36,34,35,42)          0.1999                                         !
 ! D103  D(31,34,36,37)          0.6866                                         !
 ! D104  D(31,34,36,44)        179.9905                                         !
 ! D105  D(35,34,36,37)       -179.3228                                         !
 ! D106  D(35,34,36,44)         -0.0188                                         !
 ! D107  D(34,35,38,32)         -0.141                                          !
 ! D108  D(34,35,38,39)       -177.3434                                         !
 ! D109  D(42,35,38,32)       -179.9605                                         !
 ! D110  D(42,35,38,39)          2.8372                                         !
 ! D111  D(34,35,42,40)         -0.275                                          !
 ! D112  D(34,35,42,43)        179.749                                          !
 ! D113  D(38,35,42,40)        179.5209                                         !
 ! D114  D(38,35,42,43)         -0.4551                                         !
 ! D115  D(34,36,44,40)         -0.0751                                         !
 ! D116  D(34,36,44,45)       -179.8234                                         !
 ! D117  D(37,36,44,40)        179.2296                                         !
 ! D118  D(37,36,44,45)         -0.5186                                         !
 ! D119  D(41,40,42,35)       -179.9819                                         !
 ! D120  D(41,40,42,43)         -0.0059                                         !
 ! D121  D(44,40,42,35)          0.1768                                         !
 ! D122  D(44,40,42,43)       -179.8472                                         !
 ! D123  D(41,40,44,36)       -179.8468                                         !
 ! D124  D(41,40,44,45)         -0.0972                                         !
 ! D125  D(42,40,44,36)         -0.0055                                         !
 ! D126  D(42,40,44,45)        179.744                                          !
 ! D127  D(26,46,48,49)        -41.954                                          !
 ! D128  D(26,46,48,50)       -162.4706                                         !
 ! D129  D(26,46,48,51)         78.5743                                         !
 ! D130  D(47,46,48,49)        143.2825                                         !
 ! D131  D(47,46,48,50)         22.7659                                         !
 ! D132  D(47,46,48,51)        -96.1893                                         !
 ! D133  D(46,48,50,54)        -21.9191                                         !
 ! D134  D(46,48,50,57)        159.6261                                         !
 ! D135  D(49,48,50,54)       -140.4287                                         !
 ! D136  D(49,48,50,57)         41.1164                                         !
 ! D137  D(51,48,50,54)         98.6316                                         !
 ! D138  D(51,48,50,57)        -79.8232                                         !
 ! D139  D(46,48,51,52)       -173.1337                                         !
 ! D140  D(46,48,51,53)         70.2181                                         !
 ! D141  D(46,48,51,55)        -48.9043                                         !
 ! D142  D(49,48,51,52)        -53.3156                                         !
 ! D143  D(49,48,51,53)       -169.9638                                         !
 ! D144  D(49,48,51,55)         70.9138                                         !
 ! D145  D(50,48,51,52)         68.8031                                         !
 ! D146  D(50,48,51,53)        -47.8451                                         !
 ! D147  D(50,48,51,55)       -166.9675                                         !
 ! D148  D(48,50,57,58)         13.0066                                         !
 ! D149  D(48,50,57,59)        155.7588                                         !
 ! D150  D(54,50,57,58)       -165.3909                                         !
 ! D151  D(54,50,57,59)        -22.6387                                         !
 ! D152  D(48,51,55,56)        -32.8758                                         !
 ! D153  D(52,51,55,56)         89.8861                                         !
 ! D154  D(53,51,55,56)       -153.0969                                         !
 ! D155  D(50,57,59,60)         51.0061                                         !
 ! D156  D(50,57,59,61)        -66.1759                                         !
 ! D157  D(50,57,59,62)        171.0937                                         !
 ! D158  D(58,57,59,60)       -165.7673                                         !
 ! D159  D(58,57,59,61)         77.0508                                         !
 ! D160  D(58,57,59,62)        -45.6797                                         !
 ! D161  D(57,59,61,66)        -12.3028                                         !
 ! D162  D(57,59,61,67)        168.503                                          !
 ! D163  D(60,59,61,66)       -128.591                                          !
 ! D164  D(60,59,61,67)         52.2147                                         !
 ! D165  D(62,59,61,66)        109.5955                                         !
 ! D166  D(62,59,61,67)        -69.5987                                         !
 ! D167  D(57,59,62,63)       -178.0524                                         !
 ! D168  D(57,59,62,64)         62.6123                                         !
 ! D169  D(57,59,62,65)        -57.8312                                         !
 ! D170  D(60,59,62,63)        -59.8682                                         !
 ! D171  D(60,59,62,64)       -179.2035                                         !
 ! D172  D(60,59,62,65)         60.353                                          !
 ! D173  D(61,59,62,63)         60.9409                                         !
 ! D174  D(61,59,62,64)        -58.3944                                         !
 ! D175  D(61,59,62,65)       -178.8379                                         !
 ! D176  D(59,61,67,68)          0.2829                                         !
 ! D177  D(59,61,67,69)        177.294                                          !
 ! D178  D(66,61,67,68)       -178.8939                                         !
 ! D179  D(66,61,67,69)         -1.8827                                         !
 ! D180  D(61,67,69,70)        -45.1843                                         !
 ! D181  D(61,67,69,71)       -165.5655                                         !
 ! D182  D(61,67,69,72)         75.6271                                         !
 ! D183  D(68,67,69,70)        132.0103                                         !
 ! D184  D(68,67,69,71)         11.6291                                         !
 ! D185  D(68,67,69,72)       -107.1783                                         !
 ! D186  D(67,69,71,75)        175.0995                                         !
 ! D187  D(67,69,71,89)        -13.1966                                         !
 ! D188  D(70,69,71,75)         55.9002                                         !
 ! D189  D(70,69,71,89)       -132.3959                                         !
 ! D190  D(72,69,71,75)        -63.5244                                         !
 ! D191  D(72,69,71,89)        108.1795                                         !
 ! D192  D(67,69,72,73)       -154.5442                                         !
 ! D193  D(67,69,72,74)        -40.5739                                         !
 ! D194  D(67,69,72,76)         82.7297                                         !
 ! D195  D(70,69,72,73)        -33.5042                                         !
 ! D196  D(70,69,72,74)         80.4662                                         !
 ! D197  D(70,69,72,76)       -156.2302                                         !
 ! D198  D(71,69,72,73)         87.3223                                         !
 ! D199  D(71,69,72,74)       -158.7074                                         !
 ! D200  D(71,69,72,76)        -35.4038                                         !
 ! D201  D(69,72,76,77)       -137.396                                          !
 ! D202  D(69,72,76,78)        -23.3884                                         !
 ! D203  D(69,72,76,79)        100.9851                                         !
 ! D204  D(73,72,76,77)        100.8072                                         !
 ! D205  D(73,72,76,78)       -145.1853                                         !
 ! D206  D(73,72,76,79)        -20.8117                                         !
 ! D207  D(74,72,76,77)        -17.0496                                         !
 ! D208  D(74,72,76,78)         96.958                                          !
 ! D209  D(74,72,76,79)       -138.6685                                         !
 ! D210  D(72,76,79,80)        104.0145                                         !
 ! D211  D(72,76,79,81)        -11.8431                                         !
 ! D212  D(72,76,79,82)       -134.7032                                         !
 ! D213  D(77,76,79,80)        -17.6659                                         !
 ! D214  D(77,76,79,81)       -133.5236                                         !
 ! D215  D(77,76,79,82)        103.6163                                         !
 ! D216  D(78,76,79,80)       -132.2517                                         !
 ! D217  D(78,76,79,81)        111.8906                                         !
 ! D218  D(78,76,79,82)        -10.9695                                         !
 ! D219  D(76,79,82,83)       -170.5119                                         !
 ! D220  D(76,79,82,84)        -54.0778                                         !
 ! D221  D(76,79,82,85)         71.3006                                         !
 ! D222  D(80,79,82,83)        -48.3056                                         !
 ! D223  D(80,79,82,84)         68.1285                                         !
 ! D224  D(80,79,82,85)       -166.4931                                         !
 ! D225  D(81,79,82,83)         65.4076                                         !
 ! D226  D(81,79,82,84)       -178.1583                                         !
 ! D227  D(81,79,82,85)        -52.7798                                         !
 ! D228  D(79,82,85,86)        -86.7579                                         !
 ! D229  D(79,82,85,87)         16.9062                                         !
 ! D230  D(79,82,85,88)        155.7313                                         !
 ! D231  D(83,82,85,86)        154.4256                                         !
 ! D232  D(83,82,85,87)       -101.9102                                         !
 ! D233  D(83,82,85,88)         36.9148                                         !
 ! D234  D(84,82,85,86)         38.0478                                         !
 ! D235  D(84,82,85,87)        141.7119                                         !
 ! D236  D(84,82,85,88)        -79.463                                          !
 --------------------------------------------------------------------------------
 Symmetry turned off by external request.
 Stoichiometry    C29H46N7O7(1+)
 Framework group  C1[X(C29H46N7O7)]
 Deg. of freedom   261
 Full point group                 C1      NOp   1
                          Input orientation:                          
 ---------------------------------------------------------------------
 Center     Atomic      Atomic             Coordinates (Angstroms)
 Number     Number       Type             X           Y           Z
 ---------------------------------------------------------------------
      1          7           0       -1.464708   -3.222218    3.167104
      2          1           0       -2.163556   -3.966772    3.242583
      3          1           0       -0.965772   -3.318346    2.235487
      4          1           0       -0.806593   -3.302540    3.947400
      5          6           0       -2.069270   -1.831759    3.054589
      6          1           0       -3.096323   -1.876106    3.422259
      7          6           0       -2.003221   -1.571855    1.529704
      8          6           0       -1.202757   -0.851431    3.868575
      9          1           0       -1.177027   -1.219944    4.905332
     10          1           0       -0.186699   -0.872996    3.457807
     11          8           0       -1.253542   -2.290605    0.856070
     12          6           0       -1.679067    0.616466    3.889059
     13          1           0       -1.645997    1.004096    2.864521
     14          6           0       -3.102853    0.769918    4.444854
     15          1           0       -3.172727    0.370825    5.464697
     16          1           0       -3.866699    0.258082    3.841765
     17          1           0       -3.385905    1.826376    4.483621
     18          6           0       -0.676911    1.440941    4.711924
     19          1           0       -0.654678    1.109234    5.757758
     20          1           0        0.332666    1.350733    4.298280
     21          1           0       -0.957593    2.499049    4.703687
     22          7           0       -2.746966   -0.574918    1.037242
     23          1           0       -3.227070    0.033930    1.689305
     24          6           0       -2.455162    0.004210   -0.290866
     25          1           0       -2.362545   -0.823576   -0.996981
     26          6           0       -1.124316    0.759169   -0.128682
     27          6           0       -3.572501    0.959591   -0.728198
     28          1           0       -4.526220    0.416351   -0.713118
     29          1           0       -3.633036    1.775767    0.001147
     30          8           0       -1.077285    1.768125    0.591172
     31          6           0       -3.276676    1.501959   -2.092277
     32          6           0       -2.804754    2.755632   -2.396144
     33          1           0       -2.606574    3.590700   -1.738467
     34          6           0       -3.335060    0.767637   -3.330813
     35          6           0       -2.890512    1.646086   -4.355635
     36          6           0       -3.717840   -0.541022   -3.672495
     37          1           0       -4.072449   -1.230951   -2.909823
     38          7           0       -2.573332    2.848244   -3.752120
     39          1           0       -2.264506    3.678373   -4.233912
     40          6           0       -3.207400   -0.045453   -6.003463
     41          1           0       -3.167624   -0.382003   -7.035245
     42          6           0       -2.823996    1.255075   -5.696347
     43          1           0       -2.485586    1.940181   -6.468658
     44          6           0       -3.650120   -0.935543   -5.002532
     45          1           0       -3.945460   -1.942862   -5.281564
     46          7           0       -0.057661    0.202295   -0.715362
     47          1           0       -0.130839   -0.643442   -1.273087
     48          6           0        1.294361    0.686668   -0.508319
     49          1           0        1.274843    1.782429   -0.525390
     50          6           0        2.159912    0.122586   -1.641291
     51          6           0        1.866958    0.198055    0.849931
     52          1           0        2.836808    0.683182    1.024201
     53          1           0        2.052271   -0.878326    0.797805
     54          8           0        1.808787   -0.878785   -2.254696
     55          8           0        0.966949    0.423422    1.928450
     56          1           0        0.466571    1.239941    1.742699
     57          7           0        3.326498    0.786846   -1.875407
     58          1           0        3.610609    1.450135   -1.163742
     59          6           0        4.423636    0.069790   -2.510949
     60          1           0        4.020925   -0.405607   -3.410069
     61          6           0        4.919707   -1.038843   -1.545932
     62          6           0        5.549074    1.041642   -2.881966
     63          1           0        6.363433    0.518790   -3.390970
     64          1           0        5.968208    1.512398   -1.984405
     65          1           0        5.172247    1.825408   -3.545584
     66          8           0        4.568570   -1.072811   -0.366646
     67          7           0        5.765327   -1.932601   -2.097832
     68          1           0        6.050875   -1.871168   -3.069011
     69          6           0        6.380320   -3.008751   -1.337564
     70          1           0        6.754144   -2.611489   -0.388985
     71          6           0        7.516318   -3.563261   -2.183423
     72          6           0        5.380467   -4.169600   -1.038122
     73          1           0        5.723122   -4.683695   -0.134225
     74          1           0        4.431563   -3.687928   -0.786414
     75          8           0        8.223943   -4.487866   -1.550895
     76          6           0        5.202559   -5.198850   -2.187463
     77          1           0        4.138569   -5.438924   -2.286381
     78          1           0        5.474540   -4.729780   -3.141965
     79          6           0        5.997620   -6.522351   -1.981800
     80          1           0        5.299215   -7.310504   -1.673030
     81          1           0        6.708789   -6.406138   -1.158322
     82          6           0        6.775329   -7.058859   -3.193445
     83          1           0        7.133991   -8.064208   -2.948125
     84          1           0        6.106011   -7.161831   -4.060773
     85          7           0        7.971599   -6.241227   -3.527610
     86          1           0        7.724859   -5.469310   -4.146624
     87          1           0        8.472089   -5.191806   -2.253361
     88          1           0        8.653322   -6.804983   -4.030999
     89          8           0        7.632567   -3.282705   -3.369266
 ---------------------------------------------------------------------
 Rotational constants (GHZ):           0.0880570           0.0371971           0.0315741
 Standard basis: 6-31G(d) (6D, 7F)
   737 basis functions,  1388 primitive gaussians,   737 cartesian basis functions
   162 alpha electrons      162 beta electrons
       nuclear repulsion energy      5407.8737303549 Hartrees.
 NAtoms=   89 NActive=   89 NUniq=   89 SFac= 1.00D+00 NAtFMM=   60 NAOKFM=T Big=T
 Integral buffers will be    131072 words long.
 Raffenetti 2 integral format.
 Two-electron integral symmetry is turned off.
 Nuclear repulsion after empirical dispersion term =     5407.7573874685 Hartrees.
 One-electron integrals computed using PRISM.
 NBasis=   737 RedAO= T EigKep=  3.76D-04  NBF=   737
 NBsUse=   737 1.00D-06 EigRej= -1.00D+00 NBFU=   737
 Initial guess from the checkpoint file:  "conf-231.chk"
 B after Tr=     0.000000    0.000000    0.000000
         Rot=    1.000000    0.000000    0.000000    0.000000 Ang=   0.00 deg.
 Requested convergence on RMS density matrix=1.00D-08 within 128 cycles.
 Requested convergence on MAX density matrix=1.00D-06.
 Requested convergence on             energy=1.00D-06.
 No special actions if energy rises.
 SCF Done:  E(RB3LYP) =  -2042.60633980     A.U. after    1 cycles
            NFock=  1  Conv=0.68D-08     -V/T= 2.0094

 **********************************************************************

            Population analysis using the SCF Density.

 **********************************************************************

 Alpha  occ. eigenvalues --  -19.27022 -19.22967 -19.22896 -19.21230 -19.20365
 Alpha  occ. eigenvalues --  -19.19996 -19.18435 -14.59972 -14.49912 -14.45521
 Alpha  occ. eigenvalues --  -14.44733 -14.44079 -14.42491 -14.40059 -10.43610
 Alpha  occ. eigenvalues --  -10.40392 -10.38460 -10.37735 -10.37356 -10.35408
 Alpha  occ. eigenvalues --  -10.33970 -10.32273 -10.32013 -10.31697 -10.30908
 Alpha  occ. eigenvalues --  -10.29980 -10.29851 -10.28949 -10.28581 -10.28350
 Alpha  occ. eigenvalues --  -10.28220 -10.27858 -10.26397 -10.26169 -10.25427
 Alpha  occ. eigenvalues --  -10.25121 -10.25087 -10.25048 -10.24991 -10.24647
 Alpha  occ. eigenvalues --  -10.24550 -10.24307 -10.24253  -1.19461  -1.15362
 Alpha  occ. eigenvalues --   -1.13972  -1.13406  -1.12304  -1.10116  -1.09854
 Alpha  occ. eigenvalues --   -1.06720  -1.06281  -1.04605  -1.01877  -1.00798
 Alpha  occ. eigenvalues --   -0.99150  -0.95675  -0.94164  -0.90609  -0.89727
 Alpha  occ. eigenvalues --   -0.87745  -0.87043  -0.85793  -0.84203  -0.82836
 Alpha  occ. eigenvalues --   -0.80905  -0.80016  -0.79776  -0.78641  -0.77927
 Alpha  occ. eigenvalues --   -0.75998  -0.75640  -0.73996  -0.73698  -0.72966
 Alpha  occ. eigenvalues --   -0.72567  -0.71437  -0.69158  -0.68668  -0.68605
 Alpha  occ. eigenvalues --   -0.67461  -0.66946  -0.65970  -0.65851  -0.65192
 Alpha  occ. eigenvalues --   -0.65067  -0.63463  -0.62990  -0.62766  -0.61610
 Alpha  occ. eigenvalues --   -0.60621  -0.59823  -0.59614  -0.59479  -0.58406
 Alpha  occ. eigenvalues --   -0.57511  -0.57222  -0.56963  -0.55871  -0.55447
 Alpha  occ. eigenvalues --   -0.55115  -0.54919  -0.54571  -0.53922  -0.53711
 Alpha  occ. eigenvalues --   -0.53453  -0.53057  -0.52925  -0.52502  -0.51821
 Alpha  occ. eigenvalues --   -0.51684  -0.51248  -0.50715  -0.50197  -0.49837
 Alpha  occ. eigenvalues --   -0.49568  -0.49463  -0.49201  -0.48945  -0.48580
 Alpha  occ. eigenvalues --   -0.48371  -0.48135  -0.47850  -0.47539  -0.47354
 Alpha  occ. eigenvalues --   -0.47116  -0.46889  -0.46584  -0.46364  -0.45870
 Alpha  occ. eigenvalues --   -0.45792  -0.44720  -0.44576  -0.44303  -0.43964
 Alpha  occ. eigenvalues --   -0.43594  -0.43334  -0.43314  -0.42763  -0.42557
 Alpha  occ. eigenvalues --   -0.41966  -0.41698  -0.41354  -0.40212  -0.39791
 Alpha  occ. eigenvalues --   -0.39596  -0.39526  -0.38998  -0.38635  -0.36663
 Alpha  occ. eigenvalues --   -0.36425  -0.35585  -0.34969  -0.34206  -0.33937
 Alpha  occ. eigenvalues --   -0.33705  -0.33467  -0.32849  -0.31926  -0.31762
 Alpha  occ. eigenvalues --   -0.28655  -0.27037
 Alpha virt. eigenvalues --   -0.12655  -0.10868  -0.08090  -0.07569  -0.06509
 Alpha virt. eigenvalues --   -0.06095  -0.05682  -0.05251  -0.04300  -0.03751
 Alpha virt. eigenvalues --   -0.02026  -0.01396  -0.00539  -0.00221  -0.00039
 Alpha virt. eigenvalues --    0.01132   0.01183   0.01394   0.01803   0.02274
 Alpha virt. eigenvalues --    0.02489   0.03398   0.04147   0.04203   0.05226
 Alpha virt. eigenvalues --    0.05352   0.05503   0.05654   0.06102   0.06237
 Alpha virt. eigenvalues --    0.06510   0.06618   0.07202   0.07665   0.07727
 Alpha virt. eigenvalues --    0.08046   0.08239   0.08584   0.08784   0.09132
 Alpha virt. eigenvalues --    0.09356   0.09462   0.09585   0.09908   0.10191
 Alpha virt. eigenvalues --    0.10374   0.10617   0.10892   0.11453   0.11529
 Alpha virt. eigenvalues --    0.11621   0.12020   0.12271   0.12316   0.12450
 Alpha virt. eigenvalues --    0.12607   0.12929   0.13451   0.13717   0.14151
 Alpha virt. eigenvalues --    0.14438   0.14658   0.15078   0.15210   0.15386
 Alpha virt. eigenvalues --    0.16067   0.16189   0.16478   0.17211   0.17311
 Alpha virt. eigenvalues --    0.17638   0.17907   0.18347   0.18571   0.19825
 Alpha virt. eigenvalues --    0.20208   0.21120   0.21172   0.21789   0.22694
 Alpha virt. eigenvalues --    0.23408   0.23595   0.24185   0.25418   0.26195
 Alpha virt. eigenvalues --    0.26635   0.27036   0.28440   0.28753   0.29477
 Alpha virt. eigenvalues --    0.30608   0.30852   0.33247   0.34156   0.34537
 Alpha virt. eigenvalues --    0.36271   0.36660   0.37225   0.37717   0.38426
 Alpha virt. eigenvalues --    0.39225   0.40029   0.41967   0.42699   0.42765
 Alpha virt. eigenvalues --    0.43355   0.43463   0.43902   0.44620   0.45247
 Alpha virt. eigenvalues --    0.45412   0.45546   0.45743   0.45936   0.46937
 Alpha virt. eigenvalues --    0.47257   0.47369   0.48050   0.48443   0.48697
 Alpha virt. eigenvalues --    0.49103   0.49437   0.49694   0.49872   0.50212
 Alpha virt. eigenvalues --    0.50744   0.51156   0.51375   0.51677   0.51933
 Alpha virt. eigenvalues --    0.52615   0.52981   0.53215   0.53663   0.53964
 Alpha virt. eigenvalues --    0.54225   0.54398   0.54708   0.55064   0.55521
 Alpha virt. eigenvalues --    0.56059   0.56214   0.56551   0.56604   0.56804
 Alpha virt. eigenvalues --    0.57248   0.57990   0.58625   0.59006   0.59036
 Alpha virt. eigenvalues --    0.59176   0.59645   0.60340   0.60712   0.61521
 Alpha virt. eigenvalues --    0.61881   0.62471   0.62872   0.63044   0.63233
 Alpha virt. eigenvalues --    0.63268   0.63486   0.63977   0.64526   0.64718
 Alpha virt. eigenvalues --    0.65235   0.66534   0.66655   0.66992   0.67299
 Alpha virt. eigenvalues --    0.68182   0.68943   0.69124   0.70345   0.70671
 Alpha virt. eigenvalues --    0.70974   0.71105   0.71184   0.71788   0.72509
 Alpha virt. eigenvalues --    0.72986   0.73376   0.73838   0.74149   0.74449
 Alpha virt. eigenvalues --    0.74634   0.74752   0.74955   0.75404   0.75788
 Alpha virt. eigenvalues --    0.75914   0.76177   0.76223   0.76925   0.77370
 Alpha virt. eigenvalues --    0.77667   0.78132   0.78527   0.78837   0.79084
 Alpha virt. eigenvalues --    0.79567   0.79642   0.79987   0.80148   0.80362
 Alpha virt. eigenvalues --    0.80620   0.80756   0.80956   0.81413   0.81687
 Alpha virt. eigenvalues --    0.81981   0.82068   0.82262   0.82887   0.82956
 Alpha virt. eigenvalues --    0.83165   0.84188   0.84238   0.84496   0.84702
 Alpha virt. eigenvalues --    0.85049   0.85722   0.85830   0.86076   0.86323
 Alpha virt. eigenvalues --    0.86787   0.86932   0.87215   0.87541   0.88036
 Alpha virt. eigenvalues --    0.88694   0.88927   0.89579   0.89868   0.90277
 Alpha virt. eigenvalues --    0.90428   0.90890   0.90997   0.91384   0.91751
 Alpha virt. eigenvalues --    0.92081   0.92427   0.93045   0.93347   0.93949
 Alpha virt. eigenvalues --    0.94519   0.94824   0.96544   0.96975   0.97696
 Alpha virt. eigenvalues --    0.98954   0.99449   0.99836   1.00696   1.01474
 Alpha virt. eigenvalues --    1.02405   1.02562   1.03345   1.04955   1.05191
 Alpha virt. eigenvalues --    1.05435   1.06174   1.06717   1.07029   1.07849
 Alpha virt. eigenvalues --    1.08985   1.09754   1.09892   1.11629   1.11956
 Alpha virt. eigenvalues --    1.12831   1.13247   1.13986   1.14345   1.14829
 Alpha virt. eigenvalues --    1.15857   1.17227   1.17989   1.19329   1.19604
 Alpha virt. eigenvalues --    1.20444   1.21350   1.21390   1.22587   1.23184
 Alpha virt. eigenvalues --    1.24262   1.25172   1.26806   1.27778   1.27864
 Alpha virt. eigenvalues --    1.28473   1.28849   1.29642   1.30129   1.31154
 Alpha virt. eigenvalues --    1.32371   1.32982   1.33540   1.34823   1.35064
 Alpha virt. eigenvalues --    1.35744   1.36334   1.36895   1.37240   1.37567
 Alpha virt. eigenvalues --    1.38111   1.38768   1.39325   1.40650   1.40878
 Alpha virt. eigenvalues --    1.41427   1.42198   1.42701   1.43375   1.43930
 Alpha virt. eigenvalues --    1.44142   1.44790   1.45504   1.47619   1.47740
 Alpha virt. eigenvalues --    1.49130   1.50742   1.51463   1.52158   1.52853
 Alpha virt. eigenvalues --    1.53671   1.54218   1.55118   1.55861   1.56903
 Alpha virt. eigenvalues --    1.57438   1.58078   1.58744   1.59742   1.60126
 Alpha virt. eigenvalues --    1.60829   1.62197   1.62804   1.63466   1.63963
 Alpha virt. eigenvalues --    1.64586   1.65777   1.66093   1.66546   1.67209
 Alpha virt. eigenvalues --    1.67801   1.68271   1.68592   1.69226   1.69843
 Alpha virt. eigenvalues --    1.70227   1.70702   1.70914   1.71507   1.72155
 Alpha virt. eigenvalues --    1.72571   1.74100   1.74197   1.74613   1.75046
 Alpha virt. eigenvalues --    1.75908   1.76564   1.76889   1.77560   1.77955
 Alpha virt. eigenvalues --    1.79174   1.79454   1.79784   1.80520   1.80930
 Alpha virt. eigenvalues --    1.81260   1.81513   1.81971   1.82911   1.83548
 Alpha virt. eigenvalues --    1.84016   1.84297   1.84480   1.84887   1.85345
 Alpha virt. eigenvalues --    1.85545   1.86279   1.86984   1.87395   1.87573
 Alpha virt. eigenvalues --    1.87882   1.88766   1.89095   1.89483   1.89976
 Alpha virt. eigenvalues --    1.90428   1.91212   1.91759   1.92280   1.92948
 Alpha virt. eigenvalues --    1.93246   1.93384   1.93811   1.94622   1.94765
 Alpha virt. eigenvalues --    1.95625   1.96178   1.97011   1.97272   1.97688
 Alpha virt. eigenvalues --    1.98048   1.98373   1.99568   2.00399   2.00651
 Alpha virt. eigenvalues --    2.01546   2.02174   2.02778   2.04004   2.04232
 Alpha virt. eigenvalues --    2.04696   2.05393   2.06088   2.06771   2.07270
 Alpha virt. eigenvalues --    2.07798   2.08320   2.09313   2.09544   2.09874
 Alpha virt. eigenvalues --    2.11329   2.11683   2.13601   2.13776   2.13976
 Alpha virt. eigenvalues --    2.15228   2.16353   2.16523   2.17319   2.17530
 Alpha virt. eigenvalues --    2.18495   2.18714   2.19435   2.19725   2.20219
 Alpha virt. eigenvalues --    2.21119   2.21438   2.21506   2.22476   2.24027
 Alpha virt. eigenvalues --    2.24418   2.25281   2.25935   2.26696   2.27120
 Alpha virt. eigenvalues --    2.27995   2.28670   2.29970   2.30194   2.31305
 Alpha virt. eigenvalues --    2.32518   2.32789   2.33163   2.33554   2.33815
 Alpha virt. eigenvalues --    2.34558   2.35827   2.37181   2.37670   2.37931
 Alpha virt. eigenvalues --    2.38927   2.39959   2.40799   2.41667   2.42247
 Alpha virt. eigenvalues --    2.42870   2.43333   2.43741   2.43943   2.45834
 Alpha virt. eigenvalues --    2.46115   2.46740   2.48415   2.49147   2.49690
 Alpha virt. eigenvalues --    2.50384   2.52670   2.53982   2.54353   2.55710
 Alpha virt. eigenvalues --    2.56453   2.56534   2.56963   2.59096   2.59516
 Alpha virt. eigenvalues --    2.59841   2.59951   2.62048   2.63006   2.63586
 Alpha virt. eigenvalues --    2.63916   2.64702   2.65179   2.66099   2.66995
 Alpha virt. eigenvalues --    2.68094   2.68414   2.68794   2.71048   2.71815
 Alpha virt. eigenvalues --    2.73493   2.74228   2.75931   2.76979   2.77524
 Alpha virt. eigenvalues --    2.79932   2.80961   2.81782   2.83698   2.84437
 Alpha virt. eigenvalues --    2.85880   2.86733   2.88511   2.90119   2.91653
 Alpha virt. eigenvalues --    2.92726   2.93901   2.96121   2.97174   3.02080
 Alpha virt. eigenvalues --    3.05422   3.06833   3.07255   3.11914   3.13993
 Alpha virt. eigenvalues --    3.18347   3.37956   3.63790   3.78189   3.81038
 Alpha virt. eigenvalues --    3.88865   3.93740   3.94612   3.98580   4.00010
 Alpha virt. eigenvalues --    4.01230   4.01671   4.03326   4.04868   4.05974
 Alpha virt. eigenvalues --    4.06342   4.09320   4.10276   4.11508   4.15084
 Alpha virt. eigenvalues --    4.16486   4.18257   4.18301   4.20360   4.20811
 Alpha virt. eigenvalues --    4.22399   4.26127   4.29671   4.30788   4.31886
 Alpha virt. eigenvalues --    4.33251   4.34337   4.36020   4.37820   4.38883
 Alpha virt. eigenvalues --    4.40478   4.47535   4.49682   4.52340   4.54709
 Alpha virt. eigenvalues --    4.54823   4.58052   4.60765   4.61148   4.73610
          Condensed to atoms (all electrons):
 Mulliken charges:
               1
     1  N   -0.753799
     2  H    0.414813
     3  H    0.433896
     4  H    0.415246
     5  C   -0.127060
     6  H    0.210419
     7  C    0.667313
     8  C   -0.296190
     9  H    0.152181
    10  H    0.216417
    11  O   -0.534325
    12  C   -0.120377
    13  H    0.169023
    14  C   -0.467053
    15  H    0.159662
    16  H    0.122381
    17  H    0.183418
    18  C   -0.462455
    19  H    0.148879
    20  H    0.177743
    21  H    0.167014
    22  N   -0.599232
    23  H    0.365444
    24  C   -0.057606
    25  H    0.191981
    26  C    0.662620
    27  C   -0.379706
    28  H    0.165878
    29  H    0.168172
    30  O   -0.577270
    31  C    0.040622
    32  C    0.014615
    33  H    0.167543
    34  C    0.086908
    35  C    0.314470
    36  C   -0.214705
    37  H    0.113912
    38  N   -0.688714
    39  H    0.337868
    40  C   -0.149553
    41  H    0.139294
    42  C   -0.157428
    43  H    0.136712
    44  C   -0.136661
    45  H    0.131980
    46  N   -0.577921
    47  H    0.370831
    48  C   -0.133176
    49  H    0.182999
    50  C    0.635351
    51  C    0.008356
    52  H    0.150042
    53  H    0.170400
    54  O   -0.523534
    55  O   -0.658508
    56  H    0.427612
    57  N   -0.578663
    58  H    0.333977
    59  C   -0.078647
    60  H    0.194272
    61  C    0.641616
    62  C   -0.468369
    63  H    0.175241
    64  H    0.161531
    65  H    0.178065
    66  O   -0.550748
    67  N   -0.615359
    68  H    0.354047
    69  C   -0.031739
    70  H    0.188249
    71  C    0.597525
    72  C   -0.268690
    73  H    0.156261
    74  H    0.170114
    75  O   -0.593690
    76  C   -0.296063
    77  H    0.146120
    78  H    0.146411
    79  C   -0.269642
    80  H    0.141010
    81  H    0.165180
    82  C   -0.146973
    83  H    0.155713
    84  H    0.144514
    85  N   -0.783124
    86  H    0.348583
    87  H    0.449822
    88  H    0.330972
    89  O   -0.504259
 Sum of Mulliken charges =   1.00000
 Mulliken charges with hydrogens summed into heavy atoms:
               1
     1  N    0.510157
     5  C    0.083360
     7  C    0.667313
     8  C    0.072408
    11  O   -0.534325
    12  C    0.048646
    14  C   -0.001592
    18  C    0.031181
    22  N   -0.233788
    24  C    0.134374
    26  C    0.662620
    27  C   -0.045656
    30  O   -0.577270
    31  C    0.040622
    32  C    0.182158
    34  C    0.086908
    35  C    0.314470
    36  C   -0.100793
    38  N   -0.350847
    40  C   -0.010259
    42  C   -0.020716
    44  C   -0.004681
    46  N   -0.207090
    48  C    0.049823
    50  C    0.635351
    51  C    0.328798
    54  O   -0.523534
    55  O   -0.230896
    57  N   -0.244687
    59  C    0.115625
    61  C    0.641616
    62  C    0.046468
    66  O   -0.550748
    67  N   -0.261312
    69  C    0.156509
    71  C    0.597525
    72  C    0.057685
    75  O   -0.143868
    76  C   -0.003532
    79  C    0.036548
    82  C    0.153255
    85  N   -0.103570
    89  O   -0.504259
 Electronic spatial extent (au):  <R**2>=          38819.3564
 Charge=              1.0000 electrons
 Dipole moment (field-independent basis, Debye):
    X=             -2.1142    Y=             -9.5051    Z=              5.7208  Tot=             11.2935
 Quadrupole moment (field-independent basis, Debye-Ang):
   XX=           -194.8469   YY=           -161.4038   ZZ=           -176.7973
   XY=            -16.0981   XZ=            -50.5986   YZ=            -24.3420
 Traceless Quadrupole moment (field-independent basis, Debye-Ang):
   XX=            -17.1642   YY=             16.2788   ZZ=              0.8854
   XY=            -16.0981   XZ=            -50.5986   YZ=            -24.3420
 Octapole moment (field-independent basis, Debye-Ang**2):
  XXX=           -612.9176  YYY=            347.5886  ZZZ=            729.9720  XYY=            -38.2890
  XXY=            -30.9958  XXZ=            100.8527  XZZ=           -279.6635  YZZ=             97.1457
  YYZ=            138.2775  XYZ=            222.7419
 Hexadecapole moment (field-independent basis, Debye-Ang**3):
 XXXX=         -24746.8901 YYYY=          -8273.5866 ZZZZ=         -11283.4906 XXXY=           4112.9484
 XXXZ=            812.3212 YYYX=           3605.4187 YYYZ=           -731.4372 ZZZX=           2073.5371
 ZZZY=          -1584.3367 XXYY=          -3653.6376 XXZZ=          -5606.5888 YYZZ=          -2663.2086
 XXYZ=            844.5895 YYXZ=           -564.6483 ZZXY=           1381.2837
 N-N= 5.407757387469D+03 E-N=-1.554475327420D+04  KE= 2.023566401734D+03
 Unable to Open any file for archive entry.
 1\1\GINC-QML-003\SP\RB3LYP\6-31G(d)\C29H46N7O7(1+)\KENGMITH\23-Jun-202
 2\0\\# B3LYP/6-31G* empiricaldispersion=gd3 guess=read geom=check nosy
 mm integral(ultrafinegrid)\\Candidate Structure: Conf:231 Charge calc 
 in gas phase\\1,1\N,0,-1.4647081374,-3.2222179131,3.1671043858\H,0,-2.
 1635562977,-3.9667716759,3.2425833895\H,0,-0.9657722401,-3.3183459604,
 2.2354871582\H,0,-0.8065930307,-3.3025402727,3.9473995662\C,0,-2.06927
 02156,-1.8317587241,3.054589448\H,0,-3.0963230284,-1.8761055779,3.4222
 589553\C,0,-2.0032210301,-1.571855002,1.5297040627\C,0,-1.202757083,-0
 .8514306933,3.868575356\H,0,-1.1770265467,-1.2199442632,4.9053324506\H
 ,0,-0.1866985095,-0.8729957501,3.4578072615\O,0,-1.2535424577,-2.29060
 54863,0.8560696027\C,0,-1.6790673249,0.6164655954,3.8890588097\H,0,-1.
 6459968802,1.0040957365,2.8645213076\C,0,-3.1028531022,0.7699177547,4.
 4448540197\H,0,-3.1727269501,0.3708247057,5.4646971941\H,0,-3.86669896
 87,0.2580817142,3.8417648136\H,0,-3.3859053748,1.8263763846,4.48362114
 75\C,0,-0.676911388,1.440940572,4.7119237772\H,0,-0.6546777288,1.10923
 42963,5.757758026\H,0,0.3326658695,1.3507330954,4.2982797969\H,0,-0.95
 75933725,2.4990489254,4.7036874247\N,0,-2.7469660907,-0.5749180418,1.0
 372418832\H,0,-3.2270702097,0.0339297063,1.6893049911\C,0,-2.455162443
 3,0.0042103631,-0.2908660442\H,0,-2.3625448163,-0.8235758307,-0.996981
 2442\C,0,-1.1243157486,0.7591694798,-0.1286816783\C,0,-3.5725010643,0.
 959590925,-0.7281975414\H,0,-4.5262199694,0.4163509663,-0.7131180859\H
 ,0,-3.6330361115,1.7757666203,0.001146921\O,0,-1.0772853072,1.76812463
 81,0.5911722505\C,0,-3.2766762365,1.5019589868,-2.0922767141\C,0,-2.80
 47543656,2.7556318758,-2.396144064\H,0,-2.606574231,3.5907002028,-1.73
 84673599\C,0,-3.3350598652,0.7676373916,-3.3308129162\C,0,-2.890512425
 7,1.6460861784,-4.355635486\C,0,-3.7178400037,-0.5410218084,-3.6724952
 356\H,0,-4.0724493364,-1.2309512935,-2.9098227492\N,0,-2.5733320502,2.
 8482437353,-3.7521195528\H,0,-2.26450565,3.6783726874,-4.2339122329\C,
 0,-3.207399641,-0.0454528892,-6.0034630781\H,0,-3.1676236939,-0.382003
 373,-7.0352445379\C,0,-2.8239958537,1.2550753994,-5.6963468322\H,0,-2.
 4855857662,1.9401809471,-6.4686583233\C,0,-3.6501197195,-0.9355429934,
 -5.0025320936\H,0,-3.945460114,-1.9428624508,-5.2815638737\N,0,-0.0576
 612175,0.2022945409,-0.7153615927\H,0,-0.1308389207,-0.6434421836,-1.2
 730873101\C,0,1.2943610304,0.6866675231,-0.508319361\H,0,1.2748431443,
 1.782428647,-0.5253904548\C,0,2.1599119417,0.122586032,-1.6412909699\C
 ,0,1.8669584623,0.198055431,0.8499305547\H,0,2.8368084582,0.6831820378
 ,1.024201175\H,0,2.0522709556,-0.878325649,0.7978052725\O,0,1.80878727
 47,-0.8787852957,-2.2546961984\O,0,0.9669486343,0.4234218369,1.9284496
 891\H,0,0.4665705518,1.2399411097,1.7426992833\N,0,3.3264979017,0.7868
 462398,-1.8754066654\H,0,3.6106094464,1.450134501,-1.1637415292\C,0,4.
 4236361217,0.0697897335,-2.5109490725\H,0,4.0209254202,-0.4056073265,-
 3.4100687966\C,0,4.9197071575,-1.0388430679,-1.5459324068\C,0,5.549073
 8192,1.0416423229,-2.8819655245\H,0,6.3634325387,0.5187897767,-3.39097
 00997\H,0,5.9682083761,1.5123983529,-1.9844053158\H,0,5.1722471746,1.8
 254081595,-3.5455844919\O,0,4.56857047,-1.0728113609,-0.366646237\N,0,
 5.7653268616,-1.9326013421,-2.0978316541\H,0,6.0508746789,-1.871168152
 5,-3.0690111527\C,0,6.3803200972,-3.0087508274,-1.3375641777\H,0,6.754
 1442071,-2.6114885238,-0.388984765\C,0,7.5163184294,-3.5632607739,-2.1
 834233344\C,0,5.3804669209,-4.1696002262,-1.038122428\H,0,5.7231221521
 ,-4.6836950776,-0.1342254791\H,0,4.4315625677,-3.6879283635,-0.7864139
 704\O,0,8.2239432923,-4.4878660191,-1.5508951542\C,0,5.2025592943,-5.1
 988495075,-2.1874629817\H,0,4.1385687203,-5.4389238253,-2.2863806507\H
 ,0,5.4745397591,-4.729779971,-3.1419648315\C,0,5.9976196176,-6.5223513
 031,-1.9817999603\H,0,5.2992148527,-7.3105042956,-1.6730301147\H,0,6.7
 087893023,-6.4061375049,-1.1583220208\C,0,6.775329402,-7.0588586613,-3
 .1934446114\H,0,7.1339908709,-8.0642076695,-2.9481249607\H,0,6.1060108
 41,-7.1618307785,-4.0607728716\N,0,7.9715993169,-6.241226582,-3.527610
 3922\H,0,7.7248585371,-5.4693098874,-4.1466236254\H,0,8.4720890556,-5.
 191805872,-2.2533605417\H,0,8.6533218861,-6.8049826864,-4.0309992749\O
 ,0,7.6325665567,-3.2827054442,-3.369266041\\Version=ES64L-G16RevC.01\H
 F=-2042.6063398\RMSD=6.758e-09\Dipole=-3.0530277,-1.8359814,3.9875413\
 Quadrupole=-12.7611932,12.102921,0.6582722,-11.9685224,-37.6188265,-18
 .0977071\PG=C01 [X(C29H46N7O7)]\\@
 The archive entry for this job was punched.


 A MAN THINKING OR WORKING IS ALWAYS ALONE, 
 LET HIM BE WHERE HE WILL.

                                    -- THOREAU
 Job cpu time:       0 days  0 hours  3 minutes 23.6 seconds.
 Elapsed time:       0 days  0 hours  0 minutes 51.7 seconds.
 File lengths (MBytes):  RWF=    400 Int=      0 D2E=      0 Chk=     64 Scr=     16
 Normal termination of Gaussian 16 at Thu Jun 23 19:25:34 2022.
