 Entering Gaussian System, Link 0=/opt/software/Gaussian/g16-AVX2-C.01/g16/g16
 Input=charge-conf-549.com
 Output=charge-conf-549.log
 Initial command:
 /opt/software/Gaussian/g16-AVX2-C.01/g16/l1.exe "/mnt/gs18/scratch/users/kengmith/Gau-114425.inp" -scrdir="/mnt/gs18/scratch/users/kengmith/"
 Entering Link 1 = /opt/software/Gaussian/g16-AVX2-C.01/g16/l1.exe PID=    114435.
  
 Copyright (c) 1988-2019, Gaussian, Inc.  All Rights Reserved.
  
 This is part of the Gaussian(R) 16 program.  It is based on
 the Gaussian(R) 09 system (copyright 2009, Gaussian, Inc.),
 the Gaussian(R) 03 system (copyright 2003, Gaussian, Inc.),
 the Gaussian(R) 98 system (copyright 1998, Gaussian, Inc.),
 the Gaussian(R) 94 system (copyright 1995, Gaussian, Inc.),
 the Gaussian 92(TM) system (copyright 1992, Gaussian, Inc.),
 the Gaussian 90(TM) system (copyright 1990, Gaussian, Inc.),
 the Gaussian 88(TM) system (copyright 1988, Gaussian, Inc.),
 the Gaussian 86(TM) system (copyright 1986, Carnegie Mellon
 University), and the Gaussian 82(TM) system (copyright 1983,
 Carnegie Mellon University). Gaussian is a federally registered
 trademark of Gaussian, Inc.
  
 This software contains proprietary and confidential information,
 including trade secrets, belonging to Gaussian, Inc.
  
 This software is provided under written license and may be
 used, copied, transmitted, or stored only in accord with that
 written license.
  
 The following legend is applicable only to US Government
 contracts under FAR:
  
                    RESTRICTED RIGHTS LEGEND
  
 Use, reproduction and disclosure by the US Government is
 subject to restrictions as set forth in subparagraphs (a)
 and (c) of the Commercial Computer Software - Restricted
 Rights clause in FAR 52.227-19.
  
 Gaussian, Inc.
 340 Quinnipiac St., Bldg. 40, Wallingford CT 06492
  
  
 ---------------------------------------------------------------
 Warning -- This program may not be used in any manner that
 competes with the business of Gaussian, Inc. or will provide
 assistance to any competitor of Gaussian, Inc.  The licensee
 of this program is prohibited from giving any competitor of
 Gaussian, Inc. access to this program.  By using this program,
 the user acknowledges that Gaussian, Inc. is engaged in the
 business of creating and licensing software in the field of
 computational chemistry and represents and warrants to the
 licensee that it is not a competitor of Gaussian, Inc. and that
 it will not use this program in any manner prohibited above.
 ---------------------------------------------------------------
  

 Cite this work as:
 Gaussian 16, Revision C.01,
 M. J. Frisch, G. W. Trucks, H. B. Schlegel, G. E. Scuseria, 
 M. A. Robb, J. R. Cheeseman, G. Scalmani, V. Barone, 
 G. A. Petersson, H. Nakatsuji, X. Li, M. Caricato, A. V. Marenich, 
 J. Bloino, B. G. Janesko, R. Gomperts, B. Mennucci, H. P. Hratchian, 
 J. V. Ortiz, A. F. Izmaylov, J. L. Sonnenberg, D. Williams-Young, 
 F. Ding, F. Lipparini, F. Egidi, J. Goings, B. Peng, A. Petrone, 
 T. Henderson, D. Ranasinghe, V. G. Zakrzewski, J. Gao, N. Rega, 
 G. Zheng, W. Liang, M. Hada, M. Ehara, K. Toyota, R. Fukuda, 
 J. Hasegawa, M. Ishida, T. Nakajima, Y. Honda, O. Kitao, H. Nakai, 
 T. Vreven, K. Throssell, J. A. Montgomery, Jr., J. E. Peralta, 
 F. Ogliaro, M. J. Bearpark, J. J. Heyd, E. N. Brothers, K. N. Kudin, 
 V. N. Staroverov, T. A. Keith, R. Kobayashi, J. Normand, 
 K. Raghavachari, A. P. Rendell, J. C. Burant, S. S. Iyengar, 
 J. Tomasi, M. Cossi, J. M. Millam, M. Klene, C. Adamo, R. Cammi, 
 J. W. Ochterski, R. L. Martin, K. Morokuma, O. Farkas, 
 J. B. Foresman, and D. J. Fox, Gaussian, Inc., Wallingford CT, 2019.
 
 ******************************************
 Gaussian 16:  ES64L-G16RevC.01  3-Jul-2019
                15-May-2022 
 ******************************************
 %mem=8gb
 %nproc=4
 Will use up to    4 processors via shared memory.
 %chk=conf-549.chk
 ----------------------------------------------------------------------
 # B3LYP/6-31G* empiricaldispersion=gd3 guess=read geom=check nosymm in
 tegral(ultrafinegrid)
 ----------------------------------------------------------------------
 1/29=2,38=1,172=1/1;
 2/12=2,15=1,40=1/2;
 3/5=1,6=6,7=1,11=2,14=-4,25=1,30=1,74=-5,75=-5,116=-2,124=31/1,2,3;
 4/5=1/1;
 5/5=2,38=6/2;
 6/7=2,8=2,9=2,10=2,28=1/1;
 99/5=1,9=1/99;
 ------------------------------------------------------
 Candidate Structure: Conf:549 Charge calc in gas phase
 ------------------------------------------------------
 Structure from the checkpoint file:  "conf-549.chk"
 Charge =  1 Multiplicity = 1
 Redundant internal coordinates found in file.  (old form).
 N,0,-3.1416998459,1.0750173833,-5.4139224668
 H,0,-3.5275676058,1.9185869684,-5.8361012742
 H,0,-2.4670403712,1.3772064732,-4.7137102659
 C,0,-4.233029277,0.3173513487,-4.7791995268
 H,0,-4.7574578793,0.8927349549,-3.9909385283
 C,0,-3.6169047138,-0.9299218732,-4.122316063
 C,0,-5.2695164307,-0.0994834969,-5.8363448081
 H,0,-4.7552429584,-0.7145381569,-6.5798601315
 H,0,-6.013042202,-0.7410937109,-5.3511844321
 O,0,-3.7295620925,-2.0627458321,-4.5745889916
 C,0,-5.9382819795,1.0943473814,-6.479099777
 C,0,-7.0439606486,1.7078948196,-5.8728273564
 H,0,-7.4454069284,1.2893838983,-4.9520010825
 C,0,-5.4415239241,1.6442122448,-7.6697649036
 H,0,-4.5856463491,1.1767466976,-8.1504613483
 C,0,-7.6380792108,2.8365480356,-6.4378919795
 H,0,-8.4990774385,3.2929103945,-5.9561292879
 C,0,-6.0321686173,2.7750084573,-8.2381890803
 H,0,-5.6355530684,3.1828646273,-9.1644520286
 C,0,-7.1327412426,3.3748437397,-7.6238824827
 H,0,-7.5972384642,4.2512033942,-8.0679670096
 N,0,-2.9009465804,-0.6663651861,-2.9892069744
 H,0,-2.8898775532,0.2524782134,-2.5622097788
 C,0,-2.2359237431,-1.7112257804,-2.2434091195
 H,0,-2.8801328143,-2.596230442,-2.1921625244
 C,0,-1.9251413025,-1.1859322117,-0.8508361478
 C,0,-0.9084351198,-2.1388914606,-2.9450423205
 H,0,-0.2896454107,-1.2414404735,-3.0837533547
 H,0,-1.186252884,-2.5295240358,-3.9270211694
 O,0,-1.9177096855,0.0147399295,-0.5795564323
 O,0,-0.217452911,-3.1534293461,-2.2386806011
 H,0,0.3746086313,-2.7044248494,-1.6025362541
 N,0,-1.5890253765,-2.1492301707,0.0627824966
 H,0,-1.3200254568,-3.0486515352,-0.3315954578
 C,0,-0.8171990996,-1.7356929364,1.2141972009
 H,0,-1.3661600249,-0.9442165462,1.7350529736
 C,0,0.54152625,-1.1607258185,0.7528866382
 C,0,-0.6271275511,-2.9179176776,2.1643418803
 H,0,-1.6191698329,-3.262370417,2.4893608876
 H,0,-0.0664741185,-2.5866073248,3.0527392782
 O,0,1.0424517521,-1.4209497261,-0.3423297682
 O,0,0.0747557833,-3.9211016671,1.4443784816
 H,0,-0.0094805345,-4.7636664714,1.914323766
 N,0,1.1575389463,-0.3383932573,1.633824229
 H,0,0.7128619849,-0.0388788645,2.4941303626
 C,0,2.3875764654,0.3426418295,1.2852627539
 H,0,3.085708835,-0.3816478105,0.8547414113
 C,0,2.9560584131,0.9470442973,2.5731472496
 C,0,2.1166541134,1.453073698,0.2344582311
 H,0,1.3947752517,1.0691293711,-0.4920840531
 H,0,1.6644174673,2.3336617918,0.704980678
 O,0,2.2554064683,1.1497756637,3.5596097742
 C,0,3.3383851552,1.9039682555,-0.5292476308
 O,0,4.4994826742,1.6179364699,-0.276545582
 O,0,3.0042296366,2.6762299542,-1.5718952718
 N,0,4.2816782926,1.2775591549,2.5177270598
 H,0,4.6698098887,1.3167251763,1.5721585923
 C,0,4.7759883132,2.2516528633,3.4658981277
 H,0,4.4628164591,1.9485590171,4.4695701635
 C,0,4.1318956549,3.6193482905,3.1829728608
 C,0,6.3148666897,2.3053335486,3.3838049567
 H,0,6.6096723817,2.7175334381,2.4091718301
 H,0,6.6643820493,1.2654144182,3.4021676542
 O,0,3.5778597157,3.924186118,2.1541669305
 C,0,6.9834747731,3.097887304,4.5141948495
 H,0,6.635040525,2.7173859385,5.4851208668
 H,0,6.6818493999,4.1489644228,4.4802572711
 C,0,8.5107362262,2.9985769527,4.4210676841
 H,0,8.8563352964,1.9603894755,4.4756243863
 H,0,8.8641305019,3.3920049498,3.4637997279
 N,0,9.2120493401,3.7651238626,5.4693599724
 H,0,9.3818211344,4.7464062529,5.2865779218
 N,0,9.0488356419,2.1438150267,7.1308539421
 H,0,9.4551782345,1.6856352349,7.9347000401
 H,0,8.2640736159,1.6904495896,6.6858903188
 N,0,10.3347680925,4.0353724835,7.4795258729
 H,0,10.9102905216,4.7786707501,7.1084757021
 H,0,10.4008116188,3.8512538564,8.4710288191
 C,0,9.5219901118,3.3166562467,6.6869736377
 O,0,4.2744041153,4.4645256199,4.2324929936
 H,0,3.8191640889,5.2946052627,3.9903611037
 H,0,3.8308750268,2.9331900319,-2.0232565033
 Recover connectivity data from disk.
                           ----------------------------
                           !    Current Parameters    !
                           ! (Angstroms and Degrees)  !
 --------------------------                            --------------------------
 ! Name  Definition              Value                                          !
 --------------------------------------------------------------------------------
 ! R1    R(1,2)                  1.0192                                         !
 ! R2    R(1,3)                  1.0182                                         !
 ! R3    R(1,4)                  1.4724                                         !
 ! R4    R(4,5)                  1.1079                                         !
 ! R5    R(4,6)                  1.5384                                         !
 ! R6    R(4,7)                  1.5381                                         !
 ! R7    R(6,10)                 1.225                                          !
 ! R8    R(6,22)                 1.366                                          !
 ! R9    R(7,8)                  1.0934                                         !
 ! R10   R(7,9)                  1.0954                                         !
 ! R11   R(7,11)                 1.5118                                         !
 ! R12   R(11,12)                1.4023                                         !
 ! R13   R(11,14)                1.4024                                         !
 ! R14   R(12,13)                1.0882                                         !
 ! R15   R(12,16)                1.395                                          !
 ! R16   R(14,15)                1.0873                                         !
 ! R17   R(14,18)                1.3967                                         !
 ! R18   R(16,17)                1.0871                                         !
 ! R19   R(16,20)                1.397                                          !
 ! R20   R(18,19)                1.087                                          !
 ! R21   R(18,20)                1.3959                                         !
 ! R22   R(20,21)                1.0867                                         !
 ! R23   R(22,23)                1.0133                                         !
 ! R24   R(22,24)                1.4458                                         !
 ! R25   R(24,25)                1.0958                                         !
 ! R26   R(24,26)                1.5205                                         !
 ! R27   R(24,27)                1.5612                                         !
 ! R28   R(26,30)                1.231                                          !
 ! R29   R(26,33)                1.3695                                         !
 ! R30   R(27,28)                1.0989                                         !
 ! R31   R(27,29)                1.0927                                         !
 ! R32   R(27,31)                1.4162                                         !
 ! R33   R(31,32)                0.9782                                         !
 ! R34   R(33,34)                1.0183                                         !
 ! R35   R(33,35)                1.4465                                         !
 ! R36   R(35,36)                1.095                                          !
 ! R37   R(35,37)                1.5458                                         !
 ! R38   R(35,38)                1.5286                                         !
 ! R39   R(37,41)                1.2321                                         !
 ! R40   R(37,44)                1.3534                                         !
 ! R41   R(38,39)                1.0993                                         !
 ! R42   R(38,40)                1.1015                                         !
 ! R43   R(38,42)                1.4203                                         !
 ! R44   R(42,43)                0.9684                                         !
 ! R45   R(44,45)                1.0137                                         !
 ! R46   R(44,46)                1.4485                                         !
 ! R47   R(46,47)                1.0942                                         !
 ! R48   R(46,48)                1.532                                          !
 ! R49   R(46,49)                1.5526                                         !
 ! R50   R(48,52)                1.2268                                         !
 ! R51   R(48,56)                1.3673                                         !
 ! R52   R(49,50)                1.0938                                         !
 ! R53   R(49,51)                1.0961                                         !
 ! R54   R(49,53)                1.5097                                         !
 ! R55   R(53,54)                1.2222                                         !
 ! R56   R(53,55)                1.3398                                         !
 ! R57   R(55,82)                0.9763                                         !
 ! R58   R(56,57)                1.0229                                         !
 ! R59   R(56,58)                1.4465                                         !
 ! R60   R(58,59)                1.0942                                         !
 ! R61   R(58,60)                1.538                                          !
 ! R62   R(58,61)                1.542                                          !
 ! R63   R(60,64)                1.2076                                         !
 ! R64   R(60,80)                1.355                                          !
 ! R65   R(61,62)                1.0985                                         !
 ! R66   R(61,63)                1.0972                                         !
 ! R67   R(61,65)                1.5339                                         !
 ! R68   R(65,66)                1.0995                                         !
 ! R69   R(65,67)                1.094                                          !
 ! R70   R(65,68)                1.5333                                         !
 ! R71   R(68,69)                1.0956                                         !
 ! R72   R(68,70)                1.0936                                         !
 ! R73   R(68,71)                1.4759                                         !
 ! R74   R(71,72)                1.0125                                         !
 ! R75   R(71,79)                1.3341                                         !
 ! R76   R(73,74)                1.0106                                         !
 ! R77   R(73,75)                1.0096                                         !
 ! R78   R(73,79)                1.3403                                         !
 ! R79   R(76,77)                1.0106                                         !
 ! R80   R(76,78)                1.0106                                         !
 ! R81   R(76,79)                1.3436                                         !
 ! R82   R(80,81)                0.9772                                         !
 ! A1    A(2,1,3)              106.8624                                         !
 ! A2    A(2,1,4)              108.8967                                         !
 ! A3    A(3,1,4)              110.3269                                         !
 ! A4    A(1,4,5)              112.974                                          !
 ! A5    A(1,4,6)              107.7231                                         !
 ! A6    A(1,4,7)              110.0386                                         !
 ! A7    A(5,4,6)              107.8685                                         !
 ! A8    A(5,4,7)              108.1066                                         !
 ! A9    A(6,4,7)              110.0987                                         !
 ! A10   A(4,6,10)             123.7299                                         !
 ! A11   A(4,6,22)             114.058                                          !
 ! A12   A(10,6,22)            122.201                                          !
 ! A13   A(4,7,8)              107.6297                                         !
 ! A14   A(4,7,9)              108.1643                                         !
 ! A15   A(4,7,11)             112.1053                                         !
 ! A16   A(8,7,9)              106.9146                                         !
 ! A17   A(8,7,11)             111.2934                                         !
 ! A18   A(9,7,11)             110.5227                                         !
 ! A19   A(7,11,12)            120.6948                                         !
 ! A20   A(7,11,14)            120.9225                                         !
 ! A21   A(12,11,14)           118.3457                                         !
 ! A22   A(11,12,13)           119.2373                                         !
 ! A23   A(11,12,16)           120.9737                                         !
 ! A24   A(13,12,16)           119.7874                                         !
 ! A25   A(11,14,15)           119.0531                                         !
 ! A26   A(11,14,18)           120.8761                                         !
 ! A27   A(15,14,18)           120.0708                                         !
 ! A28   A(12,16,17)           119.8319                                         !
 ! A29   A(12,16,20)           120.1026                                         !
 ! A30   A(17,16,20)           120.0645                                         !
 ! A31   A(14,18,19)           119.7542                                         !
 ! A32   A(14,18,20)           120.1486                                         !
 ! A33   A(19,18,20)           120.096                                          !
 ! A34   A(16,20,18)           119.5532                                         !
 ! A35   A(16,20,21)           120.2005                                         !
 ! A36   A(18,20,21)           120.2454                                         !
 ! A37   A(6,22,23)            122.0216                                         !
 ! A38   A(6,22,24)            121.9751                                         !
 ! A39   A(23,22,24)           115.655                                          !
 ! A40   A(22,24,25)           109.7172                                         !
 ! A41   A(22,24,26)           108.4697                                         !
 ! A42   A(22,24,27)           110.932                                          !
 ! A43   A(25,24,26)           110.8759                                         !
 ! A44   A(25,24,27)           107.4364                                         !
 ! A45   A(26,24,27)           109.4177                                         !
 ! A46   A(24,26,30)           122.688                                          !
 ! A47   A(24,26,33)           114.7181                                         !
 ! A48   A(30,26,33)           122.5186                                         !
 ! A49   A(24,27,28)           108.1686                                         !
 ! A50   A(24,27,29)           106.5953                                         !
 ! A51   A(24,27,31)           112.7644                                         !
 ! A52   A(28,27,29)           108.7647                                         !
 ! A53   A(28,27,31)           111.9172                                         !
 ! A54   A(29,27,31)           108.4314                                         !
 ! A55   A(27,31,32)           106.9089                                         !
 ! A56   A(26,33,34)           115.3249                                         !
 ! A57   A(26,33,35)           117.4431                                         !
 ! A58   A(34,33,35)           114.8249                                         !
 ! A59   A(33,35,36)           108.5272                                         !
 ! A60   A(33,35,37)           109.7419                                         !
 ! A61   A(33,35,38)           109.8776                                         !
 ! A62   A(36,35,37)           108.2855                                         !
 ! A63   A(36,35,38)           109.0076                                         !
 ! A64   A(37,35,38)           111.3383                                         !
 ! A65   A(35,37,41)           122.9604                                         !
 ! A66   A(35,37,44)           115.583                                          !
 ! A67   A(41,37,44)           121.4564                                         !
 ! A68   A(35,38,39)           108.295                                          !
 ! A69   A(35,38,40)           109.3894                                         !
 ! A70   A(35,38,42)           107.0154                                         !
 ! A71   A(39,38,40)           108.3676                                         !
 ! A72   A(39,38,42)           111.9942                                         !
 ! A73   A(40,38,42)           111.6994                                         !
 ! A74   A(38,42,43)           108.9983                                         !
 ! A75   A(37,44,45)           122.1589                                         !
 ! A76   A(37,44,46)           121.0328                                         !
 ! A77   A(45,44,46)           115.9636                                         !
 ! A78   A(44,46,47)           108.9804                                         !
 ! A79   A(44,46,48)           107.3548                                         !
 ! A80   A(44,46,49)           110.5444                                         !
 ! A81   A(47,46,48)           110.8019                                         !
 ! A82   A(47,46,49)           108.5691                                         !
 ! A83   A(48,46,49)           110.5811                                         !
 ! A84   A(46,48,52)           121.952                                          !
 ! A85   A(46,48,56)           114.9                                            !
 ! A86   A(52,48,56)           123.1158                                         !
 ! A87   A(46,49,50)           108.2802                                         !
 ! A88   A(46,49,51)           110.8582                                         !
 ! A89   A(46,49,53)           114.5043                                         !
 ! A90   A(50,49,51)           107.1489                                         !
 ! A91   A(50,49,53)           107.6325                                         !
 ! A92   A(51,49,53)           108.1262                                         !
 ! A93   A(49,53,54)           126.4627                                         !
 ! A94   A(49,53,55)           111.3448                                         !
 ! A95   A(54,53,55)           122.189                                          !
 ! A96   A(53,55,82)           107.4765                                         !
 ! A97   A(48,56,57)           114.4942                                         !
 ! A98   A(48,56,58)           117.8742                                         !
 ! A99   A(57,56,58)           116.7765                                         !
 ! A100  A(56,58,59)           108.4771                                         !
 ! A101  A(56,58,60)           109.5823                                         !
 ! A102  A(56,58,61)           109.2441                                         !
 ! A103  A(59,58,60)           107.1694                                         !
 ! A104  A(59,58,61)           110.1271                                         !
 ! A105  A(60,58,61)           112.1593                                         !
 ! A106  A(58,60,64)           124.9824                                         !
 ! A107  A(58,60,80)           111.6007                                         !
 ! A108  A(64,60,80)           123.4118                                         !
 ! A109  A(58,61,62)           109.1548                                         !
 ! A110  A(58,61,63)           106.4998                                         !
 ! A111  A(58,61,65)           114.4406                                         !
 ! A112  A(62,61,63)           106.5585                                         !
 ! A113  A(62,61,65)           110.0577                                         !
 ! A114  A(63,61,65)           109.7862                                         !
 ! A115  A(61,65,66)           109.5003                                         !
 ! A116  A(61,65,67)           110.6932                                         !
 ! A117  A(61,65,68)           110.8507                                         !
 ! A118  A(66,65,67)           105.8135                                         !
 ! A119  A(66,65,68)           110.2961                                         !
 ! A120  A(67,65,68)           109.5698                                         !
 ! A121  A(65,68,69)           111.8736                                         !
 ! A122  A(65,68,70)           110.5928                                         !
 ! A123  A(65,68,71)           113.3605                                         !
 ! A124  A(69,68,70)           106.413                                          !
 ! A125  A(69,68,71)           107.8729                                         !
 ! A126  A(70,68,71)           106.3387                                         !
 ! A127  A(68,71,72)           117.0527                                         !
 ! A128  A(68,71,79)           125.7364                                         !
 ! A129  A(72,71,79)           116.847                                          !
 ! A130  A(74,73,75)           117.3558                                         !
 ! A131  A(74,73,79)           121.2135                                         !
 ! A132  A(75,73,79)           121.4234                                         !
 ! A133  A(77,76,78)           117.1923                                         !
 ! A134  A(77,76,79)           121.4213                                         !
 ! A135  A(78,76,79)           121.3853                                         !
 ! A136  A(71,79,73)           120.9577                                         !
 ! A137  A(71,79,76)           119.9398                                         !
 ! A138  A(73,79,76)           119.0957                                         !
 ! A139  A(60,80,81)           106.7933                                         !
 ! D1    D(2,1,4,5)            -59.6023                                         !
 ! D2    D(2,1,4,6)           -178.6381                                         !
 ! D3    D(2,1,4,7)             61.3241                                         !
 ! D4    D(3,1,4,5)             57.3834                                         !
 ! D5    D(3,1,4,6)            -61.6525                                         !
 ! D6    D(3,1,4,7)            178.3097                                         !
 ! D7    D(1,4,6,10)          -105.811                                          !
 ! D8    D(1,4,6,22)            73.0019                                         !
 ! D9    D(5,4,6,10)           131.9429                                         !
 ! D10   D(5,4,6,22)           -49.2442                                         !
 ! D11   D(7,4,6,10)            14.1887                                         !
 ! D12   D(7,4,6,22)          -166.9983                                         !
 ! D13   D(1,4,7,8)             59.3779                                         !
 ! D14   D(1,4,7,9)            174.564                                          !
 ! D15   D(1,4,7,11)           -63.3292                                         !
 ! D16   D(5,4,7,8)           -176.8171                                         !
 ! D17   D(5,4,7,9)            -61.6309                                         !
 ! D18   D(5,4,7,11)            60.4758                                         !
 ! D19   D(6,4,7,8)            -59.2103                                         !
 ! D20   D(6,4,7,9)             55.9759                                         !
 ! D21   D(6,4,7,11)           178.0826                                         !
 ! D22   D(4,6,22,23)            7.7999                                         !
 ! D23   D(4,6,22,24)         -179.2732                                         !
 ! D24   D(10,6,22,23)        -173.3667                                         !
 ! D25   D(10,6,22,24)          -0.4399                                         !
 ! D26   D(4,7,11,12)          -84.4911                                         !
 ! D27   D(4,7,11,14)           93.2603                                         !
 ! D28   D(8,7,11,12)          154.9019                                         !
 ! D29   D(8,7,11,14)          -27.3467                                         !
 ! D30   D(9,7,11,12)           36.2608                                         !
 ! D31   D(9,7,11,14)         -145.9878                                         !
 ! D32   D(7,11,12,13)          -2.5937                                         !
 ! D33   D(7,11,12,16)         177.8609                                         !
 ! D34   D(14,11,12,13)        179.5981                                         !
 ! D35   D(14,11,12,16)          0.0526                                         !
 ! D36   D(7,11,14,15)           2.2952                                         !
 ! D37   D(7,11,14,18)        -177.7781                                         !
 ! D38   D(12,11,14,15)       -179.9017                                         !
 ! D39   D(12,11,14,18)          0.0249                                         !
 ! D40   D(11,12,16,17)        179.545                                          !
 ! D41   D(11,12,16,20)         -0.0984                                         !
 ! D42   D(13,12,16,17)          0.0021                                         !
 ! D43   D(13,12,16,20)       -179.6414                                         !
 ! D44   D(11,14,18,19)       -179.6712                                         !
 ! D45   D(11,14,18,20)         -0.057                                          !
 ! D46   D(15,14,18,19)          0.2547                                         !
 ! D47   D(15,14,18,20)        179.869                                          !
 ! D48   D(12,16,20,18)          0.0654                                         !
 ! D49   D(12,16,20,21)        179.7091                                         !
 ! D50   D(17,16,20,18)       -179.5772                                         !
 ! D51   D(17,16,20,21)          0.0665                                         !
 ! D52   D(14,18,20,16)          0.0113                                         !
 ! D53   D(14,18,20,21)       -179.6322                                         !
 ! D54   D(19,18,20,16)        179.6242                                         !
 ! D55   D(19,18,20,21)         -0.0193                                         !
 ! D56   D(6,22,24,25)         -40.8761                                         !
 ! D57   D(6,22,24,26)        -162.128                                          !
 ! D58   D(6,22,24,27)          77.6713                                         !
 ! D59   D(23,22,24,25)        132.473                                          !
 ! D60   D(23,22,24,26)         11.2212                                         !
 ! D61   D(23,22,24,27)       -108.9796                                         !
 ! D62   D(22,24,26,30)        -17.9168                                         !
 ! D63   D(22,24,26,33)        165.1694                                         !
 ! D64   D(25,24,26,30)       -138.4524                                         !
 ! D65   D(25,24,26,33)         44.6338                                         !
 ! D66   D(27,24,26,30)        103.2222                                         !
 ! D67   D(27,24,26,33)        -73.6916                                         !
 ! D68   D(22,24,27,28)         55.1016                                         !
 ! D69   D(22,24,27,29)        -61.7115                                         !
 ! D70   D(22,24,27,31)        179.4173                                         !
 ! D71   D(25,24,27,28)        175.0189                                         !
 ! D72   D(25,24,27,29)         58.2058                                         !
 ! D73   D(25,24,27,31)        -60.6654                                         !
 ! D74   D(26,24,27,28)        -64.5337                                         !
 ! D75   D(26,24,27,29)        178.6532                                         !
 ! D76   D(26,24,27,31)         59.782                                          !
 ! D77   D(24,26,33,34)         17.1044                                         !
 ! D78   D(24,26,33,35)        157.3804                                         !
 ! D79   D(30,26,33,34)       -159.8152                                         !
 ! D80   D(30,26,33,35)        -19.5392                                         !
 ! D81   D(24,27,31,32)        -88.9675                                         !
 ! D82   D(28,27,31,32)         33.2637                                         !
 ! D83   D(29,27,31,32)        153.2359                                         !
 ! D84   D(26,33,35,36)         56.816                                          !
 ! D85   D(26,33,35,37)        -61.3374                                         !
 ! D86   D(26,33,35,38)        175.9217                                         !
 ! D87   D(34,33,35,36)       -162.7142                                         !
 ! D88   D(34,33,35,37)         79.1324                                         !
 ! D89   D(34,33,35,38)        -43.6086                                         !
 ! D90   D(33,35,37,41)        -21.5043                                         !
 ! D91   D(33,35,37,44)        158.3011                                         !
 ! D92   D(36,35,37,41)       -139.8075                                         !
 ! D93   D(36,35,37,44)         39.9979                                         !
 ! D94   D(38,35,37,41)        100.3679                                         !
 ! D95   D(38,35,37,44)        -79.8267                                         !
 ! D96   D(33,35,38,39)        -60.2931                                         !
 ! D97   D(33,35,38,40)       -178.2109                                         !
 ! D98   D(33,35,38,42)         60.6166                                         !
 ! D99   D(36,35,38,39)         58.5176                                         !
 ! D100  D(36,35,38,40)        -59.4003                                         !
 ! D101  D(36,35,38,42)        179.4273                                         !
 ! D102  D(37,35,38,39)        177.9134                                         !
 ! D103  D(37,35,38,40)         59.9955                                         !
 ! D104  D(37,35,38,42)        -61.1769                                         !
 ! D105  D(35,37,44,45)         -6.4177                                         !
 ! D106  D(35,37,44,46)       -175.4684                                         !
 ! D107  D(41,37,44,45)        173.3909                                         !
 ! D108  D(41,37,44,46)          4.3402                                         !
 ! D109  D(35,38,42,43)       -163.8478                                         !
 ! D110  D(39,38,42,43)        -45.3156                                         !
 ! D111  D(40,38,42,43)         76.4534                                         !
 ! D112  D(37,44,46,47)        -48.6282                                         !
 ! D113  D(37,44,46,48)       -168.6914                                         !
 ! D114  D(37,44,46,49)         70.6158                                         !
 ! D115  D(45,44,46,47)        141.6746                                         !
 ! D116  D(45,44,46,48)         21.6114                                         !
 ! D117  D(45,44,46,49)        -99.0814                                         !
 ! D118  D(44,46,48,52)        -20.4951                                         !
 ! D119  D(44,46,48,56)        161.5099                                         !
 ! D120  D(47,46,48,52)       -139.3925                                         !
 ! D121  D(47,46,48,56)         42.6125                                         !
 ! D122  D(49,46,48,52)        100.1745                                         !
 ! D123  D(49,46,48,56)        -77.8206                                         !
 ! D124  D(44,46,49,50)        -40.5414                                         !
 ! D125  D(44,46,49,51)         76.7278                                         !
 ! D126  D(44,46,49,53)       -160.6182                                         !
 ! D127  D(47,46,49,50)         78.951                                          !
 ! D128  D(47,46,49,51)       -163.7798                                         !
 ! D129  D(47,46,49,53)        -41.1258                                         !
 ! D130  D(48,46,49,50)       -159.2914                                         !
 ! D131  D(48,46,49,51)        -42.0222                                         !
 ! D132  D(48,46,49,53)         80.6318                                         !
 ! D133  D(46,48,56,57)         15.405                                          !
 ! D134  D(46,48,56,58)        158.6317                                         !
 ! D135  D(52,48,56,57)       -162.5639                                         !
 ! D136  D(52,48,56,58)        -19.3372                                         !
 ! D137  D(46,49,53,54)        -10.4938                                         !
 ! D138  D(46,49,53,55)        168.828                                          !
 ! D139  D(50,49,53,54)       -130.9305                                         !
 ! D140  D(50,49,53,55)         48.3913                                         !
 ! D141  D(51,49,53,54)        113.6277                                         !
 ! D142  D(51,49,53,55)        -67.0505                                         !
 ! D143  D(49,53,55,82)       -179.9331                                         !
 ! D144  D(54,53,55,82)         -0.5776                                         !
 ! D145  D(48,56,58,59)         50.8099                                         !
 ! D146  D(48,56,58,60)        -65.8836                                         !
 ! D147  D(48,56,58,61)        170.8715                                         !
 ! D148  D(57,56,58,59)       -166.7945                                         !
 ! D149  D(57,56,58,60)         76.512                                          !
 ! D150  D(57,56,58,61)        -46.7329                                         !
 ! D151  D(56,58,60,64)        -17.2039                                         !
 ! D152  D(56,58,60,80)        163.5909                                         !
 ! D153  D(59,58,60,64)       -134.7189                                         !
 ! D154  D(59,58,60,80)         46.0758                                         !
 ! D155  D(61,58,60,64)        104.3032                                         !
 ! D156  D(61,58,60,80)        -74.9021                                         !
 ! D157  D(56,58,61,62)         67.2193                                         !
 ! D158  D(56,58,61,63)        -47.4604                                         !
 ! D159  D(56,58,61,65)       -168.9551                                         !
 ! D160  D(59,58,61,62)       -173.7385                                         !
 ! D161  D(59,58,61,63)         71.5819                                         !
 ! D162  D(59,58,61,65)        -49.9128                                         !
 ! D163  D(60,58,61,62)        -54.4815                                         !
 ! D164  D(60,58,61,63)       -169.1612                                         !
 ! D165  D(60,58,61,65)         69.3441                                         !
 ! D166  D(58,60,80,81)       -178.2405                                         !
 ! D167  D(64,60,80,81)          2.5397                                         !
 ! D168  D(58,61,65,66)         53.2523                                         !
 ! D169  D(58,61,65,67)        -63.0297                                         !
 ! D170  D(58,61,65,68)        175.1662                                         !
 ! D171  D(62,61,65,66)        176.5935                                         !
 ! D172  D(62,61,65,67)         60.3115                                         !
 ! D173  D(62,61,65,68)        -61.4925                                         !
 ! D174  D(63,61,65,66)        -66.4199                                         !
 ! D175  D(63,61,65,67)        177.2981                                         !
 ! D176  D(63,61,65,68)         55.494                                          !
 ! D177  D(61,65,68,69)        -58.894                                          !
 ! D178  D(61,65,68,70)         59.5373                                         !
 ! D179  D(61,65,68,71)        178.854                                          !
 ! D180  D(66,65,68,69)         62.5532                                         !
 ! D181  D(66,65,68,70)       -179.0155                                         !
 ! D182  D(66,65,68,71)        -59.6989                                         !
 ! D183  D(67,65,68,69)        178.6463                                         !
 ! D184  D(67,65,68,70)        -62.9225                                         !
 ! D185  D(67,65,68,71)         56.3942                                         !
 ! D186  D(65,68,71,72)        -85.4307                                         !
 ! D187  D(65,68,71,79)         87.3971                                         !
 ! D188  D(69,68,71,72)        150.1193                                         !
 ! D189  D(69,68,71,79)        -37.0528                                         !
 ! D190  D(70,68,71,72)         36.2963                                         !
 ! D191  D(70,68,71,79)       -150.8759                                         !
 ! D192  D(68,71,79,73)         -9.0411                                         !
 ! D193  D(68,71,79,76)        170.0063                                         !
 ! D194  D(72,71,79,73)        163.8                                            !
 ! D195  D(72,71,79,76)        -17.1527                                         !
 ! D196  D(74,73,79,71)        164.075                                          !
 ! D197  D(74,73,79,76)        -14.9802                                         !
 ! D198  D(75,73,79,71)        -16.9313                                         !
 ! D199  D(75,73,79,76)        164.0134                                         !
 ! D200  D(77,76,79,71)        -16.1714                                         !
 ! D201  D(77,76,79,73)        162.8936                                         !
 ! D202  D(78,76,79,71)        164.2382                                         !
 ! D203  D(78,76,79,73)        -16.6967                                         !
 --------------------------------------------------------------------------------
 Symmetry turned off by external request.
 Stoichiometry    C25H39N8O10(1+)
 Framework group  C1[X(C25H39N8O10)]
 Deg. of freedom   240
 Full point group                 C1      NOp   1
                          Input orientation:                          
 ---------------------------------------------------------------------
 Center     Atomic      Atomic             Coordinates (Angstroms)
 Number     Number       Type             X           Y           Z
 ---------------------------------------------------------------------
      1          7           0       -3.141700    1.075017   -5.413922
      2          1           0       -3.527568    1.918587   -5.836101
      3          1           0       -2.467040    1.377206   -4.713710
      4          6           0       -4.233029    0.317351   -4.779200
      5          1           0       -4.757458    0.892735   -3.990939
      6          6           0       -3.616905   -0.929922   -4.122316
      7          6           0       -5.269516   -0.099483   -5.836345
      8          1           0       -4.755243   -0.714538   -6.579860
      9          1           0       -6.013042   -0.741094   -5.351184
     10          8           0       -3.729562   -2.062746   -4.574589
     11          6           0       -5.938282    1.094347   -6.479100
     12          6           0       -7.043961    1.707895   -5.872827
     13          1           0       -7.445407    1.289384   -4.952001
     14          6           0       -5.441524    1.644212   -7.669765
     15          1           0       -4.585646    1.176747   -8.150461
     16          6           0       -7.638079    2.836548   -6.437892
     17          1           0       -8.499077    3.292910   -5.956129
     18          6           0       -6.032169    2.775008   -8.238189
     19          1           0       -5.635553    3.182865   -9.164452
     20          6           0       -7.132741    3.374844   -7.623882
     21          1           0       -7.597238    4.251203   -8.067967
     22          7           0       -2.900947   -0.666365   -2.989207
     23          1           0       -2.889878    0.252478   -2.562210
     24          6           0       -2.235924   -1.711226   -2.243409
     25          1           0       -2.880133   -2.596230   -2.192163
     26          6           0       -1.925141   -1.185932   -0.850836
     27          6           0       -0.908435   -2.138891   -2.945042
     28          1           0       -0.289645   -1.241440   -3.083753
     29          1           0       -1.186253   -2.529524   -3.927021
     30          8           0       -1.917710    0.014740   -0.579556
     31          8           0       -0.217453   -3.153429   -2.238681
     32          1           0        0.374609   -2.704425   -1.602536
     33          7           0       -1.589025   -2.149230    0.062782
     34          1           0       -1.320025   -3.048652   -0.331595
     35          6           0       -0.817199   -1.735693    1.214197
     36          1           0       -1.366160   -0.944217    1.735053
     37          6           0        0.541526   -1.160726    0.752887
     38          6           0       -0.627128   -2.917918    2.164342
     39          1           0       -1.619170   -3.262370    2.489361
     40          1           0       -0.066474   -2.586607    3.052739
     41          8           0        1.042452   -1.420950   -0.342330
     42          8           0        0.074756   -3.921102    1.444378
     43          1           0       -0.009481   -4.763666    1.914324
     44          7           0        1.157539   -0.338393    1.633824
     45          1           0        0.712862   -0.038879    2.494130
     46          6           0        2.387576    0.342642    1.285263
     47          1           0        3.085709   -0.381648    0.854741
     48          6           0        2.956058    0.947044    2.573147
     49          6           0        2.116654    1.453074    0.234458
     50          1           0        1.394775    1.069129   -0.492084
     51          1           0        1.664417    2.333662    0.704981
     52          8           0        2.255406    1.149776    3.559610
     53          6           0        3.338385    1.903968   -0.529248
     54          8           0        4.499483    1.617936   -0.276546
     55          8           0        3.004230    2.676230   -1.571895
     56          7           0        4.281678    1.277559    2.517727
     57          1           0        4.669810    1.316725    1.572159
     58          6           0        4.775988    2.251653    3.465898
     59          1           0        4.462816    1.948559    4.469570
     60          6           0        4.131896    3.619348    3.182973
     61          6           0        6.314867    2.305334    3.383805
     62          1           0        6.609672    2.717533    2.409172
     63          1           0        6.664382    1.265414    3.402168
     64          8           0        3.577860    3.924186    2.154167
     65          6           0        6.983475    3.097887    4.514195
     66          1           0        6.635041    2.717386    5.485121
     67          1           0        6.681849    4.148964    4.480257
     68          6           0        8.510736    2.998577    4.421068
     69          1           0        8.856335    1.960389    4.475624
     70          1           0        8.864131    3.392005    3.463800
     71          7           0        9.212049    3.765124    5.469360
     72          1           0        9.381821    4.746406    5.286578
     73          7           0        9.048836    2.143815    7.130854
     74          1           0        9.455178    1.685635    7.934700
     75          1           0        8.264074    1.690450    6.685890
     76          7           0       10.334768    4.035372    7.479526
     77          1           0       10.910291    4.778671    7.108476
     78          1           0       10.400812    3.851254    8.471029
     79          6           0        9.521990    3.316656    6.686974
     80          8           0        4.274404    4.464526    4.232493
     81          1           0        3.819164    5.294605    3.990361
     82          1           0        3.830875    2.933190   -2.023257
 ---------------------------------------------------------------------
 Rotational constants (GHZ):           0.1401018           0.0199052           0.0183456
 Standard basis: 6-31G(d) (6D, 7F)
   723 basis functions,  1360 primitive gaussians,   723 cartesian basis functions
   162 alpha electrons      162 beta electrons
       nuclear repulsion energy      5010.7970087989 Hartrees.
 NAtoms=   82 NActive=   82 NUniq=   82 SFac= 1.00D+00 NAtFMM=   60 NAOKFM=T Big=T
 Integral buffers will be    131072 words long.
 Raffenetti 2 integral format.
 Two-electron integral symmetry is turned off.
 Nuclear repulsion after empirical dispersion term =     5010.6972807062 Hartrees.
 One-electron integrals computed using PRISM.
 NBasis=   723 RedAO= T EigKep=  4.67D-04  NBF=   723
 NBsUse=   723 1.00D-06 EigRej= -1.00D+00 NBFU=   723
 Initial guess from the checkpoint file:  "conf-549.chk"
 B after Tr=     0.000000    0.000000    0.000000
         Rot=    1.000000    0.000000    0.000000    0.000000 Ang=   0.00 deg.
 Requested convergence on RMS density matrix=1.00D-08 within 128 cycles.
 Requested convergence on MAX density matrix=1.00D-06.
 Requested convergence on             energy=1.00D-06.
 No special actions if energy rises.
 SCF Done:  E(RB3LYP) =  -2166.36398110     A.U. after    1 cycles
            NFock=  1  Conv=0.71D-08     -V/T= 2.0092

 **********************************************************************

            Population analysis using the SCF Density.

 **********************************************************************

 Alpha  occ. eigenvalues --  -19.30103 -19.27587 -19.24240 -19.22714 -19.21433
 Alpha  occ. eigenvalues --  -19.20894 -19.18901 -19.16929 -19.16839 -19.13690
 Alpha  occ. eigenvalues --  -14.56148 -14.56074 -14.55882 -14.44127 -14.43213
 Alpha  occ. eigenvalues --  -14.40243 -14.38630 -14.34361 -10.52458 -10.42085
 Alpha  occ. eigenvalues --  -10.40761 -10.39217 -10.37534 -10.35674 -10.34398
 Alpha  occ. eigenvalues --  -10.33395 -10.33339 -10.32120 -10.31703 -10.30809
 Alpha  occ. eigenvalues --  -10.30675 -10.29543 -10.27788 -10.26315 -10.26094
 Alpha  occ. eigenvalues --  -10.24869 -10.21659 -10.21196 -10.21150 -10.21030
 Alpha  occ. eigenvalues --  -10.20964 -10.20808 -10.20408  -1.20778  -1.20769
 Alpha  occ. eigenvalues --   -1.18906  -1.13003  -1.11787  -1.10944  -1.09991
 Alpha  occ. eigenvalues --   -1.09809  -1.08899  -1.08817  -1.08466  -1.05650
 Alpha  occ. eigenvalues --   -1.04259  -1.01998  -0.99879  -0.97434  -0.95120
 Alpha  occ. eigenvalues --   -0.94496  -0.91484  -0.88947  -0.87342  -0.86634
 Alpha  occ. eigenvalues --   -0.83771  -0.82856  -0.80773  -0.79671  -0.78604
 Alpha  occ. eigenvalues --   -0.78282  -0.77348  -0.76402  -0.75770  -0.74327
 Alpha  occ. eigenvalues --   -0.73722  -0.71353  -0.70192  -0.69642  -0.69135
 Alpha  occ. eigenvalues --   -0.68695  -0.68127  -0.67177  -0.65632  -0.65197
 Alpha  occ. eigenvalues --   -0.64108  -0.63140  -0.62778  -0.62512  -0.61816
 Alpha  occ. eigenvalues --   -0.61515  -0.60928  -0.59924  -0.59591  -0.59302
 Alpha  occ. eigenvalues --   -0.58469  -0.57626  -0.57409  -0.56775  -0.56271
 Alpha  occ. eigenvalues --   -0.55531  -0.55109  -0.54835  -0.53909  -0.53535
 Alpha  occ. eigenvalues --   -0.53327  -0.53066  -0.52869  -0.52200  -0.51690
 Alpha  occ. eigenvalues --   -0.51475  -0.51107  -0.50571  -0.50231  -0.49794
 Alpha  occ. eigenvalues --   -0.49294  -0.48806  -0.48394  -0.48017  -0.47694
 Alpha  occ. eigenvalues --   -0.47399  -0.47356  -0.47249  -0.46858  -0.46768
 Alpha  occ. eigenvalues --   -0.46241  -0.46164  -0.45741  -0.45033  -0.44852
 Alpha  occ. eigenvalues --   -0.44208  -0.43975  -0.43647  -0.43007  -0.42802
 Alpha  occ. eigenvalues --   -0.41937  -0.41189  -0.40905  -0.40519  -0.40412
 Alpha  occ. eigenvalues --   -0.40140  -0.39088  -0.38415  -0.37952  -0.37198
 Alpha  occ. eigenvalues --   -0.36610  -0.36085  -0.35745  -0.35621  -0.35522
 Alpha  occ. eigenvalues --   -0.34515  -0.34128  -0.33080  -0.32577  -0.31868
 Alpha  occ. eigenvalues --   -0.30964  -0.29845  -0.28563  -0.27214  -0.27093
 Alpha  occ. eigenvalues --   -0.26167  -0.25833
 Alpha virt. eigenvalues --   -0.16384  -0.12069  -0.09889  -0.08347  -0.07650
 Alpha virt. eigenvalues --   -0.07378  -0.06680  -0.06546  -0.04852  -0.03230
 Alpha virt. eigenvalues --   -0.02811  -0.02403  -0.02359  -0.02188  -0.01233
 Alpha virt. eigenvalues --   -0.00272  -0.00087   0.00540   0.00623   0.01068
 Alpha virt. eigenvalues --    0.01519   0.02731   0.02837   0.04509   0.04654
 Alpha virt. eigenvalues --    0.04875   0.05795   0.06184   0.06575   0.07220
 Alpha virt. eigenvalues --    0.07475   0.08038   0.08455   0.08626   0.09315
 Alpha virt. eigenvalues --    0.09468   0.09927   0.10388   0.10574   0.10760
 Alpha virt. eigenvalues --    0.11178   0.11706   0.11895   0.12047   0.12272
 Alpha virt. eigenvalues --    0.12882   0.13029   0.13678   0.14043   0.14502
 Alpha virt. eigenvalues --    0.14816   0.14939   0.15374   0.15534   0.15725
 Alpha virt. eigenvalues --    0.16208   0.16726   0.16914   0.17137   0.17177
 Alpha virt. eigenvalues --    0.17397   0.17803   0.18740   0.19218   0.19523
 Alpha virt. eigenvalues --    0.20222   0.20857   0.21718   0.21879   0.22793
 Alpha virt. eigenvalues --    0.23096   0.23918   0.24534   0.24623   0.25073
 Alpha virt. eigenvalues --    0.26138   0.28082   0.28379   0.28520   0.29382
 Alpha virt. eigenvalues --    0.29808   0.30387   0.31635   0.32416   0.32990
 Alpha virt. eigenvalues --    0.33563   0.34044   0.34867   0.35838   0.36176
 Alpha virt. eigenvalues --    0.36933   0.37498   0.38034   0.39886   0.39998
 Alpha virt. eigenvalues --    0.40151   0.40763   0.42249   0.43599   0.43981
 Alpha virt. eigenvalues --    0.44593   0.45661   0.46238   0.47016   0.47215
 Alpha virt. eigenvalues --    0.48182   0.48344   0.49542   0.49601   0.50106
 Alpha virt. eigenvalues --    0.50460   0.50647   0.50959   0.51095   0.51207
 Alpha virt. eigenvalues --    0.51886   0.52183   0.52583   0.52678   0.52882
 Alpha virt. eigenvalues --    0.53237   0.53489   0.53583   0.54215   0.54439
 Alpha virt. eigenvalues --    0.54555   0.54804   0.55984   0.56376   0.56734
 Alpha virt. eigenvalues --    0.57011   0.57257   0.57386   0.57668   0.57806
 Alpha virt. eigenvalues --    0.58292   0.58639   0.59022   0.59446   0.59493
 Alpha virt. eigenvalues --    0.59891   0.60092   0.61321   0.61489   0.62193
 Alpha virt. eigenvalues --    0.62599   0.63001   0.63459   0.63700   0.63825
 Alpha virt. eigenvalues --    0.64845   0.65250   0.65851   0.66132   0.66921
 Alpha virt. eigenvalues --    0.67388   0.67836   0.68286   0.68620   0.68755
 Alpha virt. eigenvalues --    0.69066   0.69234   0.69644   0.69838   0.70108
 Alpha virt. eigenvalues --    0.70486   0.71485   0.71884   0.72721   0.73239
 Alpha virt. eigenvalues --    0.73423   0.73569   0.73917   0.74420   0.74507
 Alpha virt. eigenvalues --    0.74838   0.75104   0.75486   0.76322   0.76816
 Alpha virt. eigenvalues --    0.77340   0.77720   0.78256   0.78605   0.79143
 Alpha virt. eigenvalues --    0.79376   0.79732   0.80247   0.80688   0.80956
 Alpha virt. eigenvalues --    0.81273   0.81394   0.81588   0.81907   0.81947
 Alpha virt. eigenvalues --    0.82495   0.82797   0.83182   0.83267   0.83407
 Alpha virt. eigenvalues --    0.83502   0.83924   0.84238   0.84820   0.85567
 Alpha virt. eigenvalues --    0.85781   0.86068   0.86802   0.87469   0.87531
 Alpha virt. eigenvalues --    0.88032   0.88783   0.88967   0.89382   0.89783
 Alpha virt. eigenvalues --    0.90068   0.90347   0.90796   0.91366   0.91958
 Alpha virt. eigenvalues --    0.92374   0.92779   0.92888   0.93063   0.93452
 Alpha virt. eigenvalues --    0.93876   0.94041   0.94323   0.95035   0.95689
 Alpha virt. eigenvalues --    0.95942   0.96205   0.96449   0.97811   0.98406
 Alpha virt. eigenvalues --    0.99241   0.99386   0.99806   1.00235   1.01203
 Alpha virt. eigenvalues --    1.02106   1.02290   1.04176   1.05225   1.06638
 Alpha virt. eigenvalues --    1.07211   1.07737   1.07878   1.08707   1.09000
 Alpha virt. eigenvalues --    1.09586   1.10482   1.10970   1.11425   1.11979
 Alpha virt. eigenvalues --    1.12726   1.13483   1.13929   1.14224   1.15214
 Alpha virt. eigenvalues --    1.15525   1.16672   1.17350   1.18161   1.19574
 Alpha virt. eigenvalues --    1.20029   1.20602   1.21669   1.21812   1.22916
 Alpha virt. eigenvalues --    1.23489   1.24092   1.24414   1.26279   1.26594
 Alpha virt. eigenvalues --    1.28045   1.28565   1.29209   1.29822   1.30579
 Alpha virt. eigenvalues --    1.31420   1.32062   1.32684   1.33617   1.34036
 Alpha virt. eigenvalues --    1.34528   1.35593   1.36701   1.38349   1.38971
 Alpha virt. eigenvalues --    1.39632   1.40512   1.41348   1.42062   1.42264
 Alpha virt. eigenvalues --    1.43387   1.43861   1.44936   1.45245   1.45466
 Alpha virt. eigenvalues --    1.45919   1.46318   1.46827   1.47083   1.47222
 Alpha virt. eigenvalues --    1.47703   1.48470   1.49323   1.50006   1.51017
 Alpha virt. eigenvalues --    1.52167   1.52794   1.53248   1.55133   1.55343
 Alpha virt. eigenvalues --    1.56169   1.56531   1.56868   1.57527   1.58560
 Alpha virt. eigenvalues --    1.61262   1.61466   1.62424   1.63167   1.63605
 Alpha virt. eigenvalues --    1.64083   1.64195   1.65522   1.66085   1.66856
 Alpha virt. eigenvalues --    1.67348   1.68343   1.68461   1.68792   1.69746
 Alpha virt. eigenvalues --    1.70135   1.70984   1.71505   1.72528   1.72551
 Alpha virt. eigenvalues --    1.72781   1.73375   1.74186   1.74538   1.74593
 Alpha virt. eigenvalues --    1.74799   1.75335   1.75796   1.76313   1.77033
 Alpha virt. eigenvalues --    1.77294   1.77715   1.78516   1.78858   1.79502
 Alpha virt. eigenvalues --    1.79949   1.80358   1.80832   1.81368   1.81768
 Alpha virt. eigenvalues --    1.82513   1.82631   1.82867   1.83069   1.83888
 Alpha virt. eigenvalues --    1.84257   1.84528   1.85377   1.86696   1.87286
 Alpha virt. eigenvalues --    1.87529   1.87802   1.88960   1.89283   1.89885
 Alpha virt. eigenvalues --    1.90466   1.90996   1.91546   1.91745   1.92053
 Alpha virt. eigenvalues --    1.92326   1.92582   1.93668   1.94369   1.94898
 Alpha virt. eigenvalues --    1.95227   1.95608   1.95926   1.96904   1.97336
 Alpha virt. eigenvalues --    1.97695   1.97917   1.98177   1.98887   2.00819
 Alpha virt. eigenvalues --    2.01322   2.02031   2.02146   2.02852   2.03464
 Alpha virt. eigenvalues --    2.04013   2.04216   2.04929   2.05404   2.06323
 Alpha virt. eigenvalues --    2.07521   2.07830   2.09412   2.11698   2.12087
 Alpha virt. eigenvalues --    2.12878   2.12903   2.13210   2.13532   2.13713
 Alpha virt. eigenvalues --    2.14067   2.14808   2.15839   2.18558   2.18816
 Alpha virt. eigenvalues --    2.20087   2.20269   2.21592   2.22023   2.23237
 Alpha virt. eigenvalues --    2.23983   2.24354   2.25335   2.26639   2.27514
 Alpha virt. eigenvalues --    2.28151   2.28540   2.28807   2.29904   2.30518
 Alpha virt. eigenvalues --    2.30890   2.31587   2.32275   2.33337   2.33907
 Alpha virt. eigenvalues --    2.35270   2.36135   2.36573   2.36802   2.37011
 Alpha virt. eigenvalues --    2.37781   2.38187   2.38637   2.39203   2.39850
 Alpha virt. eigenvalues --    2.40409   2.41095   2.41731   2.42256   2.43303
 Alpha virt. eigenvalues --    2.44712   2.45103   2.45778   2.47071   2.48330
 Alpha virt. eigenvalues --    2.49696   2.50137   2.50860   2.51676   2.53244
 Alpha virt. eigenvalues --    2.53878   2.54409   2.55317   2.55563   2.56438
 Alpha virt. eigenvalues --    2.56555   2.57496   2.58979   2.60895   2.62289
 Alpha virt. eigenvalues --    2.63179   2.63997   2.64169   2.64933   2.65826
 Alpha virt. eigenvalues --    2.66796   2.67415   2.69014   2.69937   2.70563
 Alpha virt. eigenvalues --    2.72115   2.72608   2.73228   2.73509   2.75519
 Alpha virt. eigenvalues --    2.75995   2.77427   2.78991   2.81017   2.83539
 Alpha virt. eigenvalues --    2.84344   2.85109   2.85758   2.87356   2.88364
 Alpha virt. eigenvalues --    2.89537   2.90851   2.90911   2.92018   2.92837
 Alpha virt. eigenvalues --    2.93396   2.93835   2.98155   2.99653   3.00642
 Alpha virt. eigenvalues --    3.01717   3.02659   3.03024   3.06699   3.11364
 Alpha virt. eigenvalues --    3.13391   3.17979   3.38807   3.61282   3.67252
 Alpha virt. eigenvalues --    3.69378   3.75490   3.76956   3.78160   3.82259
 Alpha virt. eigenvalues --    3.84341   3.92603   3.98065   4.01040   4.02183
 Alpha virt. eigenvalues --    4.02984   4.05990   4.07083   4.08225   4.09420
 Alpha virt. eigenvalues --    4.09992   4.10717   4.11354   4.14617   4.14654
 Alpha virt. eigenvalues --    4.18780   4.20835   4.22666   4.26323   4.26722
 Alpha virt. eigenvalues --    4.28247   4.31802   4.34003   4.34936   4.37106
 Alpha virt. eigenvalues --    4.38813   4.40649   4.43937   4.46418   4.47174
 Alpha virt. eigenvalues --    4.56783   4.58073   4.59252   4.62159   4.64916
 Alpha virt. eigenvalues --    4.69106
          Condensed to atoms (all electrons):
 Mulliken charges:
               1
     1  N   -0.722177
     2  H    0.311981
     3  H    0.291850
     4  C   -0.074510
     5  H    0.118480
     6  C    0.648890
     7  C   -0.333329
     8  H    0.176672
     9  H    0.153673
    10  O   -0.523369
    11  C    0.142958
    12  C   -0.179619
    13  H    0.122683
    14  C   -0.190359
    15  H    0.141677
    16  C   -0.129112
    17  H    0.129308
    18  C   -0.129688
    19  H    0.130668
    20  C   -0.131577
    21  H    0.129513
    22  N   -0.639027
    23  H    0.340411
    24  C   -0.045773
    25  H    0.184868
    26  C    0.596092
    27  C   -0.044706
    28  H    0.131961
    29  H    0.189238
    30  O   -0.550169
    31  O   -0.649932
    32  H    0.434298
    33  N   -0.598080
    34  H    0.360357
    35  C   -0.081987
    36  H    0.183105
    37  C    0.673497
    38  C   -0.046033
    39  H    0.158429
    40  H    0.135119
    41  O   -0.553255
    42  O   -0.613125
    43  H    0.410563
    44  N   -0.626095
    45  H    0.354924
    46  C   -0.039723
    47  H    0.200544
    48  C    0.607719
    49  C   -0.379835
    50  H    0.238572
    51  H    0.214689
    52  O   -0.527896
    53  C    0.622779
    54  O   -0.503711
    55  O   -0.543261
    56  N   -0.626812
    57  H    0.383563
    58  C   -0.038752
    59  H    0.197330
    60  C    0.599254
    61  C   -0.303427
    62  H    0.175522
    63  H    0.173788
    64  O   -0.450118
    65  C   -0.279601
    66  H    0.144351
    67  H    0.185901
    68  C   -0.183889
    69  H    0.190072
    70  H    0.207252
    71  N   -0.588501
    72  H    0.373295
    73  N   -0.752478
    74  H    0.392124
    75  H    0.396658
    76  N   -0.757995
    77  H    0.391238
    78  H    0.391586
    79  C    0.828949
    80  O   -0.574613
    81  H    0.425010
    82  H    0.421124
 Sum of Mulliken charges =   1.00000
 Mulliken charges with hydrogens summed into heavy atoms:
               1
     1  N   -0.118347
     4  C    0.043970
     6  C    0.648890
     7  C   -0.002985
    10  O   -0.523369
    11  C    0.142958
    12  C   -0.056936
    14  C   -0.048682
    16  C    0.000196
    18  C    0.000979
    20  C   -0.002064
    22  N   -0.298616
    24  C    0.139095
    26  C    0.596092
    27  C    0.276493
    30  O   -0.550169
    31  O   -0.215634
    33  N   -0.237723
    35  C    0.101119
    37  C    0.673497
    38  C    0.247514
    41  O   -0.553255
    42  O   -0.202562
    44  N   -0.271171
    46  C    0.160822
    48  C    0.607719
    49  C    0.073427
    52  O   -0.527896
    53  C    0.622779
    54  O   -0.503711
    55  O   -0.122138
    56  N   -0.243249
    58  C    0.158577
    60  C    0.599254
    61  C    0.045883
    64  O   -0.450118
    65  C    0.050651
    68  C    0.213434
    71  N   -0.215205
    73  N    0.036305
    76  N    0.024829
    79  C    0.828949
    80  O   -0.149604
 Electronic spatial extent (au):  <R**2>=          56445.9188
 Charge=              1.0000 electrons
 Dipole moment (field-independent basis, Debye):
    X=             45.8451    Y=             19.3832    Z=             35.7679  Tot=             61.2929
 Quadrupole moment (field-independent basis, Debye-Ang):
   XX=            178.1119   YY=           -166.9330   ZZ=            -45.8284
   XY=            154.0344   XZ=            280.9062   YZ=             68.2287
 Traceless Quadrupole moment (field-independent basis, Debye-Ang):
   XX=            189.6617   YY=           -155.3831   ZZ=            -34.2786
   XY=            154.0344   XZ=            280.9062   YZ=             68.2287
 Octapole moment (field-independent basis, Debye-Ang**2):
  XXX=           3490.9011  YYY=           -288.0966  ZZZ=           1831.5298  XYY=            466.2260
  XXY=           1399.9436  XXZ=           2943.5652  XZZ=           1960.6235  YZZ=            582.6718
  YYZ=            556.0919  XYZ=           1075.0564
 Hexadecapole moment (field-independent basis, Debye-Ang**3):
 XXXX=           2593.9844 YYYY=          -6435.6084 ZZZZ=         -15800.2337 XXXY=          10822.7745
 XXXZ=          13491.5839 YYYX=           -756.5055 YYYZ=             10.2980 ZZZX=            757.6415
 ZZZY=           2456.6790 XXYY=          -1048.4018 XXZZ=           9513.5308 YYZZ=          -3021.9197
 XXYZ=           8909.4197 YYXZ=           -632.1950 ZZXY=           5121.7314
 N-N= 5.010697280706D+03 E-N=-1.505405180720D+04  KE= 2.146557355836D+03
 Unable to Open any file for archive entry.
 1\1\GINC-AMR-183\SP\RB3LYP\6-31G(d)\C25H39N8O10(1+)\KENGMITH\15-May-20
 22\0\\# B3LYP/6-31G* empiricaldispersion=gd3 guess=read geom=check nos
 ymm integral(ultrafinegrid)\\Candidate Structure: Conf:549 Charge calc
  in gas phase\\1,1\N,0,-3.1416998459,1.0750173833,-5.4139224668\H,0,-3
 .5275676058,1.9185869684,-5.8361012742\H,0,-2.4670403712,1.3772064732,
 -4.7137102659\C,0,-4.233029277,0.3173513487,-4.7791995268\H,0,-4.75745
 78793,0.8927349549,-3.9909385283\C,0,-3.6169047138,-0.9299218732,-4.12
 2316063\C,0,-5.2695164307,-0.0994834969,-5.8363448081\H,0,-4.755242958
 4,-0.7145381569,-6.5798601315\H,0,-6.013042202,-0.7410937109,-5.351184
 4321\O,0,-3.7295620925,-2.0627458321,-4.5745889916\C,0,-5.9382819795,1
 .0943473814,-6.479099777\C,0,-7.0439606486,1.7078948196,-5.8728273564\
 H,0,-7.4454069284,1.2893838983,-4.9520010825\C,0,-5.4415239241,1.64421
 22448,-7.6697649036\H,0,-4.5856463491,1.1767466976,-8.1504613483\C,0,-
 7.6380792108,2.8365480356,-6.4378919795\H,0,-8.4990774385,3.2929103945
 ,-5.9561292879\C,0,-6.0321686173,2.7750084573,-8.2381890803\H,0,-5.635
 5530684,3.1828646273,-9.1644520286\C,0,-7.1327412426,3.3748437397,-7.6
 238824827\H,0,-7.5972384642,4.2512033942,-8.0679670096\N,0,-2.90094658
 04,-0.6663651861,-2.9892069744\H,0,-2.8898775532,0.2524782134,-2.56220
 97788\C,0,-2.2359237431,-1.7112257804,-2.2434091195\H,0,-2.8801328143,
 -2.596230442,-2.1921625244\C,0,-1.9251413025,-1.1859322117,-0.85083614
 78\C,0,-0.9084351198,-2.1388914606,-2.9450423205\H,0,-0.2896454107,-1.
 2414404735,-3.0837533547\H,0,-1.186252884,-2.5295240358,-3.9270211694\
 O,0,-1.9177096855,0.0147399295,-0.5795564323\O,0,-0.217452911,-3.15342
 93461,-2.2386806011\H,0,0.3746086313,-2.7044248494,-1.6025362541\N,0,-
 1.5890253765,-2.1492301707,0.0627824966\H,0,-1.3200254568,-3.048651535
 2,-0.3315954578\C,0,-0.8171990996,-1.7356929364,1.2141972009\H,0,-1.36
 61600249,-0.9442165462,1.7350529736\C,0,0.54152625,-1.1607258185,0.752
 8866382\C,0,-0.6271275511,-2.9179176776,2.1643418803\H,0,-1.6191698329
 ,-3.262370417,2.4893608876\H,0,-0.0664741185,-2.5866073248,3.052739278
 2\O,0,1.0424517521,-1.4209497261,-0.3423297682\O,0,0.0747557833,-3.921
 1016671,1.4443784816\H,0,-0.0094805345,-4.7636664714,1.914323766\N,0,1
 .1575389463,-0.3383932573,1.633824229\H,0,0.7128619849,-0.0388788645,2
 .4941303626\C,0,2.3875764654,0.3426418295,1.2852627539\H,0,3.085708835
 ,-0.3816478105,0.8547414113\C,0,2.9560584131,0.9470442973,2.5731472496
 \C,0,2.1166541134,1.453073698,0.2344582311\H,0,1.3947752517,1.06912937
 11,-0.4920840531\H,0,1.6644174673,2.3336617918,0.704980678\O,0,2.25540
 64683,1.1497756637,3.5596097742\C,0,3.3383851552,1.9039682555,-0.52924
 76308\O,0,4.4994826742,1.6179364699,-0.276545582\O,0,3.0042296366,2.67
 62299542,-1.5718952718\N,0,4.2816782926,1.2775591549,2.5177270598\H,0,
 4.6698098887,1.3167251763,1.5721585923\C,0,4.7759883132,2.2516528633,3
 .4658981277\H,0,4.4628164591,1.9485590171,4.4695701635\C,0,4.131895654
 9,3.6193482905,3.1829728608\C,0,6.3148666897,2.3053335486,3.3838049567
 \H,0,6.6096723817,2.7175334381,2.4091718301\H,0,6.6643820493,1.2654144
 182,3.4021676542\O,0,3.5778597157,3.924186118,2.1541669305\C,0,6.98347
 47731,3.097887304,4.5141948495\H,0,6.635040525,2.7173859385,5.48512086
 68\H,0,6.6818493999,4.1489644228,4.4802572711\C,0,8.5107362262,2.99857
 69527,4.4210676841\H,0,8.8563352964,1.9603894755,4.4756243863\H,0,8.86
 41305019,3.3920049498,3.4637997279\N,0,9.2120493401,3.7651238626,5.469
 3599724\H,0,9.3818211344,4.7464062529,5.2865779218\N,0,9.0488356419,2.
 1438150267,7.1308539421\H,0,9.4551782345,1.6856352349,7.9347000401\H,0
 ,8.2640736159,1.6904495896,6.6858903188\N,0,10.3347680925,4.0353724835
 ,7.4795258729\H,0,10.9102905216,4.7786707501,7.1084757021\H,0,10.40081
 16188,3.8512538564,8.4710288191\C,0,9.5219901118,3.3166562467,6.686973
 6377\O,0,4.2744041153,4.4645256199,4.2324929936\H,0,3.8191640889,5.294
 6052627,3.9903611037\H,0,3.8308750268,2.9331900319,-2.0232565033\\Vers
 ion=ES64L-G16RevC.01\HF=-2166.3639811\RMSD=7.147e-09\Dipole=16.3280792
 ,6.0275938,14.3588282\Quadrupole=141.0088407,-115.5235404,-25.4853003,
 114.5207888,208.8468555,50.7263593\PG=C01 [X(C25H39N8O10)]\\@
 The archive entry for this job was punched.


 At the touch of love, everyone becomes a poet.
                                -- Plato
 Job cpu time:       0 days  0 hours  1 minutes 18.4 seconds.
 Elapsed time:       0 days  0 hours  0 minutes 20.1 seconds.
 File lengths (MBytes):  RWF=    384 Int=      0 D2E=      0 Chk=     56 Scr=     16
 Normal termination of Gaussian 16 at Sun May 15 23:40:44 2022.
