 Entering Gaussian System, Link 0=/opt/software/Gaussian/g16-AVX2-C.01/g16/g16
 Input=charge-conf-641.com
 Output=charge-conf-641.log
 Initial command:
 /opt/software/Gaussian/g16-AVX2-C.01/g16/l1.exe "/mnt/gs18/scratch/users/kengmith/Gau-114051.inp" -scrdir="/mnt/gs18/scratch/users/kengmith/"
 Entering Link 1 = /opt/software/Gaussian/g16-AVX2-C.01/g16/l1.exe PID=    114061.
  
 Copyright (c) 1988-2019, Gaussian, Inc.  All Rights Reserved.
  
 This is part of the Gaussian(R) 16 program.  It is based on
 the Gaussian(R) 09 system (copyright 2009, Gaussian, Inc.),
 the Gaussian(R) 03 system (copyright 2003, Gaussian, Inc.),
 the Gaussian(R) 98 system (copyright 1998, Gaussian, Inc.),
 the Gaussian(R) 94 system (copyright 1995, Gaussian, Inc.),
 the Gaussian 92(TM) system (copyright 1992, Gaussian, Inc.),
 the Gaussian 90(TM) system (copyright 1990, Gaussian, Inc.),
 the Gaussian 88(TM) system (copyright 1988, Gaussian, Inc.),
 the Gaussian 86(TM) system (copyright 1986, Carnegie Mellon
 University), and the Gaussian 82(TM) system (copyright 1983,
 Carnegie Mellon University). Gaussian is a federally registered
 trademark of Gaussian, Inc.
  
 This software contains proprietary and confidential information,
 including trade secrets, belonging to Gaussian, Inc.
  
 This software is provided under written license and may be
 used, copied, transmitted, or stored only in accord with that
 written license.
  
 The following legend is applicable only to US Government
 contracts under FAR:
  
                    RESTRICTED RIGHTS LEGEND
  
 Use, reproduction and disclosure by the US Government is
 subject to restrictions as set forth in subparagraphs (a)
 and (c) of the Commercial Computer Software - Restricted
 Rights clause in FAR 52.227-19.
  
 Gaussian, Inc.
 340 Quinnipiac St., Bldg. 40, Wallingford CT 06492
  
  
 ---------------------------------------------------------------
 Warning -- This program may not be used in any manner that
 competes with the business of Gaussian, Inc. or will provide
 assistance to any competitor of Gaussian, Inc.  The licensee
 of this program is prohibited from giving any competitor of
 Gaussian, Inc. access to this program.  By using this program,
 the user acknowledges that Gaussian, Inc. is engaged in the
 business of creating and licensing software in the field of
 computational chemistry and represents and warrants to the
 licensee that it is not a competitor of Gaussian, Inc. and that
 it will not use this program in any manner prohibited above.
 ---------------------------------------------------------------
  

 Cite this work as:
 Gaussian 16, Revision C.01,
 M. J. Frisch, G. W. Trucks, H. B. Schlegel, G. E. Scuseria, 
 M. A. Robb, J. R. Cheeseman, G. Scalmani, V. Barone, 
 G. A. Petersson, H. Nakatsuji, X. Li, M. Caricato, A. V. Marenich, 
 J. Bloino, B. G. Janesko, R. Gomperts, B. Mennucci, H. P. Hratchian, 
 J. V. Ortiz, A. F. Izmaylov, J. L. Sonnenberg, D. Williams-Young, 
 F. Ding, F. Lipparini, F. Egidi, J. Goings, B. Peng, A. Petrone, 
 T. Henderson, D. Ranasinghe, V. G. Zakrzewski, J. Gao, N. Rega, 
 G. Zheng, W. Liang, M. Hada, M. Ehara, K. Toyota, R. Fukuda, 
 J. Hasegawa, M. Ishida, T. Nakajima, Y. Honda, O. Kitao, H. Nakai, 
 T. Vreven, K. Throssell, J. A. Montgomery, Jr., J. E. Peralta, 
 F. Ogliaro, M. J. Bearpark, J. J. Heyd, E. N. Brothers, K. N. Kudin, 
 V. N. Staroverov, T. A. Keith, R. Kobayashi, J. Normand, 
 K. Raghavachari, A. P. Rendell, J. C. Burant, S. S. Iyengar, 
 J. Tomasi, M. Cossi, J. M. Millam, M. Klene, C. Adamo, R. Cammi, 
 J. W. Ochterski, R. L. Martin, K. Morokuma, O. Farkas, 
 J. B. Foresman, and D. J. Fox, Gaussian, Inc., Wallingford CT, 2019.
 
 ******************************************
 Gaussian 16:  ES64L-G16RevC.01  3-Jul-2019
                15-May-2022 
 ******************************************
 %mem=8gb
 %nproc=4
 Will use up to    4 processors via shared memory.
 %chk=conf-641.chk
 ----------------------------------------------------------------------
 # B3LYP/6-31G* empiricaldispersion=gd3 guess=read geom=check nosymm in
 tegral(ultrafinegrid)
 ----------------------------------------------------------------------
 1/29=2,38=1,172=1/1;
 2/12=2,15=1,40=1/2;
 3/5=1,6=6,7=1,11=2,14=-4,25=1,30=1,74=-5,75=-5,116=-2,124=31/1,2,3;
 4/5=1/1;
 5/5=2,38=6/2;
 6/7=2,8=2,9=2,10=2,28=1/1;
 99/5=1,9=1/99;
 ------------------------------------------------------
 Candidate Structure: Conf:641 Charge calc in gas phase
 ------------------------------------------------------
 Structure from the checkpoint file:  "conf-641.chk"
 Charge =  1 Multiplicity = 1
 Redundant internal coordinates found in file.  (old form).
 N,0,-2.1082156011,-4.320900279,-2.9445638876
 H,0,-2.3197049504,-4.4411074775,-3.9351888582
 H,0,-1.1320429813,-4.019715428,-2.9282009087
 C,0,-2.9114344528,-3.2209905565,-2.4207113494
 H,0,-3.9667155069,-3.4304366103,-2.633727097
 C,0,-2.5065192334,-1.8654625495,-3.0319827355
 C,0,-2.7298140603,-3.1475433675,-0.8700804718
 H,0,-2.6271421456,-4.1860639175,-0.5404716402
 H,0,-1.7840869079,-2.6355139919,-0.6508367874
 O,0,-1.3796773803,-1.6957023814,-3.4948516973
 C,0,-3.8782734775,-2.4833657569,-0.1414391137
 C,0,-3.8940803796,-1.0993786994,0.0907799697
 H,0,-3.0570520717,-0.5014516618,-0.2446013535
 C,0,-4.988852788,-3.2332547926,0.2725621251
 H,0,-4.9989316221,-4.3077382157,0.1039178085
 C,0,-4.9837683008,-0.4752045924,0.7027865001
 H,0,-4.9705010111,0.6023607803,0.8422437137
 C,0,-6.0763265717,-2.618030648,0.8946434762
 H,0,-6.9259949109,-3.2181283984,1.2091286452
 C,0,-6.0800177581,-1.2366737925,1.109661626
 H,0,-6.9321545631,-0.7602756259,1.5860779382
 N,0,-3.4351621722,-0.8608327758,-2.9837058241
 H,0,-4.2267395237,-1.0002524342,-2.3639445228
 C,0,-3.0589195668,0.5387235658,-3.2373556198
 H,0,-2.3701056956,0.5218259583,-4.0864472502
 C,0,-2.3523150425,1.1569548997,-2.0122459429
 C,0,-4.3104356884,1.3296830522,-3.6221771018
 H,0,-4.0478494377,2.3801904034,-3.7650123288
 H,0,-5.0359061473,1.2904025305,-2.7933259692
 O,0,-2.8918909498,2.008257986,-1.3040975875
 O,0,-4.859072888,0.8670628432,-4.8427622197
 H,0,-4.9635060246,-0.095184343,-4.7646355572
 N,0,-1.1129769329,0.6640495964,-1.7635113212
 H,0,-0.7073627452,-0.0507265976,-2.3668745167
 C,0,-0.301517589,1.1517781531,-0.6688785838
 H,0,-0.2929779456,2.250981279,-0.6873046197
 C,0,1.1269889875,0.6337543375,-0.8889134241
 C,0,-0.8387266878,0.7345595698,0.714974192
 H,0,-1.8704897978,1.0917815623,0.7866081502
 H,0,-0.2582160795,1.2420327213,1.5012866624
 O,0,1.4169607179,-0.1440097466,-1.7908380771
 O,0,-0.7357857702,-0.6747058258,0.8727422044
 H,0,-1.5877839649,-1.0128432916,1.1849506321
 N,0,2.0618526015,1.1122228219,-0.019953994
 H,0,1.800289593,1.6244578313,0.8145293911
 C,0,3.394086624,0.5461378102,-0.0057365093
 H,0,3.3180811655,-0.541990069,-0.1395737596
 C,0,3.9975519074,0.8320973877,1.3765334948
 C,0,4.2455761669,1.0847010192,-1.1752690215
 H,0,5.1713246512,0.5049575131,-1.2945458121
 H,0,3.6809463198,0.9484437882,-2.0995985035
 O,0,3.3526955882,1.366367812,2.2720221696
 C,0,4.6422890938,2.5356698106,-0.9940256745
 O,0,4.8411117516,3.0759641992,0.0759042261
 O,0,4.7917379792,3.1616010077,-2.1754111168
 N,0,5.2907250436,0.4164552517,1.557784944
 H,0,5.7987668996,0.1209259686,0.7353922694
 C,0,6.0911279044,1.0686886133,2.5856577277
 H,0,5.59216487,2.0170223014,2.8262030533
 C,0,7.4837106059,1.4556540951,2.0919158342
 C,0,6.2191873289,0.2430838496,3.8790020493
 H,0,6.8975467726,0.7886788574,4.5446012363
 H,0,6.7036741628,-0.7152568507,3.6493033315
 O,0,8.3530167753,1.8621539491,2.8280232297
 C,0,4.8650928565,-0.011212582,4.5501688701
 H,0,4.2402639359,-0.639633206,3.9091485361
 H,0,4.3044276916,0.9248277389,4.6623585343
 C,0,4.9960309525,-0.7066992105,5.9055616506
 H,0,4.0054702919,-0.9623783296,6.3015503244
 H,0,5.58627942,-1.6256216659,5.8103134384
 N,0,5.6905579992,0.1787645308,6.8648208226
 H,0,5.6579031982,1.1720925494,6.6680336535
 N,0,6.1384040138,-1.4495411672,8.4554739183
 H,0,6.7526100979,-1.8267161786,9.1633757955
 H,0,5.4002525506,-2.0477566333,8.1133648774
 N,0,7.0946348235,0.6511263693,8.649806528
 H,0,7.426902297,1.5023185755,8.2181486351
 H,0,7.3642983423,0.4827318461,9.6088032105
 C,0,6.2992566689,-0.2044342976,7.9843597679
 O,0,7.6413908636,1.3046980831,0.7589217707
 H,0,8.5469767978,1.5972376939,0.5399132361
 H,0,5.0733818527,4.0770926346,-1.9847850321
 Recover connectivity data from disk.
                           ----------------------------
                           !    Current Parameters    !
                           ! (Angstroms and Degrees)  !
 --------------------------                            --------------------------
 ! Name  Definition              Value                                          !
 --------------------------------------------------------------------------------
 ! R1    R(1,2)                  1.0201                                         !
 ! R2    R(1,3)                  1.0217                                         !
 ! R3    R(1,4)                  1.4592                                         !
 ! R4    R(4,5)                  1.0968                                         !
 ! R5    R(4,6)                  1.5411                                         !
 ! R6    R(4,7)                  1.563                                          !
 ! R7    R(6,10)                 1.23                                           !
 ! R8    R(6,22)                 1.3689                                         !
 ! R9    R(7,8)                  1.0944                                         !
 ! R10   R(7,9)                  1.0976                                         !
 ! R11   R(7,11)                 1.5136                                         !
 ! R12   R(11,12)                1.4034                                         !
 ! R13   R(11,14)                1.4025                                         !
 ! R14   R(12,13)                1.0819                                         !
 ! R15   R(12,16)                1.397                                          !
 ! R16   R(14,15)                1.0877                                         !
 ! R17   R(14,18)                1.3957                                         !
 ! R18   R(16,17)                1.0866                                         !
 ! R19   R(16,20)                1.3954                                         !
 ! R20   R(18,19)                1.0867                                         !
 ! R21   R(18,20)                1.398                                          !
 ! R22   R(20,21)                1.0863                                         !
 ! R23   R(22,23)                1.015                                          !
 ! R24   R(22,24)                1.4713                                         !
 ! R25   R(24,25)                1.0935                                         !
 ! R26   R(24,26)                1.5435                                         !
 ! R27   R(24,27)                1.5297                                         !
 ! R28   R(26,30)                1.2318                                         !
 ! R29   R(26,33)                1.3568                                         !
 ! R30   R(27,28)                1.0922                                         !
 ! R31   R(27,29)                1.1022                                         !
 ! R32   R(27,31)                1.4159                                         !
 ! R33   R(31,32)                0.971                                          !
 ! R34   R(33,34)                1.0195                                         !
 ! R35   R(33,35)                1.4473                                         !
 ! R36   R(35,36)                1.0994                                         !
 ! R37   R(35,37)                1.5354                                         !
 ! R38   R(35,38)                1.542                                          !
 ! R39   R(37,41)                1.2258                                         !
 ! R40   R(37,44)                1.3631                                         !
 ! R41   R(38,39)                1.0942                                         !
 ! R42   R(38,40)                1.1013                                         !
 ! R43   R(38,42)                1.4218                                         !
 ! R44   R(42,43)                0.9684                                         !
 ! R45   R(44,45)                1.0135                                         !
 ! R46   R(44,46)                1.4476                                         !
 ! R47   R(46,47)                1.099                                          !
 ! R48   R(46,48)                1.5351                                         !
 ! R49   R(46,49)                1.5437                                         !
 ! R50   R(48,52)                1.226                                          !
 ! R51   R(48,56)                1.3704                                         !
 ! R52   R(49,50)                1.0988                                         !
 ! R53   R(49,51)                1.0917                                         !
 ! R54   R(49,53)                1.5151                                         !
 ! R55   R(53,54)                1.215                                          !
 ! R56   R(53,55)                1.3453                                         !
 ! R57   R(55,82)                0.9766                                         !
 ! R58   R(56,57)                1.0108                                         !
 ! R59   R(56,58)                1.4569                                         !
 ! R60   R(58,59)                1.0983                                         !
 ! R61   R(58,60)                1.5274                                         !
 ! R62   R(58,61)                1.5397                                         !
 ! R63   R(60,64)                1.2095                                         !
 ! R64   R(60,80)                1.3507                                         !
 ! R65   R(61,62)                1.0958                                         !
 ! R66   R(61,63)                1.0981                                         !
 ! R67   R(61,65)                1.5325                                         !
 ! R68   R(65,66)                1.0937                                         !
 ! R69   R(65,67)                1.0969                                         !
 ! R70   R(65,68)                1.529                                          !
 ! R71   R(68,69)                1.097                                          !
 ! R72   R(68,70)                1.0963                                         !
 ! R73   R(68,71)                1.4787                                         !
 ! R74   R(71,72)                1.0132                                         !
 ! R75   R(71,79)                1.3307                                         !
 ! R76   R(73,74)                1.0103                                         !
 ! R77   R(73,75)                1.0098                                         !
 ! R78   R(73,79)                1.3409                                         !
 ! R79   R(76,77)                1.0106                                         !
 ! R80   R(76,78)                1.0103                                         !
 ! R81   R(76,79)                1.3444                                         !
 ! R82   R(80,81)                0.9765                                         !
 ! A1    A(2,1,3)              104.3818                                         !
 ! A2    A(2,1,4)              108.8647                                         !
 ! A3    A(3,1,4)              107.335                                          !
 ! A4    A(1,4,5)              108.4185                                         !
 ! A5    A(1,4,6)              112.0842                                         !
 ! A6    A(1,4,7)              109.1242                                         !
 ! A7    A(5,4,6)              110.1049                                         !
 ! A8    A(5,4,7)              108.2688                                         !
 ! A9    A(6,4,7)              108.7626                                         !
 ! A10   A(4,6,10)             120.7553                                         !
 ! A11   A(4,6,22)             116.9539                                         !
 ! A12   A(10,6,22)            122.2402                                         !
 ! A13   A(4,7,8)              105.3736                                         !
 ! A14   A(4,7,9)              108.6768                                         !
 ! A15   A(4,7,11)             114.2078                                         !
 ! A16   A(8,7,9)              107.5595                                         !
 ! A17   A(8,7,11)             110.0352                                         !
 ! A18   A(9,7,11)             110.6661                                         !
 ! A19   A(7,11,12)            121.3945                                         !
 ! A20   A(7,11,14)            120.5502                                         !
 ! A21   A(12,11,14)           118.0018                                         !
 ! A22   A(11,12,13)           119.0112                                         !
 ! A23   A(11,12,16)           121.459                                          !
 ! A24   A(13,12,16)           119.494                                          !
 ! A25   A(11,14,15)           119.3239                                         !
 ! A26   A(11,14,18)           120.853                                          !
 ! A27   A(15,14,18)           119.8231                                         !
 ! A28   A(12,16,17)           119.3257                                         !
 ! A29   A(12,16,20)           119.7835                                         !
 ! A30   A(17,16,20)           120.8849                                         !
 ! A31   A(14,18,19)           119.6537                                         !
 ! A32   A(14,18,20)           120.4077                                         !
 ! A33   A(19,18,20)           119.9382                                         !
 ! A34   A(16,20,18)           119.4907                                         !
 ! A35   A(16,20,21)           120.3198                                         !
 ! A36   A(18,20,21)           120.1889                                         !
 ! A37   A(6,22,23)            116.7304                                         !
 ! A38   A(6,22,24)            121.2348                                         !
 ! A39   A(23,22,24)           115.8098                                         !
 ! A40   A(22,24,25)           106.2756                                         !
 ! A41   A(22,24,26)           111.1766                                         !
 ! A42   A(22,24,27)           109.0269                                         !
 ! A43   A(25,24,26)           109.5202                                         !
 ! A44   A(25,24,27)           109.1485                                         !
 ! A45   A(26,24,27)           111.5374                                         !
 ! A46   A(24,26,30)           122.1802                                         !
 ! A47   A(24,26,33)           114.7194                                         !
 ! A48   A(30,26,33)           123.0801                                         !
 ! A49   A(24,27,28)           109.483                                          !
 ! A50   A(24,27,29)           109.3233                                         !
 ! A51   A(24,27,31)           111.4033                                         !
 ! A52   A(28,27,29)           106.9097                                         !
 ! A53   A(28,27,31)           107.1379                                         !
 ! A54   A(29,27,31)           112.431                                          !
 ! A55   A(27,31,32)           107.2224                                         !
 ! A56   A(26,33,34)           120.638                                          !
 ! A57   A(26,33,35)           121.8969                                         !
 ! A58   A(34,33,35)           117.439                                          !
 ! A59   A(33,35,36)           109.1852                                         !
 ! A60   A(33,35,37)           107.4315                                         !
 ! A61   A(33,35,38)           113.0955                                         !
 ! A62   A(36,35,37)           109.1295                                         !
 ! A63   A(36,35,38)           106.7547                                         !
 ! A64   A(37,35,38)           111.19                                           !
 ! A65   A(35,37,41)           122.6584                                         !
 ! A66   A(35,37,44)           115.3607                                         !
 ! A67   A(41,37,44)           121.9757                                         !
 ! A68   A(35,38,39)           107.3933                                         !
 ! A69   A(35,38,40)           109.4178                                         !
 ! A70   A(35,38,42)           110.0322                                         !
 ! A71   A(39,38,40)           107.4495                                         !
 ! A72   A(39,38,42)           112.6187                                         !
 ! A73   A(40,38,42)           109.8372                                         !
 ! A74   A(38,42,43)           108.5531                                         !
 ! A75   A(37,44,45)           121.6889                                         !
 ! A76   A(37,44,46)           120.0124                                         !
 ! A77   A(45,44,46)           115.2821                                         !
 ! A78   A(44,46,47)           108.8054                                         !
 ! A79   A(44,46,48)           107.3242                                         !
 ! A80   A(44,46,49)           111.3322                                         !
 ! A81   A(47,46,48)           108.7408                                         !
 ! A82   A(47,46,49)           106.9375                                         !
 ! A83   A(48,46,49)           113.6012                                         !
 ! A84   A(46,48,52)           122.1459                                         !
 ! A85   A(46,48,56)           115.6935                                         !
 ! A86   A(52,48,56)           122.1342                                         !
 ! A87   A(46,49,50)           111.2783                                         !
 ! A88   A(46,49,51)           108.2191                                         !
 ! A89   A(46,49,53)           112.825                                          !
 ! A90   A(50,49,51)           106.1405                                         !
 ! A91   A(50,49,53)           107.3176                                         !
 ! A92   A(51,49,53)           110.8697                                         !
 ! A93   A(49,53,54)           125.0336                                         !
 ! A94   A(49,53,55)           111.6921                                         !
 ! A95   A(54,53,55)           123.2462                                         !
 ! A96   A(53,55,82)           107.2645                                         !
 ! A97   A(48,56,57)           117.0878                                         !
 ! A98   A(48,56,58)           118.4223                                         !
 ! A99   A(57,56,58)           115.3891                                         !
 ! A100  A(56,58,59)           106.9477                                         !
 ! A101  A(56,58,60)           112.7221                                         !
 ! A102  A(56,58,61)           113.4698                                         !
 ! A103  A(59,58,60)           105.4422                                         !
 ! A104  A(59,58,61)           108.4704                                         !
 ! A105  A(60,58,61)           109.3633                                         !
 ! A106  A(58,60,64)           122.9386                                         !
 ! A107  A(58,60,80)           113.3993                                         !
 ! A108  A(64,60,80)           123.6613                                         !
 ! A109  A(58,61,62)           107.1405                                         !
 ! A110  A(58,61,63)           109.2042                                         !
 ! A111  A(58,61,65)           112.5413                                         !
 ! A112  A(62,61,63)           106.7642                                         !
 ! A113  A(62,61,65)           111.3191                                         !
 ! A114  A(63,61,65)           109.6707                                         !
 ! A115  A(61,65,66)           110.086                                          !
 ! A116  A(61,65,67)           110.7828                                         !
 ! A117  A(61,65,68)           112.8313                                         !
 ! A118  A(66,65,67)           104.9668                                         !
 ! A119  A(66,65,68)           107.8851                                         !
 ! A120  A(67,65,68)           109.9542                                         !
 ! A121  A(65,68,69)           110.4061                                         !
 ! A122  A(65,68,70)           110.5087                                         !
 ! A123  A(65,68,71)           110.0533                                         !
 ! A124  A(69,68,70)           108.7938                                         !
 ! A125  A(69,68,71)           109.2391                                         !
 ! A126  A(70,68,71)           107.7825                                         !
 ! A127  A(68,71,72)           116.484                                          !
 ! A128  A(68,71,79)           126.0285                                         !
 ! A129  A(72,71,79)           117.4187                                         !
 ! A130  A(74,73,75)           117.4271                                         !
 ! A131  A(74,73,79)           121.3265                                         !
 ! A132  A(75,73,79)           121.246                                          !
 ! A133  A(77,76,78)           117.2628                                         !
 ! A134  A(77,76,79)           121.2728                                         !
 ! A135  A(78,76,79)           121.4443                                         !
 ! A136  A(71,79,73)           120.5376                                         !
 ! A137  A(71,79,76)           120.2517                                         !
 ! A138  A(73,79,76)           119.2075                                         !
 ! A139  A(60,80,81)           107.2233                                         !
 ! D1    D(2,1,4,5)             55.1702                                         !
 ! D2    D(2,1,4,6)            -66.5721                                         !
 ! D3    D(2,1,4,7)            172.8917                                         !
 ! D4    D(3,1,4,5)            167.6045                                         !
 ! D5    D(3,1,4,6)             45.8622                                         !
 ! D6    D(3,1,4,7)            -74.674                                          !
 ! D7    D(1,4,6,10)           -23.9751                                         !
 ! D8    D(1,4,6,22)           158.5575                                         !
 ! D9    D(5,4,6,10)          -144.7465                                         !
 ! D10   D(5,4,6,22)            37.7861                                         !
 ! D11   D(7,4,6,10)            96.7706                                         !
 ! D12   D(7,4,6,22)           -80.6968                                         !
 ! D13   D(1,4,7,8)            -35.0664                                         !
 ! D14   D(1,4,7,9)             79.9721                                         !
 ! D15   D(1,4,7,11)          -155.9424                                         !
 ! D16   D(5,4,7,8)             82.7493                                         !
 ! D17   D(5,4,7,9)           -162.2122                                         !
 ! D18   D(5,4,7,11)           -38.1266                                         !
 ! D19   D(6,4,7,8)           -157.6178                                         !
 ! D20   D(6,4,7,9)            -42.5793                                         !
 ! D21   D(6,4,7,11)            81.5063                                         !
 ! D22   D(4,6,22,23)           14.1921                                         !
 ! D23   D(4,6,22,24)          165.3006                                         !
 ! D24   D(10,6,22,23)        -163.2348                                         !
 ! D25   D(10,6,22,24)         -12.1262                                         !
 ! D26   D(4,7,11,12)          -89.6754                                         !
 ! D27   D(4,7,11,14)           87.6131                                         !
 ! D28   D(8,7,11,12)          152.0731                                         !
 ! D29   D(8,7,11,14)          -30.6384                                         !
 ! D30   D(9,7,11,12)           33.3377                                         !
 ! D31   D(9,7,11,14)         -149.3738                                         !
 ! D32   D(7,11,12,13)          -1.0973                                         !
 ! D33   D(7,11,12,16)         176.7168                                         !
 ! D34   D(14,11,12,13)       -178.4527                                         !
 ! D35   D(14,11,12,16)         -0.6386                                         !
 ! D36   D(7,11,14,15)           2.6678                                         !
 ! D37   D(7,11,14,18)        -177.2803                                         !
 ! D38   D(12,11,14,15)       -179.9536                                         !
 ! D39   D(12,11,14,18)          0.0983                                         !
 ! D40   D(11,12,16,17)       -178.4089                                         !
 ! D41   D(11,12,16,20)          0.7152                                         !
 ! D42   D(13,12,16,17)         -0.6051                                         !
 ! D43   D(13,12,16,20)        178.519                                          !
 ! D44   D(11,14,18,19)       -179.8927                                         !
 ! D45   D(11,14,18,20)          0.363                                          !
 ! D46   D(15,14,18,19)          0.1594                                         !
 ! D47   D(15,14,18,20)       -179.5849                                         !
 ! D48   D(12,16,20,18)         -0.2383                                         !
 ! D49   D(12,16,20,21)       -179.9774                                         !
 ! D50   D(17,16,20,18)        178.8719                                         !
 ! D51   D(17,16,20,21)         -0.8672                                         !
 ! D52   D(14,18,20,16)         -0.2922                                         !
 ! D53   D(14,18,20,21)        179.4472                                         !
 ! D54   D(19,18,20,16)        179.9642                                         !
 ! D55   D(19,18,20,21)         -0.2964                                         !
 ! D56   D(6,22,24,25)          41.8525                                         !
 ! D57   D(6,22,24,26)         -77.252                                          !
 ! D58   D(6,22,24,27)         159.378                                          !
 ! D59   D(23,22,24,25)       -166.7895                                         !
 ! D60   D(23,22,24,26)         74.106                                          !
 ! D61   D(23,22,24,27)        -49.264                                          !
 ! D62   D(22,24,26,30)       -108.7658                                         !
 ! D63   D(22,24,26,33)         69.6423                                         !
 ! D64   D(25,24,26,30)        134.0905                                         !
 ! D65   D(25,24,26,33)        -47.5013                                         !
 ! D66   D(27,24,26,30)         13.1559                                         !
 ! D67   D(27,24,26,33)       -168.4359                                         !
 ! D68   D(22,24,27,28)        177.2753                                         !
 ! D69   D(22,24,27,29)         60.4671                                         !
 ! D70   D(22,24,27,31)        -64.4048                                         !
 ! D71   D(25,24,27,28)        -67.031                                          !
 ! D72   D(25,24,27,29)        176.1608                                         !
 ! D73   D(25,24,27,31)         51.289                                          !
 ! D74   D(26,24,27,28)         54.1203                                         !
 ! D75   D(26,24,27,29)        -62.6879                                         !
 ! D76   D(26,24,27,31)        172.4402                                         !
 ! D77   D(24,26,33,34)          0.6906                                         !
 ! D78   D(24,26,33,35)        178.7829                                         !
 ! D79   D(30,26,33,34)        179.0827                                         !
 ! D80   D(30,26,33,35)         -2.8251                                         !
 ! D81   D(24,27,31,32)         51.5752                                         !
 ! D82   D(28,27,31,32)        171.2942                                         !
 ! D83   D(29,27,31,32)        -71.5387                                         !
 ! D84   D(26,33,35,36)        -48.3535                                         !
 ! D85   D(26,33,35,37)       -166.5779                                         !
 ! D86   D(26,33,35,38)         70.3449                                         !
 ! D87   D(34,33,35,36)        129.797                                          !
 ! D88   D(34,33,35,37)         11.5726                                         !
 ! D89   D(34,33,35,38)       -111.5045                                         !
 ! D90   D(33,35,37,41)         -5.6192                                         !
 ! D91   D(33,35,37,44)        173.5644                                         !
 ! D92   D(36,35,37,41)       -123.8796                                         !
 ! D93   D(36,35,37,44)         55.3039                                         !
 ! D94   D(38,35,37,41)        118.6224                                         !
 ! D95   D(38,35,37,44)        -62.194                                          !
 ! D96   D(33,35,38,39)        -56.3489                                         !
 ! D97   D(33,35,38,40)       -172.6832                                         !
 ! D98   D(33,35,38,42)         66.5522                                         !
 ! D99   D(36,35,38,39)         63.7488                                         !
 ! D100  D(36,35,38,40)        -52.5855                                         !
 ! D101  D(36,35,38,42)       -173.3501                                         !
 ! D102  D(37,35,38,39)       -177.3198                                         !
 ! D103  D(37,35,38,40)         66.3459                                         !
 ! D104  D(37,35,38,42)        -54.4187                                         !
 ! D105  D(35,37,44,45)         11.44                                           !
 ! D106  D(35,37,44,46)        170.8662                                         !
 ! D107  D(41,37,44,45)       -169.3703                                         !
 ! D108  D(41,37,44,46)         -9.9441                                         !
 ! D109  D(35,38,42,43)       -130.7471                                         !
 ! D110  D(39,38,42,43)        -10.9717                                         !
 ! D111  D(40,38,42,43)        108.7409                                         !
 ! D112  D(37,44,46,47)        -39.3489                                         !
 ! D113  D(37,44,46,48)       -156.8494                                         !
 ! D114  D(37,44,46,49)         78.2567                                         !
 ! D115  D(45,44,46,47)        121.34                                           !
 ! D116  D(45,44,46,48)          3.8395                                         !
 ! D117  D(45,44,46,49)       -121.0545                                         !
 ! D118  D(44,46,48,52)          4.5576                                         !
 ! D119  D(44,46,48,56)       -177.2797                                         !
 ! D120  D(47,46,48,52)       -112.985                                          !
 ! D121  D(47,46,48,56)         65.1777                                         !
 ! D122  D(49,46,48,52)        128.071                                          !
 ! D123  D(49,46,48,56)        -53.7663                                         !
 ! D124  D(44,46,49,50)       -167.8769                                         !
 ! D125  D(44,46,49,51)        -51.6285                                         !
 ! D126  D(44,46,49,53)         71.4264                                         !
 ! D127  D(47,46,49,50)        -49.1466                                         !
 ! D128  D(47,46,49,51)         67.1018                                         !
 ! D129  D(47,46,49,53)       -169.8433                                         !
 ! D130  D(48,46,49,50)         70.825                                          !
 ! D131  D(48,46,49,51)       -172.9265                                         !
 ! D132  D(48,46,49,53)        -49.8717                                         !
 ! D133  D(46,48,56,57)         11.2447                                         !
 ! D134  D(46,48,56,58)        156.7718                                         !
 ! D135  D(52,48,56,57)       -170.5924                                         !
 ! D136  D(52,48,56,58)        -25.0652                                         !
 ! D137  D(46,49,53,54)         31.3588                                         !
 ! D138  D(46,49,53,55)       -150.5221                                         !
 ! D139  D(50,49,53,54)        -91.574                                          !
 ! D140  D(50,49,53,55)         86.5451                                         !
 ! D141  D(51,49,53,54)        152.9257                                         !
 ! D142  D(51,49,53,55)        -28.9552                                         !
 ! D143  D(49,53,55,82)       -178.2198                                         !
 ! D144  D(54,53,55,82)         -0.0613                                         !
 ! D145  D(48,56,58,59)        -17.9306                                         !
 ! D146  D(48,56,58,60)       -133.3593                                         !
 ! D147  D(48,56,58,61)        101.6324                                         !
 ! D148  D(57,56,58,59)        128.1654                                         !
 ! D149  D(57,56,58,60)         12.7367                                         !
 ! D150  D(57,56,58,61)       -112.2716                                         !
 ! D151  D(56,58,60,64)       -171.0585                                         !
 ! D152  D(56,58,60,80)          9.242                                          !
 ! D153  D(59,58,60,64)         72.6115                                         !
 ! D154  D(59,58,60,80)       -107.088                                          !
 ! D155  D(61,58,60,64)        -43.8418                                         !
 ! D156  D(61,58,60,80)        136.4588                                         !
 ! D157  D(56,58,61,62)        175.7551                                         !
 ! D158  D(56,58,61,63)         60.4744                                         !
 ! D159  D(56,58,61,65)        -61.5653                                         !
 ! D160  D(59,58,61,62)        -65.5545                                         !
 ! D161  D(59,58,61,63)        179.1648                                         !
 ! D162  D(59,58,61,65)         57.1251                                         !
 ! D163  D(60,58,61,62)         48.9614                                         !
 ! D164  D(60,58,61,63)        -66.3193                                         !
 ! D165  D(60,58,61,65)        171.641                                          !
 ! D166  D(58,60,80,81)        178.5382                                         !
 ! D167  D(64,60,80,81)         -1.1587                                         !
 ! D168  D(58,61,65,66)         65.2333                                         !
 ! D169  D(58,61,65,67)        -50.4185                                         !
 ! D170  D(58,61,65,68)       -174.1865                                         !
 ! D171  D(62,61,65,66)       -174.4674                                         !
 ! D172  D(62,61,65,67)         69.8808                                         !
 ! D173  D(62,61,65,68)        -53.8871                                         !
 ! D174  D(63,61,65,66)        -56.542                                          !
 ! D175  D(63,61,65,67)       -172.1938                                         !
 ! D176  D(63,61,65,68)         64.0383                                         !
 ! D177  D(61,65,68,69)       -174.1434                                         !
 ! D178  D(61,65,68,70)        -53.7356                                         !
 ! D179  D(61,65,68,71)         65.1888                                         !
 ! D180  D(66,65,68,69)        -52.313                                          !
 ! D181  D(66,65,68,70)         68.0947                                         !
 ! D182  D(66,65,68,71)       -172.9808                                         !
 ! D183  D(67,65,68,69)         61.6325                                         !
 ! D184  D(67,65,68,70)       -177.9597                                         !
 ! D185  D(67,65,68,71)        -59.0353                                         !
 ! D186  D(65,68,71,72)         23.0274                                         !
 ! D187  D(65,68,71,79)       -160.0827                                         !
 ! D188  D(69,68,71,72)        -98.3401                                         !
 ! D189  D(69,68,71,79)         78.5498                                         !
 ! D190  D(70,68,71,72)        143.6078                                         !
 ! D191  D(70,68,71,79)        -39.5023                                         !
 ! D192  D(68,71,79,73)        -11.1933                                         !
 ! D193  D(68,71,79,76)        168.1533                                         !
 ! D194  D(72,71,79,73)        165.6706                                         !
 ! D195  D(72,71,79,76)        -14.9827                                         !
 ! D196  D(74,73,79,71)        165.0916                                         !
 ! D197  D(74,73,79,76)        -14.2618                                         !
 ! D198  D(75,73,79,71)        -14.6704                                         !
 ! D199  D(75,73,79,76)        165.9762                                         !
 ! D200  D(77,76,79,71)        -15.0315                                         !
 ! D201  D(77,76,79,73)        164.3238                                         !
 ! D202  D(78,76,79,71)        163.2934                                         !
 ! D203  D(78,76,79,73)        -17.3513                                         !
 --------------------------------------------------------------------------------
 Symmetry turned off by external request.
 Stoichiometry    C25H39N8O10(1+)
 Framework group  C1[X(C25H39N8O10)]
 Deg. of freedom   240
 Full point group                 C1      NOp   1
                          Input orientation:                          
 ---------------------------------------------------------------------
 Center     Atomic      Atomic             Coordinates (Angstroms)
 Number     Number       Type             X           Y           Z
 ---------------------------------------------------------------------
      1          7           0       -2.108216   -4.320900   -2.944564
      2          1           0       -2.319705   -4.441107   -3.935189
      3          1           0       -1.132043   -4.019715   -2.928201
      4          6           0       -2.911434   -3.220991   -2.420711
      5          1           0       -3.966716   -3.430437   -2.633727
      6          6           0       -2.506519   -1.865463   -3.031983
      7          6           0       -2.729814   -3.147543   -0.870080
      8          1           0       -2.627142   -4.186064   -0.540472
      9          1           0       -1.784087   -2.635514   -0.650837
     10          8           0       -1.379677   -1.695702   -3.494852
     11          6           0       -3.878273   -2.483366   -0.141439
     12          6           0       -3.894080   -1.099379    0.090780
     13          1           0       -3.057052   -0.501452   -0.244601
     14          6           0       -4.988853   -3.233255    0.272562
     15          1           0       -4.998932   -4.307738    0.103918
     16          6           0       -4.983768   -0.475205    0.702787
     17          1           0       -4.970501    0.602361    0.842244
     18          6           0       -6.076327   -2.618031    0.894643
     19          1           0       -6.925995   -3.218128    1.209129
     20          6           0       -6.080018   -1.236674    1.109662
     21          1           0       -6.932155   -0.760276    1.586078
     22          7           0       -3.435162   -0.860833   -2.983706
     23          1           0       -4.226740   -1.000252   -2.363945
     24          6           0       -3.058920    0.538724   -3.237356
     25          1           0       -2.370106    0.521826   -4.086447
     26          6           0       -2.352315    1.156955   -2.012246
     27          6           0       -4.310436    1.329683   -3.622177
     28          1           0       -4.047849    2.380190   -3.765012
     29          1           0       -5.035906    1.290403   -2.793326
     30          8           0       -2.891891    2.008258   -1.304098
     31          8           0       -4.859073    0.867063   -4.842762
     32          1           0       -4.963506   -0.095184   -4.764636
     33          7           0       -1.112977    0.664050   -1.763511
     34          1           0       -0.707363   -0.050727   -2.366875
     35          6           0       -0.301518    1.151778   -0.668879
     36          1           0       -0.292978    2.250981   -0.687305
     37          6           0        1.126989    0.633754   -0.888913
     38          6           0       -0.838727    0.734560    0.714974
     39          1           0       -1.870490    1.091782    0.786608
     40          1           0       -0.258216    1.242033    1.501287
     41          8           0        1.416961   -0.144010   -1.790838
     42          8           0       -0.735786   -0.674706    0.872742
     43          1           0       -1.587784   -1.012843    1.184951
     44          7           0        2.061853    1.112223   -0.019954
     45          1           0        1.800290    1.624458    0.814529
     46          6           0        3.394087    0.546138   -0.005737
     47          1           0        3.318081   -0.541990   -0.139574
     48          6           0        3.997552    0.832097    1.376533
     49          6           0        4.245576    1.084701   -1.175269
     50          1           0        5.171325    0.504958   -1.294546
     51          1           0        3.680946    0.948444   -2.099599
     52          8           0        3.352696    1.366368    2.272022
     53          6           0        4.642289    2.535670   -0.994026
     54          8           0        4.841112    3.075964    0.075904
     55          8           0        4.791738    3.161601   -2.175411
     56          7           0        5.290725    0.416455    1.557785
     57          1           0        5.798767    0.120926    0.735392
     58          6           0        6.091128    1.068689    2.585658
     59          1           0        5.592165    2.017022    2.826203
     60          6           0        7.483711    1.455654    2.091916
     61          6           0        6.219187    0.243084    3.879002
     62          1           0        6.897547    0.788679    4.544601
     63          1           0        6.703674   -0.715257    3.649303
     64          8           0        8.353017    1.862154    2.828023
     65          6           0        4.865093   -0.011213    4.550169
     66          1           0        4.240264   -0.639633    3.909149
     67          1           0        4.304428    0.924828    4.662359
     68          6           0        4.996031   -0.706699    5.905562
     69          1           0        4.005470   -0.962378    6.301550
     70          1           0        5.586279   -1.625622    5.810313
     71          7           0        5.690558    0.178765    6.864821
     72          1           0        5.657903    1.172093    6.668034
     73          7           0        6.138404   -1.449541    8.455474
     74          1           0        6.752610   -1.826716    9.163376
     75          1           0        5.400253   -2.047757    8.113365
     76          7           0        7.094635    0.651126    8.649807
     77          1           0        7.426902    1.502319    8.218149
     78          1           0        7.364298    0.482732    9.608803
     79          6           0        6.299257   -0.204434    7.984360
     80          8           0        7.641391    1.304698    0.758922
     81          1           0        8.546977    1.597238    0.539913
     82          1           0        5.073382    4.077093   -1.984785
 ---------------------------------------------------------------------
 Rotational constants (GHZ):           0.1071574           0.0297909           0.0256145
 Standard basis: 6-31G(d) (6D, 7F)
   723 basis functions,  1360 primitive gaussians,   723 cartesian basis functions
   162 alpha electrons      162 beta electrons
       nuclear repulsion energy      5301.5459381266 Hartrees.
 NAtoms=   82 NActive=   82 NUniq=   82 SFac= 1.00D+00 NAtFMM=   60 NAOKFM=T Big=T
 Integral buffers will be    131072 words long.
 Raffenetti 2 integral format.
 Two-electron integral symmetry is turned off.
 Nuclear repulsion after empirical dispersion term =     5301.4368314303 Hartrees.
 One-electron integrals computed using PRISM.
 NBasis=   723 RedAO= T EigKep=  4.37D-04  NBF=   723
 NBsUse=   723 1.00D-06 EigRej= -1.00D+00 NBFU=   723
 Initial guess from the checkpoint file:  "conf-641.chk"
 B after Tr=     0.000000    0.000000    0.000000
         Rot=    1.000000    0.000000    0.000000    0.000000 Ang=   0.00 deg.
 Requested convergence on RMS density matrix=1.00D-08 within 128 cycles.
 Requested convergence on MAX density matrix=1.00D-06.
 Requested convergence on             energy=1.00D-06.
 No special actions if energy rises.
 SCF Done:  E(RB3LYP) =  -2166.36460073     A.U. after    1 cycles
            NFock=  1  Conv=0.56D-08     -V/T= 2.0092

 **********************************************************************

            Population analysis using the SCF Density.

 **********************************************************************

 Alpha  occ. eigenvalues --  -19.30287 -19.27330 -19.24078 -19.21904 -19.21558
 Alpha  occ. eigenvalues --  -19.20870 -19.18490 -19.18137 -19.17190 -19.16536
 Alpha  occ. eigenvalues --  -14.55075 -14.54833 -14.54794 -14.45497 -14.42824
 Alpha  occ. eigenvalues --  -14.41742 -14.40368 -14.35756 -10.51282 -10.42517
 Alpha  occ. eigenvalues --  -10.40133 -10.38516 -10.37909 -10.35559 -10.34299
 Alpha  occ. eigenvalues --  -10.33692 -10.33541 -10.32323 -10.31344 -10.30548
 Alpha  occ. eigenvalues --  -10.29737 -10.29360 -10.28418 -10.27829 -10.27471
 Alpha  occ. eigenvalues --  -10.27319 -10.25213 -10.24385 -10.24348 -10.24163
 Alpha  occ. eigenvalues --  -10.24135 -10.24082 -10.24039  -1.20969  -1.19672
 Alpha  occ. eigenvalues --   -1.18351  -1.13621  -1.11954  -1.10700  -1.09334
 Alpha  occ. eigenvalues --   -1.09215  -1.08829  -1.08298  -1.07855  -1.07834
 Alpha  occ. eigenvalues --   -1.05692  -1.02605  -0.99815  -0.97812  -0.96916
 Alpha  occ. eigenvalues --   -0.93432  -0.93147  -0.90748  -0.88628  -0.86391
 Alpha  occ. eigenvalues --   -0.83253  -0.82705  -0.82555  -0.80605  -0.80023
 Alpha  occ. eigenvalues --   -0.79704  -0.77388  -0.77014  -0.76082  -0.74864
 Alpha  occ. eigenvalues --   -0.72459  -0.71754  -0.70477  -0.70018  -0.69104
 Alpha  occ. eigenvalues --   -0.68607  -0.68563  -0.67904  -0.66501  -0.65890
 Alpha  occ. eigenvalues --   -0.65069  -0.64387  -0.63771  -0.63033  -0.62785
 Alpha  occ. eigenvalues --   -0.62725  -0.61561  -0.60517  -0.58756  -0.58441
 Alpha  occ. eigenvalues --   -0.57933  -0.57779  -0.57602  -0.57141  -0.56678
 Alpha  occ. eigenvalues --   -0.56411  -0.55999  -0.54827  -0.54522  -0.54363
 Alpha  occ. eigenvalues --   -0.54098  -0.53800  -0.53308  -0.52706  -0.52422
 Alpha  occ. eigenvalues --   -0.51928  -0.51673  -0.50932  -0.50565  -0.50231
 Alpha  occ. eigenvalues --   -0.50138  -0.49887  -0.49101  -0.48708  -0.48376
 Alpha  occ. eigenvalues --   -0.48193  -0.47496  -0.47100  -0.47068  -0.46696
 Alpha  occ. eigenvalues --   -0.46501  -0.46353  -0.46092  -0.45980  -0.45844
 Alpha  occ. eigenvalues --   -0.45301  -0.45049  -0.44460  -0.44115  -0.43948
 Alpha  occ. eigenvalues --   -0.43389  -0.42796  -0.42114  -0.41992  -0.41740
 Alpha  occ. eigenvalues --   -0.40901  -0.40172  -0.39603  -0.39472  -0.38960
 Alpha  occ. eigenvalues --   -0.38834  -0.38417  -0.37239  -0.35882  -0.35483
 Alpha  occ. eigenvalues --   -0.35042  -0.33741  -0.33442  -0.32977  -0.32220
 Alpha  occ. eigenvalues --   -0.31551  -0.30935  -0.30436  -0.30299  -0.29965
 Alpha  occ. eigenvalues --   -0.28697  -0.28314
 Alpha virt. eigenvalues --   -0.15159  -0.10855  -0.09268  -0.07752  -0.07229
 Alpha virt. eigenvalues --   -0.06604  -0.06272  -0.06124  -0.05799  -0.05459
 Alpha virt. eigenvalues --   -0.04623  -0.04029  -0.02837  -0.02356  -0.02246
 Alpha virt. eigenvalues --   -0.00764   0.00728   0.00799   0.01167   0.01904
 Alpha virt. eigenvalues --    0.02435   0.03195   0.03607   0.03854   0.04155
 Alpha virt. eigenvalues --    0.04890   0.04947   0.05221   0.06164   0.06461
 Alpha virt. eigenvalues --    0.06776   0.07221   0.07389   0.07795   0.08427
 Alpha virt. eigenvalues --    0.08776   0.09325   0.09628   0.09900   0.10000
 Alpha virt. eigenvalues --    0.10454   0.10682   0.10877   0.10930   0.11675
 Alpha virt. eigenvalues --    0.11810   0.11949   0.12678   0.12999   0.13359
 Alpha virt. eigenvalues --    0.13663   0.13989   0.14407   0.14591   0.14683
 Alpha virt. eigenvalues --    0.14962   0.15137   0.15850   0.16207   0.16677
 Alpha virt. eigenvalues --    0.17241   0.17627   0.18507   0.18877   0.19095
 Alpha virt. eigenvalues --    0.19789   0.20495   0.20659   0.21100   0.21452
 Alpha virt. eigenvalues --    0.21983   0.22465   0.22655   0.23715   0.24581
 Alpha virt. eigenvalues --    0.25868   0.26248   0.27371   0.27680   0.27906
 Alpha virt. eigenvalues --    0.28645   0.28884   0.29567   0.29703   0.30365
 Alpha virt. eigenvalues --    0.32288   0.33077   0.34516   0.36231   0.36809
 Alpha virt. eigenvalues --    0.37206   0.37872   0.39262   0.39388   0.40658
 Alpha virt. eigenvalues --    0.41086   0.41275   0.42775   0.43879   0.44397
 Alpha virt. eigenvalues --    0.44944   0.46101   0.46262   0.47003   0.47272
 Alpha virt. eigenvalues --    0.47689   0.47945   0.48315   0.48728   0.48986
 Alpha virt. eigenvalues --    0.49034   0.49405   0.49859   0.49987   0.50255
 Alpha virt. eigenvalues --    0.50906   0.51486   0.51775   0.52267   0.52833
 Alpha virt. eigenvalues --    0.52975   0.53136   0.53457   0.53590   0.54269
 Alpha virt. eigenvalues --    0.54553   0.55153   0.55255   0.55571   0.55977
 Alpha virt. eigenvalues --    0.56502   0.56655   0.56748   0.56908   0.57185
 Alpha virt. eigenvalues --    0.57321   0.57616   0.58751   0.59289   0.59545
 Alpha virt. eigenvalues --    0.59875   0.60242   0.60850   0.61077   0.61653
 Alpha virt. eigenvalues --    0.62282   0.62989   0.63226   0.63714   0.63921
 Alpha virt. eigenvalues --    0.64234   0.64974   0.65730   0.66517   0.66695
 Alpha virt. eigenvalues --    0.67162   0.67265   0.67510   0.68514   0.68617
 Alpha virt. eigenvalues --    0.68985   0.69433   0.69525   0.70207   0.70378
 Alpha virt. eigenvalues --    0.70430   0.70637   0.71486   0.72369   0.72638
 Alpha virt. eigenvalues --    0.73254   0.73699   0.73772   0.74477   0.74857
 Alpha virt. eigenvalues --    0.75074   0.75261   0.75395   0.75719   0.76095
 Alpha virt. eigenvalues --    0.76616   0.76757   0.77091   0.77266   0.77619
 Alpha virt. eigenvalues --    0.78061   0.78551   0.79047   0.79326   0.79836
 Alpha virt. eigenvalues --    0.79874   0.80201   0.80491   0.80985   0.81245
 Alpha virt. eigenvalues --    0.81586   0.82462   0.82744   0.82837   0.83144
 Alpha virt. eigenvalues --    0.83664   0.84030   0.84573   0.84846   0.85588
 Alpha virt. eigenvalues --    0.85993   0.86381   0.86794   0.86962   0.87156
 Alpha virt. eigenvalues --    0.87751   0.87869   0.88006   0.88377   0.88595
 Alpha virt. eigenvalues --    0.89068   0.89668   0.89783   0.90399   0.91074
 Alpha virt. eigenvalues --    0.91230   0.91620   0.92582   0.92611   0.93527
 Alpha virt. eigenvalues --    0.93987   0.94243   0.94735   0.95419   0.95790
 Alpha virt. eigenvalues --    0.96522   0.97619   0.98082   0.98377   0.99119
 Alpha virt. eigenvalues --    0.99345   1.00100   1.00543   1.00684   1.01283
 Alpha virt. eigenvalues --    1.02220   1.02581   1.03301   1.03320   1.03884
 Alpha virt. eigenvalues --    1.05255   1.06310   1.06896   1.07642   1.08298
 Alpha virt. eigenvalues --    1.08697   1.09360   1.10298   1.11128   1.11555
 Alpha virt. eigenvalues --    1.12502   1.13045   1.13550   1.14131   1.14649
 Alpha virt. eigenvalues --    1.14964   1.15539   1.16435   1.16771   1.17215
 Alpha virt. eigenvalues --    1.18588   1.19349   1.20812   1.21131   1.21572
 Alpha virt. eigenvalues --    1.22439   1.22797   1.23855   1.25678   1.27052
 Alpha virt. eigenvalues --    1.28140   1.29452   1.29652   1.31165   1.31796
 Alpha virt. eigenvalues --    1.32933   1.33470   1.34637   1.35029   1.35941
 Alpha virt. eigenvalues --    1.36463   1.37142   1.37703   1.38116   1.38569
 Alpha virt. eigenvalues --    1.39149   1.39811   1.39994   1.40568   1.42392
 Alpha virt. eigenvalues --    1.42635   1.43214   1.43263   1.43900   1.44175
 Alpha virt. eigenvalues --    1.44962   1.45243   1.46016   1.46536   1.46901
 Alpha virt. eigenvalues --    1.47018   1.47290   1.48437   1.48776   1.49377
 Alpha virt. eigenvalues --    1.50240   1.51654   1.52065   1.52366   1.53630
 Alpha virt. eigenvalues --    1.55602   1.56331   1.57322   1.57780   1.58124
 Alpha virt. eigenvalues --    1.60627   1.61079   1.61917   1.62443   1.62717
 Alpha virt. eigenvalues --    1.63841   1.64591   1.65316   1.65411   1.66229
 Alpha virt. eigenvalues --    1.66557   1.67309   1.67649   1.68148   1.68812
 Alpha virt. eigenvalues --    1.68910   1.69540   1.69974   1.70341   1.70660
 Alpha virt. eigenvalues --    1.71738   1.72620   1.72830   1.73149   1.74532
 Alpha virt. eigenvalues --    1.74934   1.75304   1.75781   1.76146   1.77283
 Alpha virt. eigenvalues --    1.77893   1.78439   1.78695   1.78703   1.79248
 Alpha virt. eigenvalues --    1.79656   1.79775   1.79882   1.80240   1.81056
 Alpha virt. eigenvalues --    1.81505   1.82229   1.83003   1.83574   1.84080
 Alpha virt. eigenvalues --    1.84464   1.84855   1.84963   1.85778   1.86333
 Alpha virt. eigenvalues --    1.86622   1.87848   1.87955   1.88468   1.89355
 Alpha virt. eigenvalues --    1.90187   1.90428   1.91204   1.91460   1.92789
 Alpha virt. eigenvalues --    1.93196   1.93448   1.93618   1.93759   1.94275
 Alpha virt. eigenvalues --    1.94591   1.94929   1.96377   1.96778   1.97478
 Alpha virt. eigenvalues --    1.98340   1.98751   2.00127   2.00419   2.00744
 Alpha virt. eigenvalues --    2.01523   2.01628   2.02088   2.02781   2.03568
 Alpha virt. eigenvalues --    2.04311   2.04681   2.05176   2.06551   2.07316
 Alpha virt. eigenvalues --    2.07669   2.08292   2.09239   2.09560   2.09663
 Alpha virt. eigenvalues --    2.10002   2.10453   2.11412   2.11987   2.13444
 Alpha virt. eigenvalues --    2.14279   2.14731   2.16624   2.17402   2.18681
 Alpha virt. eigenvalues --    2.18999   2.19533   2.20194   2.21859   2.22607
 Alpha virt. eigenvalues --    2.23137   2.23716   2.24732   2.25047   2.26040
 Alpha virt. eigenvalues --    2.26967   2.28210   2.28272   2.28995   2.29609
 Alpha virt. eigenvalues --    2.30004   2.31147   2.32090   2.32526   2.33113
 Alpha virt. eigenvalues --    2.33610   2.33990   2.35428   2.36404   2.36466
 Alpha virt. eigenvalues --    2.37397   2.37571   2.37830   2.39011   2.39022
 Alpha virt. eigenvalues --    2.40666   2.41666   2.41984   2.42270   2.43476
 Alpha virt. eigenvalues --    2.43913   2.44525   2.45819   2.46508   2.47078
 Alpha virt. eigenvalues --    2.47929   2.49094   2.50201   2.51552   2.52489
 Alpha virt. eigenvalues --    2.53108   2.54290   2.54663   2.54974   2.55494
 Alpha virt. eigenvalues --    2.55830   2.56795   2.58105   2.59675   2.60655
 Alpha virt. eigenvalues --    2.61371   2.61724   2.62219   2.63496   2.64150
 Alpha virt. eigenvalues --    2.65151   2.65936   2.66058   2.66539   2.67479
 Alpha virt. eigenvalues --    2.69483   2.70150   2.70774   2.72324   2.73259
 Alpha virt. eigenvalues --    2.74267   2.77190   2.78106   2.79963   2.80355
 Alpha virt. eigenvalues --    2.82464   2.84175   2.84207   2.86803   2.87547
 Alpha virt. eigenvalues --    2.87908   2.89711   2.90353   2.91792   2.92520
 Alpha virt. eigenvalues --    2.93217   2.94788   2.95463   2.97680   2.98656
 Alpha virt. eigenvalues --    3.00947   3.01574   3.02747   3.06378   3.09056
 Alpha virt. eigenvalues --    3.12340   3.16274   3.35520   3.61509   3.67127
 Alpha virt. eigenvalues --    3.72900   3.74628   3.75471   3.76226   3.78092
 Alpha virt. eigenvalues --    3.83083   3.91601   3.97360   3.98560   4.01178
 Alpha virt. eigenvalues --    4.04022   4.04307   4.04864   4.06601   4.08308
 Alpha virt. eigenvalues --    4.09745   4.10382   4.13652   4.15347   4.16386
 Alpha virt. eigenvalues --    4.17077   4.20016   4.24713   4.26427   4.26607
 Alpha virt. eigenvalues --    4.29668   4.33386   4.34382   4.34647   4.36095
 Alpha virt. eigenvalues --    4.39635   4.41711   4.43175   4.46748   4.48907
 Alpha virt. eigenvalues --    4.54871   4.57214   4.58405   4.60163   4.62095
 Alpha virt. eigenvalues --    4.68141
          Condensed to atoms (all electrons):
 Mulliken charges:
               1
     1  N   -0.694945
     2  H    0.306042
     3  H    0.315604
     4  C   -0.073952
     5  H    0.149434
     6  C    0.588594
     7  C   -0.371438
     8  H    0.175731
     9  H    0.169542
    10  O   -0.526644
    11  C    0.147389
    12  C   -0.269125
    13  H    0.169060
    14  C   -0.183348
    15  H    0.140624
    16  C   -0.142889
    17  H    0.154776
    18  C   -0.124522
    19  H    0.143006
    20  C   -0.133199
    21  H    0.142764
    22  N   -0.617505
    23  H    0.343445
    24  C   -0.094386
    25  H    0.197130
    26  C    0.614973
    27  C   -0.028382
    28  H    0.171179
    29  H    0.136290
    30  O   -0.545370
    31  O   -0.614164
    32  H    0.394417
    33  N   -0.637462
    34  H    0.399869
    35  C   -0.035956
    36  H    0.178946
    37  C    0.627333
    38  C   -0.070290
    39  H    0.183105
    40  H    0.128557
    41  O   -0.517216
    42  O   -0.622054
    43  H    0.412546
    44  N   -0.627311
    45  H    0.360870
    46  C   -0.047267
    47  H    0.199660
    48  C    0.634500
    49  C   -0.385139
    50  H    0.177463
    51  H    0.235423
    52  O   -0.534172
    53  C    0.603063
    54  O   -0.474003
    55  O   -0.550318
    56  N   -0.614497
    57  H    0.353690
    58  C   -0.053887
    59  H    0.219999
    60  C    0.602880
    61  C   -0.263805
    62  H    0.151827
    63  H    0.155225
    64  O   -0.457611
    65  C   -0.315177
    66  H    0.199155
    67  H    0.185284
    68  C   -0.158368
    69  H    0.193925
    70  H    0.183818
    71  N   -0.595628
    72  H    0.371214
    73  N   -0.752924
    74  H    0.389932
    75  H    0.396893
    76  N   -0.760468
    77  H    0.391205
    78  H    0.388989
    79  C    0.833113
    80  O   -0.576585
    81  H    0.432046
    82  H    0.419479
 Sum of Mulliken charges =   1.00000
 Mulliken charges with hydrogens summed into heavy atoms:
               1
     1  N   -0.073299
     4  C    0.075482
     6  C    0.588594
     7  C   -0.026165
    10  O   -0.526644
    11  C    0.147389
    12  C   -0.100064
    14  C   -0.042724
    16  C    0.011886
    18  C    0.018484
    20  C    0.009565
    22  N   -0.274060
    24  C    0.102745
    26  C    0.614973
    27  C    0.279086
    30  O   -0.545370
    31  O   -0.219746
    33  N   -0.237593
    35  C    0.142990
    37  C    0.627333
    38  C    0.241373
    41  O   -0.517216
    42  O   -0.209508
    44  N   -0.266441
    46  C    0.152393
    48  C    0.634500
    49  C    0.027747
    52  O   -0.534172
    53  C    0.603063
    54  O   -0.474003
    55  O   -0.130839
    56  N   -0.260807
    58  C    0.166112
    60  C    0.602880
    61  C    0.043247
    64  O   -0.457611
    65  C    0.069262
    68  C    0.219376
    71  N   -0.224414
    73  N    0.033900
    76  N    0.019725
    79  C    0.833113
    80  O   -0.144539
 Electronic spatial extent (au):  <R**2>=          41906.2425
 Charge=              1.0000 electrons
 Dipole moment (field-independent basis, Debye):
    X=             29.2875    Y=             -2.0885    Z=             34.1024  Tot=             45.0010
 Quadrupole moment (field-independent basis, Debye-Ang):
   XX=            -24.8980   YY=           -235.4222   ZZ=             22.4167
   XY=             14.8110   XZ=            198.0592   YZ=            -16.2389
 Traceless Quadrupole moment (field-independent basis, Debye-Ang):
   XX=             54.4031   YY=           -156.1210   ZZ=            101.7179
   XY=             14.8110   XZ=            198.0592   YZ=            -16.2389
 Octapole moment (field-independent basis, Debye-Ang**2):
  XXX=            524.5619  YYY=             62.3709  ZZZ=           2059.8146  XYY=           -151.3071
  XXY=            -80.5377  XXZ=           1213.5425  XZZ=           1632.4565  YZZ=           -143.8047
  YYZ=            -83.0801  XYZ=           -153.1771
 Hexadecapole moment (field-independent basis, Debye-Ang**3):
 XXXX=         -21273.3926 YYYY=          -4786.1327 ZZZZ=           3841.5800 XXXY=          -2159.8352
 XXXZ=            803.5292 YYYX=          -2642.6606 YYYZ=           -488.1363 ZZZX=           8900.1095
 ZZZY=           -949.9877 XXYY=          -5279.1438 XXZZ=           4184.5856 YYZZ=          -2775.2492
 XXYZ=           -445.8129 YYXZ=          -2095.1153 ZZXY=          -1255.5250
 N-N= 5.301436831430D+03 E-N=-1.563337337806D+04  KE= 2.146586530094D+03
 Unable to Open any file for archive entry.
 1\1\GINC-AMR-180\SP\RB3LYP\6-31G(d)\C25H39N8O10(1+)\KENGMITH\15-May-20
 22\0\\# B3LYP/6-31G* empiricaldispersion=gd3 guess=read geom=check nos
 ymm integral(ultrafinegrid)\\Candidate Structure: Conf:641 Charge calc
  in gas phase\\1,1\N,0,-2.1082156011,-4.320900279,-2.9445638876\H,0,-2
 .3197049504,-4.4411074775,-3.9351888582\H,0,-1.1320429813,-4.019715428
 ,-2.9282009087\C,0,-2.9114344528,-3.2209905565,-2.4207113494\H,0,-3.96
 67155069,-3.4304366103,-2.633727097\C,0,-2.5065192334,-1.8654625495,-3
 .0319827355\C,0,-2.7298140603,-3.1475433675,-0.8700804718\H,0,-2.62714
 21456,-4.1860639175,-0.5404716402\H,0,-1.7840869079,-2.6355139919,-0.6
 508367874\O,0,-1.3796773803,-1.6957023814,-3.4948516973\C,0,-3.8782734
 775,-2.4833657569,-0.1414391137\C,0,-3.8940803796,-1.0993786994,0.0907
 799697\H,0,-3.0570520717,-0.5014516618,-0.2446013535\C,0,-4.988852788,
 -3.2332547926,0.2725621251\H,0,-4.9989316221,-4.3077382157,0.103917808
 5\C,0,-4.9837683008,-0.4752045924,0.7027865001\H,0,-4.9705010111,0.602
 3607803,0.8422437137\C,0,-6.0763265717,-2.618030648,0.8946434762\H,0,-
 6.9259949109,-3.2181283984,1.2091286452\C,0,-6.0800177581,-1.236673792
 5,1.109661626\H,0,-6.9321545631,-0.7602756259,1.5860779382\N,0,-3.4351
 621722,-0.8608327758,-2.9837058241\H,0,-4.2267395237,-1.0002524342,-2.
 3639445228\C,0,-3.0589195668,0.5387235658,-3.2373556198\H,0,-2.3701056
 956,0.5218259583,-4.0864472502\C,0,-2.3523150425,1.1569548997,-2.01224
 59429\C,0,-4.3104356884,1.3296830522,-3.6221771018\H,0,-4.0478494377,2
 .3801904034,-3.7650123288\H,0,-5.0359061473,1.2904025305,-2.7933259692
 \O,0,-2.8918909498,2.008257986,-1.3040975875\O,0,-4.859072888,0.867062
 8432,-4.8427622197\H,0,-4.9635060246,-0.095184343,-4.7646355572\N,0,-1
 .1129769329,0.6640495964,-1.7635113212\H,0,-0.7073627452,-0.0507265976
 ,-2.3668745167\C,0,-0.301517589,1.1517781531,-0.6688785838\H,0,-0.2929
 779456,2.250981279,-0.6873046197\C,0,1.1269889875,0.6337543375,-0.8889
 134241\C,0,-0.8387266878,0.7345595698,0.714974192\H,0,-1.8704897978,1.
 0917815623,0.7866081502\H,0,-0.2582160795,1.2420327213,1.5012866624\O,
 0,1.4169607179,-0.1440097466,-1.7908380771\O,0,-0.7357857702,-0.674705
 8258,0.8727422044\H,0,-1.5877839649,-1.0128432916,1.1849506321\N,0,2.0
 618526015,1.1122228219,-0.019953994\H,0,1.800289593,1.6244578313,0.814
 5293911\C,0,3.394086624,0.5461378102,-0.0057365093\H,0,3.3180811655,-0
 .541990069,-0.1395737596\C,0,3.9975519074,0.8320973877,1.3765334948\C,
 0,4.2455761669,1.0847010192,-1.1752690215\H,0,5.1713246512,0.504957513
 1,-1.2945458121\H,0,3.6809463198,0.9484437882,-2.0995985035\O,0,3.3526
 955882,1.366367812,2.2720221696\C,0,4.6422890938,2.5356698106,-0.99402
 56745\O,0,4.8411117516,3.0759641992,0.0759042261\O,0,4.7917379792,3.16
 16010077,-2.1754111168\N,0,5.2907250436,0.4164552517,1.557784944\H,0,5
 .7987668996,0.1209259686,0.7353922694\C,0,6.0911279044,1.0686886133,2.
 5856577277\H,0,5.59216487,2.0170223014,2.8262030533\C,0,7.4837106059,1
 .4556540951,2.0919158342\C,0,6.2191873289,0.2430838496,3.8790020493\H,
 0,6.8975467726,0.7886788574,4.5446012363\H,0,6.7036741628,-0.715256850
 7,3.6493033315\O,0,8.3530167753,1.8621539491,2.8280232297\C,0,4.865092
 8565,-0.011212582,4.5501688701\H,0,4.2402639359,-0.639633206,3.9091485
 361\H,0,4.3044276916,0.9248277389,4.6623585343\C,0,4.9960309525,-0.706
 6992105,5.9055616506\H,0,4.0054702919,-0.9623783296,6.3015503244\H,0,5
 .58627942,-1.6256216659,5.8103134384\N,0,5.6905579992,0.1787645308,6.8
 648208226\H,0,5.6579031982,1.1720925494,6.6680336535\N,0,6.1384040138,
 -1.4495411672,8.4554739183\H,0,6.7526100979,-1.8267161786,9.1633757955
 \H,0,5.4002525506,-2.0477566333,8.1133648774\N,0,7.0946348235,0.651126
 3693,8.649806528\H,0,7.426902297,1.5023185755,8.2181486351\H,0,7.36429
 83423,0.4827318461,9.6088032105\C,0,6.2992566689,-0.2044342976,7.98435
 97679\O,0,7.6413908636,1.3046980831,0.7589217707\H,0,8.5469767978,1.59
 72376939,0.5399132361\H,0,5.0733818527,4.0770926346,-1.9847850321\\Ver
 sion=ES64L-G16RevC.01\HF=-2166.3646007\RMSD=5.570e-09\Dipole=9.3855845
 ,-0.8738261,12.2868518\Quadrupole=40.4474021,-116.0721336,75.6247315,1
 1.0116321,147.2521358,-12.0732366\PG=C01 [X(C25H39N8O10)]\\@
 The archive entry for this job was punched.


 FROM THE ASHES OF OUR DESPAIR GROW THE FLOWERS OF TOMORROW.
 Job cpu time:       0 days  0 hours  1 minutes 32.1 seconds.
 Elapsed time:       0 days  0 hours  0 minutes 23.6 seconds.
 File lengths (MBytes):  RWF=    384 Int=      0 D2E=      0 Chk=     56 Scr=     16
 Normal termination of Gaussian 16 at Sun May 15 23:40:55 2022.
