 Entering Gaussian System, Link 0=/opt/software/Gaussian/g16-AVX2-C.01/g16/g16
 Input=charge-conf-684.com
 Output=charge-conf-684.log
 Initial command:
 /opt/software/Gaussian/g16-AVX2-C.01/g16/l1.exe "/mnt/gs18/scratch/users/kengmith/Gau-24740.inp" -scrdir="/mnt/gs18/scratch/users/kengmith/"
 Entering Link 1 = /opt/software/Gaussian/g16-AVX2-C.01/g16/l1.exe PID=     24750.
  
 Copyright (c) 1988-2019, Gaussian, Inc.  All Rights Reserved.
  
 This is part of the Gaussian(R) 16 program.  It is based on
 the Gaussian(R) 09 system (copyright 2009, Gaussian, Inc.),
 the Gaussian(R) 03 system (copyright 2003, Gaussian, Inc.),
 the Gaussian(R) 98 system (copyright 1998, Gaussian, Inc.),
 the Gaussian(R) 94 system (copyright 1995, Gaussian, Inc.),
 the Gaussian 92(TM) system (copyright 1992, Gaussian, Inc.),
 the Gaussian 90(TM) system (copyright 1990, Gaussian, Inc.),
 the Gaussian 88(TM) system (copyright 1988, Gaussian, Inc.),
 the Gaussian 86(TM) system (copyright 1986, Carnegie Mellon
 University), and the Gaussian 82(TM) system (copyright 1983,
 Carnegie Mellon University). Gaussian is a federally registered
 trademark of Gaussian, Inc.
  
 This software contains proprietary and confidential information,
 including trade secrets, belonging to Gaussian, Inc.
  
 This software is provided under written license and may be
 used, copied, transmitted, or stored only in accord with that
 written license.
  
 The following legend is applicable only to US Government
 contracts under FAR:
  
                    RESTRICTED RIGHTS LEGEND
  
 Use, reproduction and disclosure by the US Government is
 subject to restrictions as set forth in subparagraphs (a)
 and (c) of the Commercial Computer Software - Restricted
 Rights clause in FAR 52.227-19.
  
 Gaussian, Inc.
 340 Quinnipiac St., Bldg. 40, Wallingford CT 06492
  
  
 ---------------------------------------------------------------
 Warning -- This program may not be used in any manner that
 competes with the business of Gaussian, Inc. or will provide
 assistance to any competitor of Gaussian, Inc.  The licensee
 of this program is prohibited from giving any competitor of
 Gaussian, Inc. access to this program.  By using this program,
 the user acknowledges that Gaussian, Inc. is engaged in the
 business of creating and licensing software in the field of
 computational chemistry and represents and warrants to the
 licensee that it is not a competitor of Gaussian, Inc. and that
 it will not use this program in any manner prohibited above.
 ---------------------------------------------------------------
  

 Cite this work as:
 Gaussian 16, Revision C.01,
 M. J. Frisch, G. W. Trucks, H. B. Schlegel, G. E. Scuseria, 
 M. A. Robb, J. R. Cheeseman, G. Scalmani, V. Barone, 
 G. A. Petersson, H. Nakatsuji, X. Li, M. Caricato, A. V. Marenich, 
 J. Bloino, B. G. Janesko, R. Gomperts, B. Mennucci, H. P. Hratchian, 
 J. V. Ortiz, A. F. Izmaylov, J. L. Sonnenberg, D. Williams-Young, 
 F. Ding, F. Lipparini, F. Egidi, J. Goings, B. Peng, A. Petrone, 
 T. Henderson, D. Ranasinghe, V. G. Zakrzewski, J. Gao, N. Rega, 
 G. Zheng, W. Liang, M. Hada, M. Ehara, K. Toyota, R. Fukuda, 
 J. Hasegawa, M. Ishida, T. Nakajima, Y. Honda, O. Kitao, H. Nakai, 
 T. Vreven, K. Throssell, J. A. Montgomery, Jr., J. E. Peralta, 
 F. Ogliaro, M. J. Bearpark, J. J. Heyd, E. N. Brothers, K. N. Kudin, 
 V. N. Staroverov, T. A. Keith, R. Kobayashi, J. Normand, 
 K. Raghavachari, A. P. Rendell, J. C. Burant, S. S. Iyengar, 
 J. Tomasi, M. Cossi, J. M. Millam, M. Klene, C. Adamo, R. Cammi, 
 J. W. Ochterski, R. L. Martin, K. Morokuma, O. Farkas, 
 J. B. Foresman, and D. J. Fox, Gaussian, Inc., Wallingford CT, 2019.
 
 ******************************************
 Gaussian 16:  ES64L-G16RevC.01  3-Jul-2019
                 2-Jul-2022 
 ******************************************
 %mem=8gb
 %nproc=4
 Will use up to    4 processors via shared memory.
 %chk=conf-684.chk
 ----------------------------------------------------------------------
 # B3LYP/6-31G* empiricaldispersion=gd3 guess=read geom=check nosymm in
 tegral(ultrafinegrid)
 ----------------------------------------------------------------------
 1/29=2,38=1,172=1/1;
 2/12=2,15=1,40=1/2;
 3/5=1,6=6,7=1,11=2,14=-4,25=1,30=1,74=-5,75=-5,116=-2,124=31/1,2,3;
 4/5=1/1;
 5/5=2,38=6/2;
 6/7=2,8=2,9=2,10=2,28=1/1;
 99/5=1,9=1/99;
 ------------------------------------------------------
 Candidate Structure: Conf:684 Charge calc in gas phase
 ------------------------------------------------------
 Structure from the checkpoint file:  "conf-684.chk"
 Charge =  1 Multiplicity = 1
 Redundant internal coordinates found in file.  (old form).
 N,0,-0.1034078563,-5.7166757271,-6.482412442
 H,0,0.6435128705,-5.521666786,-7.1533692902
 H,0,-0.5476985136,-6.6025096458,-6.7372892002
 H,0,0.3071541997,-5.7509520789,-5.4905750666
 C,0,-1.0945075161,-4.5792950458,-6.3333576557
 H,0,-0.8970156817,-3.8495586405,-7.120541342
 C,0,-0.7287387415,-4.005423258,-4.9362634974
 C,0,-2.5390393754,-5.0928841328,-6.3872752514
 H,0,-3.1931429676,-4.2429238919,-6.1572493227
 H,0,-2.6793514731,-5.8104240835,-5.5664910875
 O,0,0.0677255307,-4.6608553269,-4.2423381535
 C,0,-2.980170283,-5.7181556002,-7.7271365363
 H,0,-2.3320470801,-6.5842715638,-7.9497844397
 C,0,-4.4145088521,-6.2503683274,-7.5876110644
 H,0,-5.1120316791,-5.429605014,-7.3819387591
 H,0,-4.4984214411,-6.9773365337,-6.7720188299
 H,0,-4.7370255603,-6.7400725393,-8.5116495517
 C,0,-2.8716968991,-4.7280533494,-8.8955634397
 H,0,-3.479437422,-3.8352725388,-8.7040268288
 H,0,-1.8418393025,-4.4002542454,-9.0840415767
 H,0,-3.2362458165,-5.1853593965,-9.8205113634
 N,0,-1.3217699884,-2.872096899,-4.6051064211
 H,0,-2.0491653642,-2.4604792171,-5.1919660012
 C,0,-1.2860009356,-2.2424822453,-3.2830429481
 H,0,-1.049411583,-3.007667238,-2.5389621483
 C,0,-2.7114663507,-1.6954060789,-3.0848175482
 C,0,-0.2358464704,-1.094041997,-3.2055641302
 H,0,-0.3553428253,-0.6483372398,-2.2124314162
 O,0,-3.4172500115,-1.4648926665,-4.0731920579
 C,0,1.1872679527,-1.6533227224,-3.3394905918
 H,0,1.3531697873,-2.0693650256,-4.3409575458
 H,0,1.4015725966,-2.435850753,-2.6066426286
 H,0,1.915132492,-0.8475387249,-3.1934277848
 C,0,-0.4978175799,0.0072198797,-4.2410189671
 H,0,-0.4012195796,-0.3781388719,-5.264314871
 H,0,0.2385987966,0.8072319003,-4.1163911192
 H,0,-1.4902113431,0.4479819906,-4.1261892877
 N,0,-3.081109876,-1.4639770618,-1.8095832136
 H,0,-2.3473872945,-1.5509098631,-1.1012296309
 C,0,-4.1458569069,-0.505044639,-1.5285719248
 H,0,-4.930269322,-0.6530828168,-2.2781573104
 C,0,-3.5149327138,0.8986898927,-1.7095055254
 C,0,-4.7342641446,-0.7427437044,-0.1100371482
 H,0,-3.9577555427,-0.4859186931,0.6215746313
 O,0,-2.2793459608,0.9992934701,-1.7005888126
 C,0,-5.9563684329,0.1459986809,0.1626136203
 H,0,-6.7412195199,-0.0211968427,-0.5876744917
 H,0,-5.7054501877,1.2088379691,0.1735067252
 H,0,-6.3818471181,-0.0969061277,1.1414951518
 C,0,-5.1110751125,-2.2220549446,0.0644810386
 H,0,-5.8741047852,-2.5191933621,-0.6662970225
 H,0,-4.2498677502,-2.8835434536,-0.0635048272
 H,0,-5.5223276783,-2.3879185331,1.0659453695
 N,0,-4.3214541705,1.9724813963,-1.8305757369
 H,0,-5.2965389291,1.8238729277,-2.0617580399
 C,0,-3.8137977142,3.3355469435,-2.0895922816
 H,0,-3.0393099615,3.2646917173,-2.8627300959
 C,0,-3.2185806774,3.946101137,-0.7851571773
 C,0,-4.97062967,4.2018933707,-2.5767408779
 H,0,-4.5658994929,5.1667000612,-2.9101530109
 H,0,-5.6474397679,4.3996576356,-1.7353379417
 O,0,-3.8080677522,4.8095387467,-0.1474121379
 O,0,-5.6194796142,3.4914197373,-3.6289694696
 H,0,-6.3954781248,4.0039674616,-3.901003223
 N,0,-2.0361704224,3.3837164777,-0.430139907
 H,0,-1.6530452082,2.6721403119,-1.050888622
 C,0,-1.4799103377,3.3551878202,0.9086173695
 H,0,-1.4443306483,4.3611840489,1.3391588342
 C,0,-0.0847309277,2.7146202374,0.771082284
 C,0,-2.2773503118,2.4046590454,1.8594454475
 H,0,-1.7454153631,2.3989955273,2.8205330459
 O,0,0.2067550411,2.0647880977,-0.23847986
 C,0,-3.726684586,2.8000664941,2.1199472582
 H,0,-3.8046041383,3.8264276991,2.4896906251
 H,0,-4.3243556576,2.7245817939,1.2109674895
 H,0,-4.1444536364,2.1134321834,2.8631215526
 O,0,-2.203923813,1.0632654583,1.3733116477
 H,0,-2.0895312867,1.0559271677,0.4056574164
 N,0,0.7374330409,2.7774219968,1.8426161806
 H,0,0.4505190631,3.265260387,2.6810848661
 C,0,1.9715678058,1.9887419038,1.8815896004
 H,0,2.3002565086,1.9186229228,0.8385496614
 C,0,1.7166628566,0.5323617209,2.3599946552
 C,0,3.0661736287,2.6514598006,2.7204051453
 H,0,2.8526348856,2.5010562398,3.7833561496
 H,0,3.0794721326,3.7283873893,2.5300282348
 O,0,2.2883886852,0.0749575454,3.3491831874
 C,0,4.4405754406,2.0517785529,2.3822506976
 H,0,4.7566370644,2.3987139499,1.3883359988
 H,0,4.3826746802,0.9630319988,2.3505242891
 C,0,5.5056348751,2.4906805657,3.3839794335
 N,0,6.3810127946,1.5025648055,3.7567953947
 H,0,6.1335221978,0.5265202644,3.6190052231
 H,0,7.0003808027,1.7253577749,4.5254418727
 O,0,5.5832866662,3.6425961644,3.7871880338
 N,0,0.9007143617,-0.2288818708,1.5785860063
 H,0,0.5098077339,0.1638918263,0.7265561765
 C,0,0.9058617022,-1.6857009853,1.7228675257
 H,0,1.0721056055,-1.9092216312,2.7800038199
 C,0,2.0951135362,-2.2041949806,0.881269081
 C,0,-0.4079593089,-2.336811935,1.2603925774
 H,0,-0.2416164427,-3.4241365527,1.2845437275
 O,0,1.9203885738,-2.7174483997,-0.2362382479
 C,0,-1.599089741,-1.9828802544,2.1313052442
 H,0,-1.4334714372,-2.3322078885,3.1562359685
 H,0,-1.7657368049,-0.9045172656,2.1412835088
 H,0,-2.496884589,-2.4764560259,1.7438674388
 O,0,-0.6856032932,-1.9429812546,-0.0959068773
 H,0,0.1168513671,-2.2311390231,-0.5821453775
 N,0,3.310701611,-1.9673369037,1.4085421632
 H,0,3.3846454963,-1.5078025176,2.3166505398
 C,0,4.5451565634,-2.0342129164,0.6390771314
 H,0,4.6955616639,-3.0582064965,0.2760743935
 C,0,5.6857415024,-1.6412292455,1.5943132734
 C,0,4.5227765763,-1.06491967,-0.5618788201
 H,0,5.4478010868,-1.1365719434,-1.1420220926
 H,0,3.6808368742,-1.3087438207,-1.2124689256
 H,0,4.4154909034,-0.0338671923,-0.2075863852
 O,0,5.445574871,-1.1514666337,2.7053627616
 N,0,6.9294152251,-1.7945468007,1.1136835977
 H,0,7.1152575461,-2.2073645062,0.2046893412
 C,0,8.1057194514,-1.2733480449,1.7999266947
 H,0,7.8439180802,-0.2949094201,2.2145487693
 C,0,9.1838169611,-1.11785141,0.7189759022
 C,0,8.5506247223,-2.2271564005,2.9352736554
 H,0,7.6590551709,-2.4131767997,3.5466940074
 H,0,8.8323220749,-3.1828506821,2.4749809203
 O,0,9.1544270808,-1.7949140189,-0.3094525235
 C,0,9.68838835,-1.7329252103,3.8490319987
 H,0,10.5811580841,-1.5468509039,3.2379778719
 C,0,9.3255151969,-0.4307646377,4.5816586849
 H,0,8.4229092024,-0.571034553,5.1908121739
 H,0,9.1313512255,0.4070233875,3.9004901134
 H,0,10.1364234933,-0.1237879811,5.2508799565
 C,0,10.0398527161,-2.8320542116,4.8630757989
 H,0,9.1811166034,-3.0578437275,5.5080608647
 H,0,10.8690122295,-2.520358645,5.5080346784
 H,0,10.3347126222,-3.7599688343,4.3596352882
 N,0,10.1582879816,-0.2192145621,0.9887942876
 H,0,10.1319112349,0.3060082617,1.8515383846
 C,0,11.3164312637,-0.0601520265,0.1178824415
 H,0,11.5119453144,-1.0381628722,-0.3361701999
 C,0,12.5728249109,0.3129579203,0.8963363877
 C,0,11.0689795872,0.9544159269,-1.0099876735
 H,0,11.9604525341,1.0397174718,-1.636220025
 H,0,10.2285443434,0.6096067658,-1.6176718464
 H,0,10.8297770802,1.9408826187,-0.599025293
 O,0,13.6392853452,0.526343652,0.3732420351
 O,0,12.3716965807,0.3944254955,2.23741811
 H,0,13.2277865601,0.6467238219,2.6332777599
 Recover connectivity data from disk.
                           ----------------------------
                           !    Current Parameters    !
                           ! (Angstroms and Degrees)  !
 --------------------------                            --------------------------
 ! Name  Definition              Value                                          !
 --------------------------------------------------------------------------------
 ! R1    R(1,2)                  1.0228                                         !
 ! R2    R(1,3)                  1.0233                                         !
 ! R3    R(1,4)                  1.074                                          !
 ! R4    R(1,5)                  1.516                                          !
 ! R5    R(5,6)                  1.0914                                         !
 ! R6    R(5,7)                  1.554                                          !
 ! R7    R(5,8)                  1.5341                                         !
 ! R8    R(7,11)                 1.2432                                         !
 ! R9    R(7,22)                 1.3213                                         !
 ! R10   R(8,9)                  1.0969                                         !
 ! R11   R(8,10)                 1.0992                                         !
 ! R12   R(8,12)                 1.543                                          !
 ! R13   R(12,13)                1.1044                                         !
 ! R14   R(12,14)                1.5362                                         !
 ! R15   R(12,18)                1.5353                                         !
 ! R16   R(14,15)                1.0966                                         !
 ! R17   R(14,16)                1.0958                                         !
 ! R18   R(14,17)                1.0944                                         !
 ! R19   R(18,19)                1.0969                                         !
 ! R20   R(18,20)                1.0971                                         !
 ! R21   R(18,21)                1.0943                                         !
 ! R22   R(22,23)                1.0212                                         !
 ! R23   R(22,24)                1.4648                                         !
 ! R24   R(24,25)                1.0932                                         !
 ! R25   R(24,26)                1.5397                                         !
 ! R26   R(24,27)                1.5581                                         !
 ! R27   R(26,29)                1.2362                                         !
 ! R28   R(26,38)                1.3477                                         !
 ! R29   R(27,28)                1.0951                                         !
 ! R30   R(27,30)                1.5349                                         !
 ! R31   R(27,34)                1.5341                                         !
 ! R32   R(30,31)                1.0971                                         !
 ! R33   R(30,32)                1.0933                                         !
 ! R34   R(30,33)                1.0956                                         !
 ! R35   R(34,35)                1.0977                                         !
 ! R36   R(34,36)                1.0945                                         !
 ! R37   R(34,37)                1.0919                                         !
 ! R38   R(38,39)                1.0236                                         !
 ! R39   R(38,40)                1.4602                                         !
 ! R40   R(40,41)                1.095                                          !
 ! R41   R(40,42)                1.5496                                         !
 ! R42   R(40,43)                1.554                                          !
 ! R43   R(42,45)                1.2397                                         !
 ! R44   R(42,54)                1.3484                                         !
 ! R45   R(43,44)                1.0974                                         !
 ! R46   R(43,46)                1.5355                                         !
 ! R47   R(43,50)                1.5365                                         !
 ! R48   R(46,47)                1.0986                                         !
 ! R49   R(46,48)                1.0921                                         !
 ! R50   R(46,49)                1.0946                                         !
 ! R51   R(50,51)                1.0975                                         !
 ! R52   R(50,52)                1.0934                                         !
 ! R53   R(50,53)                1.0952                                         !
 ! R54   R(54,55)                1.0131                                         !
 ! R55   R(54,56)                1.4774                                         !
 ! R56   R(56,57)                1.0966                                         !
 ! R57   R(56,58)                1.5584                                         !
 ! R58   R(56,59)                1.5252                                         !
 ! R59   R(58,62)                1.2246                                         !
 ! R60   R(58,65)                1.3566                                         !
 ! R61   R(59,60)                1.0981                                         !
 ! R62   R(59,61)                1.0978                                         !
 ! R63   R(59,63)                1.4258                                         !
 ! R64   R(63,64)                0.969                                          !
 ! R65   R(65,66)                1.019                                          !
 ! R66   R(65,67)                1.45                                           !
 ! R67   R(67,68)                1.0948                                         !
 ! R68   R(67,69)                1.5414                                         !
 ! R69   R(67,70)                1.5632                                         !
 ! R70   R(69,72)                1.2355                                         !
 ! R71   R(69,79)                1.3521                                         !
 ! R72   R(70,71)                1.0985                                         !
 ! R73   R(70,73)                1.5247                                         !
 ! R74   R(70,77)                1.4287                                         !
 ! R75   R(73,74)                1.0937                                         !
 ! R76   R(73,75)                1.0905                                         !
 ! R77   R(73,76)                1.0947                                         !
 ! R78   R(77,78)                0.9744                                         !
 ! R79   R(79,80)                1.0116                                         !
 ! R80   R(79,81)                1.4651                                         !
 ! R81   R(81,82)                1.0958                                         !
 ! R82   R(81,83)                1.554                                          !
 ! R83   R(81,84)                1.53                                           !
 ! R84   R(83,87)                1.2307                                         !
 ! R85   R(83,96)                1.3623                                         !
 ! R86   R(84,85)                1.0946                                         !
 ! R87   R(84,86)                1.0937                                         !
 ! R88   R(84,88)                1.5372                                         !
 ! R89   R(88,89)                1.0991                                         !
 ! R90   R(88,90)                1.0907                                         !
 ! R91   R(88,91)                1.5266                                         !
 ! R92   R(91,92)                1.3717                                         !
 ! R93   R(91,95)                1.2229                                         !
 ! R94   R(92,93)                1.0163                                         !
 ! R95   R(92,94)                1.012                                          !
 ! R96   R(96,97)                1.0164                                         !
 ! R97   R(96,98)                1.464                                          !
 ! R98   R(98,99)                1.0932                                         !
 ! R99   R(98,100)               1.5464                                         !
 ! R100  R(98,101)               1.5375                                         !
 ! R101  R(100,103)              1.2421                                         !
 ! R102  R(100,110)              1.346                                          !
 ! R103  R(101,102)              1.1002                                         !
 ! R104  R(101,104)              1.5174                                         !
 ! R105  R(101,108)              1.4394                                         !
 ! R106  R(104,105)              1.0954                                         !
 ! R107  R(104,106)              1.0912                                         !
 ! R108  R(104,107)              1.0953                                         !
 ! R109  R(108,109)              0.9815                                         !
 ! R110  R(110,111)              1.0204                                         !
 ! R111  R(110,112)              1.4562                                         !
 ! R112  R(112,113)              1.0968                                         !
 ! R113  R(112,114)              1.5388                                         !
 ! R114  R(112,115)              1.5435                                         !
 ! R115  R(114,119)              1.2377                                         !
 ! R116  R(114,120)              1.3421                                         !
 ! R117  R(115,116)              1.0942                                         !
 ! R118  R(115,117)              1.0916                                         !
 ! R119  R(115,118)              1.0955                                         !
 ! R120  R(120,121)              1.0155                                         !
 ! R121  R(120,122)              1.4582                                         !
 ! R122  R(122,123)              1.0944                                         !
 ! R123  R(122,124)              1.5346                                         !
 ! R124  R(122,125)              1.5481                                         !
 ! R125  R(124,128)              1.2316                                         !
 ! R126  R(124,139)              1.3528                                         !
 ! R127  R(125,126)              1.097                                          !
 ! R128  R(125,127)              1.0975                                         !
 ! R129  R(125,129)              1.5407                                         !
 ! R130  R(129,130)              1.0977                                         !
 ! R131  R(129,131)              1.5375                                         !
 ! R132  R(129,135)              1.5362                                         !
 ! R133  R(131,132)              1.0979                                         !
 ! R134  R(131,133)              1.0971                                         !
 ! R135  R(131,134)              1.0953                                         !
 ! R136  R(135,136)              1.0975                                         !
 ! R137  R(135,137)              1.0957                                         !
 ! R138  R(135,138)              1.0961                                         !
 ! R139  R(139,140)              1.0104                                         !
 ! R140  R(139,141)              1.4578                                         !
 ! R141  R(141,142)              1.0959                                         !
 ! R142  R(141,143)              1.5244                                         !
 ! R143  R(141,144)              1.5371                                         !
 ! R144  R(143,148)              1.2069                                         !
 ! R145  R(143,149)              1.3585                                         !
 ! R146  R(144,145)              1.0928                                         !
 ! R147  R(144,146)              1.0929                                         !
 ! R148  R(144,147)              1.0951                                         !
 ! R149  R(149,150)              0.9763                                         !
 ! A1    A(2,1,3)              108.5866                                         !
 ! A2    A(2,1,4)              109.4351                                         !
 ! A3    A(2,1,5)              113.5088                                         !
 ! A4    A(3,1,4)              111.6157                                         !
 ! A5    A(3,1,5)              112.9629                                         !
 ! A6    A(4,1,5)              100.5483                                         !
 ! A7    A(1,5,6)              108.2055                                         !
 ! A8    A(1,5,7)              102.2148                                         !
 ! A9    A(1,5,8)              111.1605                                         !
 ! A10   A(6,5,7)              111.034                                          !
 ! A11   A(6,5,8)              111.647                                          !
 ! A12   A(7,5,8)              112.1394                                         !
 ! A13   A(5,7,11)             117.253                                          !
 ! A14   A(5,7,22)             115.8766                                         !
 ! A15   A(11,7,22)            126.8612                                         !
 ! A16   A(5,8,9)              107.1411                                         !
 ! A17   A(5,8,10)             108.21                                           !
 ! A18   A(5,8,12)             115.8107                                         !
 ! A19   A(9,8,10)             105.8498                                         !
 ! A20   A(9,8,12)             109.0032                                         !
 ! A21   A(10,8,12)            110.3276                                         !
 ! A22   A(8,12,13)            108.97                                           !
 ! A23   A(8,12,14)            109.1749                                         !
 ! A24   A(8,12,18)            112.2911                                         !
 ! A25   A(13,12,14)           107.1297                                         !
 ! A26   A(13,12,18)           108.1098                                         !
 ! A27   A(14,12,18)           111.0075                                         !
 ! A28   A(12,14,15)           110.587                                          !
 ! A29   A(12,14,16)           111.65                                           !
 ! A30   A(12,14,17)           110.7008                                         !
 ! A31   A(15,14,16)           107.9538                                         !
 ! A32   A(15,14,17)           107.808                                          !
 ! A33   A(16,14,17)           108.0002                                         !
 ! A34   A(12,18,19)           110.6619                                         !
 ! A35   A(12,18,20)           112.9388                                         !
 ! A36   A(12,18,21)           110.5001                                         !
 ! A37   A(19,18,20)           107.874                                          !
 ! A38   A(19,18,21)           107.6473                                         !
 ! A39   A(20,18,21)           106.9997                                         !
 ! A40   A(7,22,23)            121.4249                                         !
 ! A41   A(7,22,24)            125.7288                                         !
 ! A42   A(23,22,24)           111.2729                                         !
 ! A43   A(22,24,25)           108.5871                                         !
 ! A44   A(22,24,26)           104.2603                                         !
 ! A45   A(22,24,27)           112.2198                                         !
 ! A46   A(25,24,26)           111.1886                                         !
 ! A47   A(25,24,27)           109.6451                                         !
 ! A48   A(26,24,27)           110.8364                                         !
 ! A49   A(24,26,29)           119.4664                                         !
 ! A50   A(24,26,38)           115.8974                                         !
 ! A51   A(29,26,38)           124.6046                                         !
 ! A52   A(24,27,28)           105.7557                                         !
 ! A53   A(24,27,30)           110.609                                          !
 ! A54   A(24,27,34)           112.3611                                         !
 ! A55   A(28,27,30)           109.1837                                         !
 ! A56   A(28,27,34)           107.536                                          !
 ! A57   A(30,27,34)           111.1611                                         !
 ! A58   A(27,30,31)           110.9798                                         !
 ! A59   A(27,30,32)           112.5844                                         !
 ! A60   A(27,30,33)           109.6536                                         !
 ! A61   A(31,30,32)           108.1084                                         !
 ! A62   A(31,30,33)           107.4661                                         !
 ! A63   A(32,30,33)           107.8672                                         !
 ! A64   A(27,34,35)           111.2329                                         !
 ! A65   A(27,34,36)           109.4484                                         !
 ! A66   A(27,34,37)           111.9611                                         !
 ! A67   A(35,34,36)           107.6709                                         !
 ! A68   A(35,34,37)           108.6459                                         !
 ! A69   A(36,34,37)           107.7275                                         !
 ! A70   A(26,38,39)           116.3356                                         !
 ! A71   A(26,38,40)           119.6598                                         !
 ! A72   A(39,38,40)           116.442                                          !
 ! A73   A(38,40,41)           107.5669                                         !
 ! A74   A(38,40,42)           105.994                                          !
 ! A75   A(38,40,43)           110.5676                                         !
 ! A76   A(41,40,42)           109.5236                                         !
 ! A77   A(41,40,43)           109.4476                                         !
 ! A78   A(42,40,43)           113.5347                                         !
 ! A79   A(40,42,45)           118.5856                                         !
 ! A80   A(40,42,54)           119.2314                                         !
 ! A81   A(45,42,54)           122.1521                                         !
 ! A82   A(40,43,44)           107.7493                                         !
 ! A83   A(40,43,46)           112.0188                                         !
 ! A84   A(40,43,50)           110.1087                                         !
 ! A85   A(44,43,46)           108.0201                                         !
 ! A86   A(44,43,50)           108.8531                                         !
 ! A87   A(46,43,50)           109.9928                                         !
 ! A88   A(43,46,47)           111.0543                                         !
 ! A89   A(43,46,48)           112.4696                                         !
 ! A90   A(43,46,49)           109.8593                                         !
 ! A91   A(47,46,48)           108.6066                                         !
 ! A92   A(47,46,49)           107.414                                          !
 ! A93   A(48,46,49)           107.2379                                         !
 ! A94   A(43,50,51)           110.8261                                         !
 ! A95   A(43,50,52)           112.0859                                         !
 ! A96   A(43,50,53)           109.9832                                         !
 ! A97   A(51,50,52)           107.8093                                         !
 ! A98   A(51,50,53)           107.8653                                         !
 ! A99   A(52,50,53)           108.1285                                         !
 ! A100  A(42,54,55)           118.6448                                         !
 ! A101  A(42,54,56)           123.0198                                         !
 ! A102  A(55,54,56)           115.2175                                         !
 ! A103  A(54,56,57)           107.8583                                         !
 ! A104  A(54,56,58)           110.2399                                         !
 ! A105  A(54,56,59)           108.629                                          !
 ! A106  A(57,56,58)           110.224                                          !
 ! A107  A(57,56,59)           110.3161                                         !
 ! A108  A(58,56,59)           109.5427                                         !
 ! A109  A(56,58,62)           121.889                                          !
 ! A110  A(56,58,65)           112.9251                                         !
 ! A111  A(62,58,65)           125.1378                                         !
 ! A112  A(56,59,60)           108.4515                                         !
 ! A113  A(56,59,61)           108.9746                                         !
 ! A114  A(56,59,63)           107.3279                                         !
 ! A115  A(60,59,61)           107.5578                                         !
 ! A116  A(60,59,63)           112.4243                                         !
 ! A117  A(61,59,63)           112.0139                                         !
 ! A118  A(59,63,64)           107.942                                          !
 ! A119  A(58,65,66)           117.2418                                         !
 ! A120  A(58,65,67)           125.742                                          !
 ! A121  A(66,65,67)           113.8563                                         !
 ! A122  A(65,67,68)           110.9447                                         !
 ! A123  A(65,67,69)           105.8451                                         !
 ! A124  A(65,67,70)           112.2013                                         !
 ! A125  A(68,67,69)           112.8015                                         !
 ! A126  A(68,67,70)           109.6404                                         !
 ! A127  A(69,67,70)           105.2678                                         !
 ! A128  A(67,69,72)           120.3346                                         !
 ! A129  A(67,69,79)           117.4125                                         !
 ! A130  A(72,69,79)           121.9079                                         !
 ! A131  A(67,70,71)           106.7555                                         !
 ! A132  A(67,70,73)           115.5406                                         !
 ! A133  A(67,70,77)           109.7393                                         !
 ! A134  A(71,70,73)           108.1892                                         !
 ! A135  A(71,70,77)           105.5443                                         !
 ! A136  A(73,70,77)           110.5168                                         !
 ! A137  A(70,73,74)           111.6442                                         !
 ! A138  A(70,73,75)           111.1379                                         !
 ! A139  A(70,73,76)           108.4269                                         !
 ! A140  A(74,73,75)           107.9211                                         !
 ! A141  A(74,73,76)           109.3857                                         !
 ! A142  A(75,73,76)           108.2592                                         !
 ! A143  A(70,77,78)           110.5495                                         !
 ! A144  A(69,79,80)           120.4518                                         !
 ! A145  A(69,79,81)           120.5496                                         !
 ! A146  A(80,79,81)           118.4538                                         !
 ! A147  A(79,81,82)           105.1754                                         !
 ! A148  A(79,81,83)           111.9937                                         !
 ! A149  A(79,81,84)           112.5845                                         !
 ! A150  A(82,81,83)           106.3947                                         !
 ! A151  A(82,81,84)           109.5695                                         !
 ! A152  A(83,81,84)           110.7634                                         !
 ! A153  A(81,83,87)           121.303                                          !
 ! A154  A(81,83,96)           116.4461                                         !
 ! A155  A(87,83,96)           122.1138                                         !
 ! A156  A(81,84,85)           109.4699                                         !
 ! A157  A(81,84,86)           109.8627                                         !
 ! A158  A(81,84,88)           110.4921                                         !
 ! A159  A(85,84,86)           107.8611                                         !
 ! A160  A(85,84,88)           109.5392                                         !
 ! A161  A(86,84,88)           109.5706                                         !
 ! A162  A(84,88,89)           109.444                                          !
 ! A163  A(84,88,90)           110.3856                                         !
 ! A164  A(84,88,91)           111.5481                                         !
 ! A165  A(89,88,90)           107.6994                                         !
 ! A166  A(89,88,91)           107.5778                                         !
 ! A167  A(90,88,91)           110.0659                                         !
 ! A168  A(88,91,92)           114.6116                                         !
 ! A169  A(88,91,95)           122.1048                                         !
 ! A170  A(92,91,95)           123.2566                                         !
 ! A171  A(91,92,93)           119.9701                                         !
 ! A172  A(91,92,94)           116.0035                                         !
 ! A173  A(93,92,94)           117.6105                                         !
 ! A174  A(83,96,97)           119.6869                                         !
 ! A175  A(83,96,98)           119.8302                                         !
 ! A176  A(97,96,98)           117.9389                                         !
 ! A177  A(96,98,99)           107.4156                                         !
 ! A178  A(96,98,100)          106.4225                                         !
 ! A179  A(96,98,101)          112.8779                                         !
 ! A180  A(99,98,100)          109.9231                                         !
 ! A181  A(99,98,101)          109.5253                                         !
 ! A182  A(100,98,101)         110.5766                                         !
 ! A183  A(98,100,103)         121.3324                                         !
 ! A184  A(98,100,110)         114.9814                                         !
 ! A185  A(103,100,110)        123.5174                                         !
 ! A186  A(98,101,102)         106.4225                                         !
 ! A187  A(98,101,104)         113.5377                                         !
 ! A188  A(98,101,108)         109.4143                                         !
 ! A189  A(102,101,104)        109.6692                                         !
 ! A190  A(102,101,108)        108.6782                                         !
 ! A191  A(104,101,108)        109.0013                                         !
 ! A192  A(101,104,105)        110.1177                                         !
 ! A193  A(101,104,106)        110.832                                          !
 ! A194  A(101,104,107)        109.59                                           !
 ! A195  A(105,104,106)        109.2493                                         !
 ! A196  A(105,104,107)        108.1303                                         !
 ! A197  A(106,104,107)        108.8668                                         !
 ! A198  A(101,108,109)        103.2249                                         !
 ! A199  A(100,110,111)        119.557                                          !
 ! A200  A(100,110,112)        123.4024                                         !
 ! A201  A(111,110,112)        115.4358                                         !
 ! A202  A(110,112,113)        109.5129                                         !
 ! A203  A(110,112,114)        106.7748                                         !
 ! A204  A(110,112,115)        111.7169                                         !
 ! A205  A(113,112,114)        110.0137                                         !
 ! A206  A(113,112,115)        109.316                                          !
 ! A207  A(114,112,115)        109.4742                                         !
 ! A208  A(112,114,119)        120.9619                                         !
 ! A209  A(112,114,120)        115.8096                                         !
 ! A210  A(119,114,120)        123.1255                                         !
 ! A211  A(112,115,116)        111.0476                                         !
 ! A212  A(112,115,117)        109.5512                                         !
 ! A213  A(112,115,118)        109.9276                                         !
 ! A214  A(116,115,117)        108.7479                                         !
 ! A215  A(116,115,118)        108.4141                                         !
 ! A216  A(117,115,118)        109.1136                                         !
 ! A217  A(114,120,121)        122.4515                                         !
 ! A218  A(114,120,122)        122.5589                                         !
 ! A219  A(121,120,122)        114.7674                                         !
 ! A220  A(120,122,123)        107.7503                                         !
 ! A221  A(120,122,124)        105.7506                                         !
 ! A222  A(120,122,125)        110.9008                                         !
 ! A223  A(123,122,124)        110.1405                                         !
 ! A224  A(123,122,125)        109.9815                                         !
 ! A225  A(124,122,125)        112.155                                          !
 ! A226  A(122,124,128)        121.0448                                         !
 ! A227  A(122,124,139)        115.6514                                         !
 ! A228  A(128,124,139)        123.293                                          !
 ! A229  A(122,125,126)        106.2402                                         !
 ! A230  A(122,125,127)        107.6185                                         !
 ! A231  A(122,125,129)        116.7139                                         !
 ! A232  A(126,125,127)        107.1396                                         !
 ! A233  A(126,125,129)        108.907                                          !
 ! A234  A(127,125,129)        109.7868                                         !
 ! A235  A(125,129,130)        108.9548                                         !
 ! A236  A(125,129,131)        112.333                                          !
 ! A237  A(125,129,135)        109.3254                                         !
 ! A238  A(130,129,131)        108.2775                                         !
 ! A239  A(130,129,135)        107.617                                          !
 ! A240  A(131,129,135)        110.2073                                         !
 ! A241  A(129,131,132)        110.499                                          !
 ! A242  A(129,131,133)        113.1204                                         !
 ! A243  A(129,131,134)        110.7179                                         !
 ! A244  A(132,131,133)        107.2506                                         !
 ! A245  A(132,131,134)        107.7859                                         !
 ! A246  A(133,131,134)        107.2395                                         !
 ! A247  A(129,135,136)        110.8626                                         !
 ! A248  A(129,135,137)        110.986                                          !
 ! A249  A(129,135,138)        111.3501                                         !
 ! A250  A(136,135,137)        107.7406                                         !
 ! A251  A(136,135,138)        107.834                                          !
 ! A252  A(137,135,138)        107.9148                                         !
 ! A253  A(124,139,140)        119.7903                                         !
 ! A254  A(124,139,141)        121.7102                                         !
 ! A255  A(140,139,141)        118.304                                          !
 ! A256  A(139,141,142)        106.9717                                         !
 ! A257  A(139,141,143)        112.1119                                         !
 ! A258  A(139,141,144)        112.4884                                         !
 ! A259  A(142,141,143)        106.4383                                         !
 ! A260  A(142,141,144)        108.2866                                         !
 ! A261  A(143,141,144)        110.2331                                         !
 ! A262  A(141,143,148)        123.3845                                         !
 ! A263  A(141,143,149)        113.3763                                         !
 ! A264  A(148,143,149)        123.2364                                         !
 ! A265  A(141,144,145)        109.9188                                         !
 ! A266  A(141,144,146)        108.8769                                         !
 ! A267  A(141,144,147)        110.7555                                         !
 ! A268  A(145,144,146)        109.4699                                         !
 ! A269  A(145,144,147)        108.8405                                         !
 ! A270  A(146,144,147)        108.9587                                         !
 ! A271  A(143,149,150)        106.6143                                         !
 ! D1    D(2,1,5,6)             10.1749                                         !
 ! D2    D(2,1,5,7)           -107.0693                                         !
 ! D3    D(2,1,5,8)            133.1115                                         !
 ! D4    D(3,1,5,6)           -114.0064                                         !
 ! D5    D(3,1,5,7)            128.7493                                         !
 ! D6    D(3,1,5,8)              8.9302                                         !
 ! D7    D(4,1,5,6)            126.9247                                         !
 ! D8    D(4,1,5,7)              9.6805                                         !
 ! D9    D(4,1,5,8)           -110.1387                                         !
 ! D10   D(1,5,7,11)            -9.7097                                         !
 ! D11   D(1,5,7,22)           171.315                                          !
 ! D12   D(6,5,7,11)          -124.9066                                         !
 ! D13   D(6,5,7,22)            56.1182                                         !
 ! D14   D(8,5,7,11)           109.422                                          !
 ! D15   D(8,5,7,22)           -69.5533                                         !
 ! D16   D(1,5,8,9)            173.5181                                         !
 ! D17   D(1,5,8,10)            59.7933                                         !
 ! D18   D(1,5,8,12)           -64.6325                                         !
 ! D19   D(6,5,8,9)            -65.5472                                         !
 ! D20   D(6,5,8,10)          -179.2721                                         !
 ! D21   D(6,5,8,12)            56.3021                                         !
 ! D22   D(7,5,8,9)             59.7885                                         !
 ! D23   D(7,5,8,10)           -53.9364                                         !
 ! D24   D(7,5,8,12)          -178.3622                                         !
 ! D25   D(5,7,22,23)            6.4053                                         !
 ! D26   D(5,7,22,24)          170.8263                                         !
 ! D27   D(11,7,22,23)        -172.4561                                         !
 ! D28   D(11,7,22,24)          -8.0351                                         !
 ! D29   D(5,8,12,13)           60.0919                                         !
 ! D30   D(5,8,12,14)          176.7894                                         !
 ! D31   D(5,8,12,18)          -59.654                                          !
 ! D32   D(9,8,12,13)         -179.0561                                         !
 ! D33   D(9,8,12,14)          -62.3587                                         !
 ! D34   D(9,8,12,18)           61.1979                                         !
 ! D35   D(10,8,12,13)         -63.231                                          !
 ! D36   D(10,8,12,14)          53.4664                                         !
 ! D37   D(10,8,12,18)         177.023                                          !
 ! D38   D(8,12,14,15)          63.1166                                         !
 ! D39   D(8,12,14,16)         -57.1063                                         !
 ! D40   D(8,12,14,17)        -177.4654                                         !
 ! D41   D(13,12,14,15)       -179.0229                                         !
 ! D42   D(13,12,14,16)         60.7543                                         !
 ! D43   D(13,12,14,17)        -59.6049                                         !
 ! D44   D(18,12,14,15)        -61.1972                                         !
 ! D45   D(18,12,14,16)        178.5799                                         !
 ! D46   D(18,12,14,17)         58.2207                                         !
 ! D47   D(8,12,18,19)         -58.1458                                         !
 ! D48   D(8,12,18,20)          62.9044                                         !
 ! D49   D(8,12,18,21)        -177.2826                                         !
 ! D50   D(13,12,18,19)       -178.3915                                         !
 ! D51   D(13,12,18,20)        -57.3413                                         !
 ! D52   D(13,12,18,21)         62.4717                                         !
 ! D53   D(14,12,18,19)         64.3802                                         !
 ! D54   D(14,12,18,20)       -174.5696                                         !
 ! D55   D(14,12,18,21)        -54.7566                                         !
 ! D56   D(7,22,24,25)         -22.0745                                         !
 ! D57   D(7,22,24,26)        -140.6895                                         !
 ! D58   D(7,22,24,27)          99.2925                                         !
 ! D59   D(23,22,24,25)        143.6886                                         !
 ! D60   D(23,22,24,26)         25.0736                                         !
 ! D61   D(23,22,24,27)        -94.9445                                         !
 ! D62   D(22,24,26,29)        -23.0234                                         !
 ! D63   D(22,24,26,38)        158.9252                                         !
 ! D64   D(25,24,26,29)       -139.8471                                         !
 ! D65   D(25,24,26,38)         42.1014                                         !
 ! D66   D(27,24,26,29)         97.9218                                         !
 ! D67   D(27,24,26,38)        -80.1297                                         !
 ! D68   D(22,24,27,28)        175.4328                                         !
 ! D69   D(22,24,27,30)        -66.4765                                         !
 ! D70   D(22,24,27,34)         58.3945                                         !
 ! D71   D(25,24,27,28)        -63.8091                                         !
 ! D72   D(25,24,27,30)         54.2816                                         !
 ! D73   D(25,24,27,34)        179.1526                                         !
 ! D74   D(26,24,27,28)         59.3177                                         !
 ! D75   D(26,24,27,30)        177.4083                                         !
 ! D76   D(26,24,27,34)        -57.7207                                         !
 ! D77   D(24,26,38,39)          7.9262                                         !
 ! D78   D(24,26,38,40)        156.5382                                         !
 ! D79   D(29,26,38,39)       -170.0126                                         !
 ! D80   D(29,26,38,40)        -21.4007                                         !
 ! D81   D(24,27,30,31)         66.4623                                         !
 ! D82   D(24,27,30,32)        -54.8717                                         !
 ! D83   D(24,27,30,33)       -174.9643                                         !
 ! D84   D(28,27,30,31)       -177.5617                                         !
 ! D85   D(28,27,30,32)         61.1042                                         !
 ! D86   D(28,27,30,33)        -58.9883                                         !
 ! D87   D(34,27,30,31)        -59.0875                                         !
 ! D88   D(34,27,30,32)        179.5785                                         !
 ! D89   D(34,27,30,33)         59.4859                                         !
 ! D90   D(24,27,34,35)        -63.5784                                         !
 ! D91   D(24,27,34,36)        177.5692                                         !
 ! D92   D(24,27,34,37)         58.1915                                         !
 ! D93   D(28,27,34,35)       -179.5494                                         !
 ! D94   D(28,27,34,36)         61.5982                                         !
 ! D95   D(28,27,34,37)        -57.7794                                         !
 ! D96   D(30,27,34,35)         60.9886                                         !
 ! D97   D(30,27,34,36)        -57.8639                                         !
 ! D98   D(30,27,34,37)       -177.2415                                         !
 ! D99   D(26,38,40,41)         41.1514                                         !
 ! D100  D(26,38,40,42)        -75.9393                                         !
 ! D101  D(26,38,40,43)        160.6102                                         !
 ! D102  D(39,38,40,41)       -170.2689                                         !
 ! D103  D(39,38,40,42)         72.6404                                         !
 ! D104  D(39,38,40,43)        -50.8101                                         !
 ! D105  D(38,40,42,45)        -17.7542                                         !
 ! D106  D(38,40,42,54)        164.2254                                         !
 ! D107  D(41,40,42,45)       -133.5243                                         !
 ! D108  D(41,40,42,54)         48.4554                                         !
 ! D109  D(43,40,42,45)        103.81                                           !
 ! D110  D(43,40,42,54)        -74.2104                                         !
 ! D111  D(38,40,43,44)         67.5111                                         !
 ! D112  D(38,40,43,46)       -173.8156                                         !
 ! D113  D(38,40,43,50)        -51.077                                          !
 ! D114  D(41,40,43,44)       -174.1711                                         !
 ! D115  D(41,40,43,46)        -55.4978                                         !
 ! D116  D(41,40,43,50)         67.2407                                         !
 ! D117  D(42,40,43,44)        -51.4634                                         !
 ! D118  D(42,40,43,46)         67.2099                                         !
 ! D119  D(42,40,43,50)       -170.0515                                         !
 ! D120  D(40,42,54,55)        -17.0422                                         !
 ! D121  D(40,42,54,56)       -176.1074                                         !
 ! D122  D(45,42,54,55)        165.0111                                         !
 ! D123  D(45,42,54,56)          5.9459                                         !
 ! D124  D(40,43,46,47)         57.5419                                         !
 ! D125  D(40,43,46,48)        -64.4091                                         !
 ! D126  D(40,43,46,49)        176.2273                                         !
 ! D127  D(44,43,46,47)        176.0549                                         !
 ! D128  D(44,43,46,48)         54.1038                                         !
 ! D129  D(44,43,46,49)        -65.2597                                         !
 ! D130  D(50,43,46,47)        -65.2624                                         !
 ! D131  D(50,43,46,48)        172.7866                                         !
 ! D132  D(50,43,46,49)         53.4231                                         !
 ! D133  D(40,43,50,51)        -61.0099                                         !
 ! D134  D(40,43,50,52)         59.4871                                         !
 ! D135  D(40,43,50,53)        179.8088                                         !
 ! D136  D(44,43,50,51)       -178.9186                                         !
 ! D137  D(44,43,50,52)        -58.4216                                         !
 ! D138  D(44,43,50,53)         61.9001                                         !
 ! D139  D(46,43,50,51)         62.9117                                         !
 ! D140  D(46,43,50,52)       -176.5913                                         !
 ! D141  D(46,43,50,53)        -56.2697                                         !
 ! D142  D(42,54,56,57)         43.6268                                         !
 ! D143  D(42,54,56,58)        -76.7636                                         !
 ! D144  D(42,54,56,59)        163.2012                                         !
 ! D145  D(55,54,56,57)       -116.0933                                         !
 ! D146  D(55,54,56,58)        123.5163                                         !
 ! D147  D(55,54,56,59)          3.4811                                         !
 ! D148  D(54,56,58,62)       -105.3609                                         !
 ! D149  D(54,56,58,65)         72.2383                                         !
 ! D150  D(57,56,58,62)        135.6818                                         !
 ! D151  D(57,56,58,65)        -46.719                                          !
 ! D152  D(59,56,58,62)         14.1214                                         !
 ! D153  D(59,56,58,65)       -168.2794                                         !
 ! D154  D(54,56,59,60)       -171.6601                                         !
 ! D155  D(54,56,59,61)         71.5314                                         !
 ! D156  D(54,56,59,63)        -49.968                                          !
 ! D157  D(57,56,59,60)        -53.6328                                         !
 ! D158  D(57,56,59,61)       -170.4414                                         !
 ! D159  D(57,56,59,63)         68.0593                                         !
 ! D160  D(58,56,59,60)         67.8721                                         !
 ! D161  D(58,56,59,61)        -48.9364                                         !
 ! D162  D(58,56,59,63)       -170.4358                                         !
 ! D163  D(56,58,65,66)          2.3674                                         !
 ! D164  D(56,58,65,67)       -156.2225                                         !
 ! D165  D(62,58,65,66)        179.8747                                         !
 ! D166  D(62,58,65,67)         21.2848                                         !
 ! D167  D(56,59,63,64)        175.8772                                         !
 ! D168  D(60,59,63,64)        -64.9515                                         !
 ! D169  D(61,59,63,64)         56.3039                                         !
 ! D170  D(58,65,67,68)        -52.7825                                         !
 ! D171  D(58,65,67,69)       -175.465                                          !
 ! D172  D(58,65,67,70)         70.2369                                         !
 ! D173  D(66,65,67,68)        148.003                                          !
 ! D174  D(66,65,67,69)         25.3205                                         !
 ! D175  D(66,65,67,70)        -88.9776                                         !
 ! D176  D(65,67,69,72)        -17.5889                                         !
 ! D177  D(65,67,69,79)        169.0265                                         !
 ! D178  D(68,67,69,72)       -139.0824                                         !
 ! D179  D(68,67,69,79)         47.533                                          !
 ! D180  D(70,67,69,72)        101.3994                                         !
 ! D181  D(70,67,69,79)        -71.9852                                         !
 ! D182  D(65,67,70,71)        176.3251                                         !
 ! D183  D(65,67,70,73)        -63.3324                                         !
 ! D184  D(65,67,70,77)         62.4108                                         !
 ! D185  D(68,67,70,71)        -59.9236                                         !
 ! D186  D(68,67,70,73)         60.4189                                         !
 ! D187  D(68,67,70,77)       -173.8379                                         !
 ! D188  D(69,67,70,71)         61.6739                                         !
 ! D189  D(69,67,70,73)       -177.9836                                         !
 ! D190  D(69,67,70,77)        -52.2404                                         !
 ! D191  D(67,69,79,80)         -2.6634                                         !
 ! D192  D(67,69,79,81)        168.7411                                         !
 ! D193  D(72,69,79,80)       -175.937                                          !
 ! D194  D(72,69,79,81)         -4.5324                                         !
 ! D195  D(67,70,73,74)        -54.4438                                         !
 ! D196  D(67,70,73,75)         66.1104                                         !
 ! D197  D(67,70,73,76)       -175.0154                                         !
 ! D198  D(71,70,73,74)         65.1155                                         !
 ! D199  D(71,70,73,75)       -174.3303                                         !
 ! D200  D(71,70,73,76)        -55.4561                                         !
 ! D201  D(77,70,73,74)       -179.7882                                         !
 ! D202  D(77,70,73,75)        -59.234                                          !
 ! D203  D(77,70,73,76)         59.6402                                         !
 ! D204  D(67,70,77,78)        -28.0381                                         !
 ! D205  D(71,70,77,78)       -142.7291                                         !
 ! D206  D(73,70,77,78)        100.5245                                         !
 ! D207  D(69,79,81,82)         31.5941                                         !
 ! D208  D(69,79,81,83)        -83.5537                                         !
 ! D209  D(69,79,81,84)        150.8488                                         !
 ! D210  D(80,79,81,82)       -156.8325                                         !
 ! D211  D(80,79,81,83)         88.0197                                         !
 ! D212  D(80,79,81,84)        -37.5777                                         !
 ! D213  D(79,81,83,87)       -121.8598                                         !
 ! D214  D(79,81,83,96)         62.3113                                         !
 ! D215  D(82,81,83,87)        123.7393                                         !
 ! D216  D(82,81,83,96)        -52.0896                                         !
 ! D217  D(84,81,83,87)          4.7304                                         !
 ! D218  D(84,81,83,96)       -171.0985                                         !
 ! D219  D(79,81,84,85)         77.2218                                         !
 ! D220  D(79,81,84,86)        -41.0467                                         !
 ! D221  D(79,81,84,88)       -162.0594                                         !
 ! D222  D(82,81,84,85)       -166.1141                                         !
 ! D223  D(82,81,84,86)         75.6173                                         !
 ! D224  D(82,81,84,88)        -45.3954                                         !
 ! D225  D(83,81,84,85)        -49.0402                                         !
 ! D226  D(83,81,84,86)       -167.3088                                         !
 ! D227  D(83,81,84,88)         71.6785                                         !
 ! D228  D(81,83,96,97)          0.9717                                         !
 ! D229  D(81,83,96,98)        162.5184                                         !
 ! D230  D(87,83,96,97)       -174.8205                                         !
 ! D231  D(87,83,96,98)        -13.2738                                         !
 ! D232  D(81,84,88,89)         72.2117                                         !
 ! D233  D(81,84,88,90)        -46.1567                                         !
 ! D234  D(81,84,88,91)       -168.8589                                         !
 ! D235  D(85,84,88,89)       -167.1109                                         !
 ! D236  D(85,84,88,90)         74.5207                                         !
 ! D237  D(85,84,88,91)        -48.1815                                         !
 ! D238  D(86,84,88,89)        -48.9745                                         !
 ! D239  D(86,84,88,90)       -167.343                                          !
 ! D240  D(86,84,88,91)         69.9549                                         !
 ! D241  D(84,88,91,92)        139.0675                                         !
 ! D242  D(84,88,91,95)        -42.7639                                         !
 ! D243  D(89,88,91,92)       -100.8979                                         !
 ! D244  D(89,88,91,95)         77.2707                                         !
 ! D245  D(90,88,91,92)         16.1825                                         !
 ! D246  D(90,88,91,95)       -165.6489                                         !
 ! D247  D(88,91,92,93)        -19.367                                          !
 ! D248  D(88,91,92,94)       -170.5959                                         !
 ! D249  D(95,91,92,93)        162.4882                                         !
 ! D250  D(95,91,92,94)         11.2593                                         !
 ! D251  D(83,96,98,99)         34.7177                                         !
 ! D252  D(83,96,98,100)       -82.978                                          !
 ! D253  D(83,96,98,101)       155.5514                                         !
 ! D254  D(97,96,98,99)       -163.4177                                         !
 ! D255  D(97,96,98,100)        78.8867                                         !
 ! D256  D(97,96,98,101)       -42.584                                          !
 ! D257  D(96,98,100,103)     -102.3347                                         !
 ! D258  D(96,98,100,110)       73.1019                                         !
 ! D259  D(99,98,100,103)      141.6427                                         !
 ! D260  D(99,98,100,110)      -42.9206                                         !
 ! D261  D(101,98,100,103)      20.5924                                         !
 ! D262  D(101,98,100,110)    -163.971                                          !
 ! D263  D(96,98,101,102)      172.5198                                         !
 ! D264  D(96,98,101,104)      -66.7406                                         !
 ! D265  D(96,98,101,108)       55.2695                                         !
 ! D266  D(99,98,101,102)      -67.8559                                         !
 ! D267  D(99,98,101,104)       52.8837                                         !
 ! D268  D(99,98,101,108)      174.8938                                         !
 ! D269  D(100,98,101,102)      53.4303                                         !
 ! D270  D(100,98,101,104)     174.1699                                         !
 ! D271  D(100,98,101,108)     -63.82                                           !
 ! D272  D(98,100,110,111)       2.2039                                         !
 ! D273  D(98,100,110,112)    -162.6817                                         !
 ! D274  D(103,100,110,111)    177.5284                                         !
 ! D275  D(103,100,110,112)     12.6428                                         !
 ! D276  D(98,101,104,105)     -61.3352                                         !
 ! D277  D(98,101,104,106)      59.6645                                         !
 ! D278  D(98,101,104,107)     179.8408                                         !
 ! D279  D(102,101,104,105)     57.5583                                         !
 ! D280  D(102,101,104,106)    178.5581                                         !
 ! D281  D(102,101,104,107)    -61.2657                                         !
 ! D282  D(108,101,104,105)    176.4256                                         !
 ! D283  D(108,101,104,106)    -62.5746                                         !
 ! D284  D(108,101,104,107)     57.6016                                         !
 ! D285  D(98,101,108,109)      56.9055                                         !
 ! D286  D(102,101,108,109)    -58.9161                                         !
 ! D287  D(104,101,108,109)   -178.4005                                         !
 ! D288  D(100,110,112,113)    -63.2659                                         !
 ! D289  D(100,110,112,114)    177.6522                                         !
 ! D290  D(100,110,112,115)     57.9917                                         !
 ! D291  D(111,110,112,113)    131.2803                                         !
 ! D292  D(111,110,112,114)     12.1984                                         !
 ! D293  D(111,110,112,115)   -107.4621                                         !
 ! D294  D(110,112,114,119)    -11.1647                                         !
 ! D295  D(110,112,114,120)    172.415                                          !
 ! D296  D(113,112,114,119)   -129.9208                                         !
 ! D297  D(113,112,114,120)     53.6589                                         !
 ! D298  D(115,112,114,119)    109.9336                                         !
 ! D299  D(115,112,114,120)    -66.4867                                         !
 ! D300  D(110,112,115,116)   -179.0179                                         !
 ! D301  D(110,112,115,117)    -58.8782                                         !
 ! D302  D(110,112,115,118)     61.0131                                         !
 ! D303  D(113,112,115,116)    -57.6462                                         !
 ! D304  D(113,112,115,117)     62.4935                                         !
 ! D305  D(113,112,115,118)   -177.6153                                         !
 ! D306  D(114,112,115,116)     62.925                                          !
 ! D307  D(114,112,115,117)   -176.9352                                         !
 ! D308  D(114,112,115,118)    -57.044                                          !
 ! D309  D(112,114,120,121)     -4.3701                                         !
 ! D310  D(112,114,120,122)    169.9281                                         !
 ! D311  D(119,114,120,121)    179.2954                                         !
 ! D312  D(119,114,120,122)     -6.4064                                         !
 ! D313  D(114,120,122,123)    -39.0327                                         !
 ! D314  D(114,120,122,124)   -156.8026                                         !
 ! D315  D(114,120,122,125)     81.3857                                         !
 ! D316  D(121,120,122,123)    135.6696                                         !
 ! D317  D(121,120,122,124)     17.8998                                         !
 ! D318  D(121,120,122,125)   -103.9119                                         !
 ! D319  D(120,122,124,128)    -24.7753                                         !
 ! D320  D(120,122,124,139)    156.3805                                         !
 ! D321  D(123,122,124,128)   -140.9323                                         !
 ! D322  D(123,122,124,139)     40.2235                                         !
 ! D323  D(125,122,124,128)     96.226                                          !
 ! D324  D(125,122,124,139)    -82.6182                                         !
 ! D325  D(120,122,125,126)    -51.8765                                         !
 ! D326  D(120,122,125,127)     62.6152                                         !
 ! D327  D(120,122,125,129)   -173.5056                                         !
 ! D328  D(123,122,125,126)     67.208                                          !
 ! D329  D(123,122,125,127)   -178.3004                                         !
 ! D330  D(123,122,125,129)    -54.4212                                         !
 ! D331  D(124,122,125,126)   -169.8606                                         !
 ! D332  D(124,122,125,127)    -55.3689                                         !
 ! D333  D(124,122,125,129)     68.5103                                         !
 ! D334  D(122,124,139,140)     -0.9653                                         !
 ! D335  D(122,124,139,141)    173.8659                                         !
 ! D336  D(128,124,139,140)   -179.7806                                         !
 ! D337  D(128,124,139,141)     -4.9495                                         !
 ! D338  D(122,125,129,130)    -59.8006                                         !
 ! D339  D(122,125,129,131)     60.1716                                         !
 ! D340  D(122,125,129,135)   -177.159                                          !
 ! D341  D(126,125,129,130)    179.9804                                         !
 ! D342  D(126,125,129,131)    -60.0474                                         !
 ! D343  D(126,125,129,135)     62.6219                                         !
 ! D344  D(127,125,129,130)     62.9619                                         !
 ! D345  D(127,125,129,131)   -177.0659                                         !
 ! D346  D(127,125,129,135)    -54.3965                                         !
 ! D347  D(125,129,131,132)     58.5469                                         !
 ! D348  D(125,129,131,133)    -61.7097                                         !
 ! D349  D(125,129,131,134)    177.8915                                         !
 ! D350  D(130,129,131,132)    178.9116                                         !
 ! D351  D(130,129,131,133)     58.655                                          !
 ! D352  D(130,129,131,134)    -61.7437                                         !
 ! D353  D(135,129,131,132)    -63.6235                                         !
 ! D354  D(135,129,131,133)    176.12                                           !
 ! D355  D(135,129,131,134)     55.7212                                         !
 ! D356  D(125,129,135,136)    -62.0618                                         !
 ! D357  D(125,129,135,137)    178.2392                                         !
 ! D358  D(125,129,135,138)     57.9959                                         !
 ! D359  D(130,129,135,136)    179.7404                                         !
 ! D360  D(130,129,135,137)     60.0414                                         !
 ! D361  D(130,129,135,138)    -60.2018                                         !
 ! D362  D(131,129,135,136)     61.8675                                         !
 ! D363  D(131,129,135,137)    -57.8315                                         !
 ! D364  D(131,129,135,138)   -178.0748                                         !
 ! D365  D(124,139,141,142)    -30.592                                          !
 ! D366  D(124,139,141,143)   -146.9102                                         !
 ! D367  D(124,139,141,144)     88.1848                                         !
 ! D368  D(140,139,141,142)    144.3133                                         !
 ! D369  D(140,139,141,143)     27.9951                                         !
 ! D370  D(140,139,141,144)    -96.9099                                         !
 ! D371  D(139,141,143,148)   -178.1003                                         !
 ! D372  D(139,141,143,149)      1.3089                                         !
 ! D373  D(142,141,143,148)     65.2602                                         !
 ! D374  D(142,141,143,149)   -115.3306                                         !
 ! D375  D(144,141,143,148)    -51.9597                                         !
 ! D376  D(144,141,143,149)    127.4495                                         !
 ! D377  D(139,141,144,145)   -179.9219                                         !
 ! D378  D(139,141,144,146)    -60.0161                                         !
 ! D379  D(139,141,144,147)     59.7701                                         !
 ! D380  D(142,141,144,145)    -61.9182                                         !
 ! D381  D(142,141,144,146)     57.9875                                         !
 ! D382  D(142,141,144,147)    177.7737                                         !
 ! D383  D(143,141,144,145)     54.1498                                         !
 ! D384  D(143,141,144,146)    174.0555                                         !
 ! D385  D(143,141,144,147)    -66.1583                                         !
 ! D386  D(141,143,149,150)   -179.3456                                         !
 ! D387  D(148,143,149,150)      0.0645                                         !
 --------------------------------------------------------------------------------
 Symmetry turned off by external request.
 Stoichiometry    C44H80N11O15(1+)
 Framework group  C1[X(C44H80N11O15)]
 Deg. of freedom   444
 Full point group                 C1      NOp   1
                          Input orientation:                          
 ---------------------------------------------------------------------
 Center     Atomic      Atomic             Coordinates (Angstroms)
 Number     Number       Type             X           Y           Z
 ---------------------------------------------------------------------
      1          7           0       -0.103408   -5.716676   -6.482412
      2          1           0        0.643513   -5.521667   -7.153369
      3          1           0       -0.547699   -6.602510   -6.737289
      4          1           0        0.307154   -5.750952   -5.490575
      5          6           0       -1.094508   -4.579295   -6.333358
      6          1           0       -0.897016   -3.849559   -7.120541
      7          6           0       -0.728739   -4.005423   -4.936263
      8          6           0       -2.539039   -5.092884   -6.387275
      9          1           0       -3.193143   -4.242924   -6.157249
     10          1           0       -2.679351   -5.810424   -5.566491
     11          8           0        0.067726   -4.660855   -4.242338
     12          6           0       -2.980170   -5.718156   -7.727137
     13          1           0       -2.332047   -6.584272   -7.949784
     14          6           0       -4.414509   -6.250368   -7.587611
     15          1           0       -5.112032   -5.429605   -7.381939
     16          1           0       -4.498421   -6.977337   -6.772019
     17          1           0       -4.737026   -6.740073   -8.511650
     18          6           0       -2.871697   -4.728053   -8.895563
[...]
 Alpha virt. eigenvalues --    1.78603   1.78737   1.78978   1.79142   1.79366
 Alpha virt. eigenvalues --    1.79816   1.80014   1.80174   1.80430   1.80807
 Alpha virt. eigenvalues --    1.80953   1.81327   1.81549   1.81991   1.82461
 Alpha virt. eigenvalues --    1.82709   1.82983   1.83338   1.83774   1.84530
 Alpha virt. eigenvalues --    1.84583   1.85169   1.85566   1.85784   1.85962
 Alpha virt. eigenvalues --    1.86129   1.86539   1.86951   1.87373   1.87671
 Alpha virt. eigenvalues --    1.87744   1.88007   1.88202   1.89079   1.89113
 Alpha virt. eigenvalues --    1.89334   1.89624   1.89936   1.90170   1.90425
 Alpha virt. eigenvalues --    1.90798   1.90988   1.91173   1.91437   1.91769
 Alpha virt. eigenvalues --    1.92186   1.92298   1.92705   1.93084   1.93352
 Alpha virt. eigenvalues --    1.93445   1.93789   1.94081   1.94422   1.95048
 Alpha virt. eigenvalues --    1.95354   1.95740   1.95964   1.96283   1.96544
 Alpha virt. eigenvalues --    1.96606   1.96993   1.97112   1.97504   1.98300
 Alpha virt. eigenvalues --    1.98496   1.98856   1.98954   1.99032   1.99280
 Alpha virt. eigenvalues --    1.99681   2.00083   2.00447   2.00729   2.01423
 Alpha virt. eigenvalues --    2.01629   2.02299   2.02493   2.02963   2.03280
 Alpha virt. eigenvalues --    2.03595   2.03929   2.04118   2.04651   2.04713
 Alpha virt. eigenvalues --    2.04890   2.05235   2.05855   2.06017   2.06109
 Alpha virt. eigenvalues --    2.06632   2.06879   2.07190   2.07290   2.07859
 Alpha virt. eigenvalues --    2.08847   2.09081   2.10123   2.10550   2.10871
 Alpha virt. eigenvalues --    2.11169   2.11861   2.12208   2.12835   2.12955
 Alpha virt. eigenvalues --    2.13426   2.14364   2.14745   2.14875   2.15047
 Alpha virt. eigenvalues --    2.15567   2.15732   2.15866   2.16110   2.17090
 Alpha virt. eigenvalues --    2.17297   2.17770   2.18014   2.18136   2.18914
 Alpha virt. eigenvalues --    2.19105   2.20217   2.20255   2.20667   2.20723
 Alpha virt. eigenvalues --    2.20762   2.21102   2.21308   2.21762   2.21923
 Alpha virt. eigenvalues --    2.22504   2.23244   2.23654   2.24219   2.24843
 Alpha virt. eigenvalues --    2.24986   2.25250   2.25881   2.26561   2.27320
 Alpha virt. eigenvalues --    2.27624   2.28145   2.28877   2.29439   2.29771
 Alpha virt. eigenvalues --    2.30340   2.30594   2.30793   2.31015   2.31672
 Alpha virt. eigenvalues --    2.32220   2.32861   2.33812   2.34203   2.34824
 Alpha virt. eigenvalues --    2.35361   2.35967   2.36163   2.36689   2.38076
 Alpha virt. eigenvalues --    2.38217   2.38611   2.38918   2.39040   2.39546
 Alpha virt. eigenvalues --    2.39828   2.40183   2.40788   2.40875   2.41582
 Alpha virt. eigenvalues --    2.41697   2.42005   2.42438   2.43001   2.43464
 Alpha virt. eigenvalues --    2.43642   2.43846   2.44366   2.44739   2.44851
 Alpha virt. eigenvalues --    2.45271   2.46073   2.46245   2.46523   2.46671
 Alpha virt. eigenvalues --    2.47029   2.47247   2.47892   2.48558   2.49052
 Alpha virt. eigenvalues --    2.49608   2.50885   2.51496   2.51538   2.53048
 Alpha virt. eigenvalues --    2.53603   2.54244   2.55416   2.55965   2.56430
 Alpha virt. eigenvalues --    2.57041   2.57233   2.57569   2.57694   2.58423
 Alpha virt. eigenvalues --    2.59193   2.59613   2.59966   2.60532   2.60852
 Alpha virt. eigenvalues --    2.61037   2.61873   2.62226   2.62796   2.63363
 Alpha virt. eigenvalues --    2.63481   2.64028   2.64198   2.64597   2.65640
 Alpha virt. eigenvalues --    2.65832   2.65911   2.66836   2.67538   2.68022
 Alpha virt. eigenvalues --    2.68659   2.69252   2.70399   2.71379   2.72668
 Alpha virt. eigenvalues --    2.73142   2.73568   2.74394   2.76205   2.76921
 Alpha virt. eigenvalues --    2.77535   2.78863   2.79587   2.80436   2.81224
 Alpha virt. eigenvalues --    2.81738   2.82371   2.82525   2.83987   2.84367
 Alpha virt. eigenvalues --    2.85846   2.86629   2.87434   2.87959   2.89209
 Alpha virt. eigenvalues --    2.89432   2.90502   2.91361   2.91466   2.93609
 Alpha virt. eigenvalues --    2.94466   2.94697   2.94978   2.95914   2.96094
 Alpha virt. eigenvalues --    2.97664   2.98757   2.99637   3.01106   3.03476
 Alpha virt. eigenvalues --    3.04662   3.04713   3.09516   3.09733   3.10005
 Alpha virt. eigenvalues --    3.11078   3.11301   3.13885   3.15137   3.15634
 Alpha virt. eigenvalues --    3.65590   3.71635   3.79767   3.85768   3.87542
 Alpha virt. eigenvalues --    3.88608   3.93870   3.94974   3.96083   3.97177
 Alpha virt. eigenvalues --    3.97926   3.99257   4.00288   4.01317   4.03658
 Alpha virt. eigenvalues --    4.04654   4.05306   4.06196   4.07069   4.08083
 Alpha virt. eigenvalues --    4.08909   4.10713   4.11233   4.12331   4.13380
 Alpha virt. eigenvalues --    4.14014   4.14886   4.15079   4.16897   4.17899
 Alpha virt. eigenvalues --    4.19371   4.19734   4.19955   4.21473   4.22278
 Alpha virt. eigenvalues --    4.23177   4.23755   4.24502   4.25456   4.26008
 Alpha virt. eigenvalues --    4.27101   4.27700   4.29003   4.30486   4.31484
 Alpha virt. eigenvalues --    4.34274   4.34927   4.35943   4.38882   4.41003
 Alpha virt. eigenvalues --    4.42522   4.43277   4.45702   4.46740   4.48157
 Alpha virt. eigenvalues --    4.50367   4.51682   4.52796   4.53576   4.54960
 Alpha virt. eigenvalues --    4.56673   4.57376   4.57772   4.58827   4.59286
 Alpha virt. eigenvalues --    4.61360   4.61742   4.63493   4.64282   4.65388
          Condensed to atoms (all electrons):
 Mulliken charges:
               1
     1  N   -0.760732
     2  H    0.413187
     3  H    0.409895
     4  H    0.433724
     5  C   -0.117043
     6  H    0.215379
     7  C    0.657435
     8  C   -0.298003
     9  H    0.198223
    10  H    0.172085
    11  O   -0.546714
    12  C   -0.096508
    13  H    0.111835
    14  C   -0.447633
    15  H    0.167186
    16  H    0.158215
    17  H    0.173116
    18  C   -0.454324
    19  H    0.169440
    20  H    0.131511
    21  H    0.181912
    22  N   -0.589574
    23  H    0.370107
    24  C   -0.093219
    25  H    0.187334
    26  C    0.632812
    27  C   -0.096154
    28  H    0.191762
    29  O   -0.561386
    30  C   -0.468128
    31  H    0.120609
    32  H    0.189086
    33  H    0.158051
    34  C   -0.459315
    35  H    0.118591
    36  H    0.163124
    37  H    0.176589
    38  N   -0.620070
    39  H    0.404094
    40  C   -0.067882
    41  H    0.179454
    42  C    0.630737
    43  C   -0.121667
    44  H    0.176223
    45  O   -0.553783
    46  C   -0.475122
    47  H    0.140916
    48  H    0.165480
    49  H    0.165084
    50  C   -0.442151
    51  H    0.144134
    52  H    0.156212
    53  H    0.156950
    54  N   -0.596515
    55  H    0.358079
    56  C   -0.065070
    57  H    0.185923
    58  C    0.629681
    59  C   -0.069302
    60  H    0.162054
    61  H    0.167003
    62  O   -0.521511
    63  O   -0.631982
    64  H    0.410825
    65  N   -0.636929
    66  H    0.405570
    67  C   -0.114638
    68  H    0.183096
    69  C    0.646745
    70  C    0.156138
    71  H    0.133453
    72  O   -0.550529
    73  C   -0.450796
    74  H    0.164707
    75  H    0.165223
    76  H    0.155436
    77  O   -0.661269
    78  H    0.426052
    79  N   -0.610892
    80  H    0.344699
    81  C   -0.063123
    82  H    0.188042
    83  C    0.617983
    84  C   -0.270964
    85  H    0.172478
    86  H    0.168674
    87  O   -0.525808
    88  C   -0.392283
    89  H    0.159312
    90  H    0.177333
    91  C    0.589963
    92  N   -0.795222
    93  H    0.388097
    94  H    0.333511
    95  O   -0.507141
    96  N   -0.604892
    97  H    0.374230
    98  C   -0.089851
    99  H    0.193108
   100  C    0.638032
   101  C    0.134641
   102  H    0.138685
   103  O   -0.568234
   104  C   -0.507347
   105  H    0.151005
   106  H    0.224397
   107  H    0.151487
   108  O   -0.690421
   109  H    0.441396
   110  N   -0.632649
   111  H    0.400515
   112  C   -0.032296
   113  H    0.179741
   114  C    0.630789
   115  C   -0.474650
   116  H    0.158533
   117  H    0.196110
   118  H    0.161300
   119  O   -0.548272
   120  N   -0.615443
   121  H    0.358897
   122  C   -0.066906
   123  H    0.180092
   124  C    0.616297
   125  C   -0.256127
   126  H    0.166032
   127  H    0.148553
   128  O   -0.541094
   129  C   -0.097115
   130  H    0.141340
   131  C   -0.465343
   132  H    0.151297
   133  H    0.136693
   134  H    0.157602
   135  C   -0.444708
   136  H    0.147625
   137  H    0.150137
   138  H    0.148569
   139  N   -0.612369
   140  H    0.362146
   141  C   -0.049872
   142  H    0.214629
   143  C    0.591929
   144  C   -0.444760
   145  H    0.186558
   146  H    0.175442
   147  H    0.156569
   148  O   -0.443645
   149  O   -0.580354
   150  H    0.424780
 Sum of Mulliken charges =   1.00000
 Mulliken charges with hydrogens summed into heavy atoms:
               1
     1  N    0.496075
     5  C    0.098337
     7  C    0.657435
     8  C    0.072305
    11  O   -0.546714
    12  C    0.015327
    14  C    0.050884
    18  C    0.028539
    22  N   -0.219466
    24  C    0.094114
    26  C    0.632812
    27  C    0.095608
    29  O   -0.561386
    30  C   -0.000382
    34  C   -0.001010
    38  N   -0.215976
    40  C    0.111572
    42  C    0.630737
    43  C    0.054556
    45  O   -0.553783
    46  C   -0.003642
    50  C    0.015145
    54  N   -0.238436
    56  C    0.120853
    58  C    0.629681
    59  C    0.259755
    62  O   -0.521511
    63  O   -0.221157
    65  N   -0.231358
    67  C    0.068458
    69  C    0.646745
    70  C    0.289591
    72  O   -0.550529
    73  C    0.034570
    77  O   -0.235217
    79  N   -0.266193
    81  C    0.124919
    83  C    0.617983
    84  C    0.070188
    87  O   -0.525808
    88  C   -0.055638
    91  C    0.589963
    92  N   -0.073614
    95  O   -0.507141
    96  N   -0.230662
    98  C    0.103257
   100  C    0.638032
   101  C    0.273327
   103  O   -0.568234
   104  C    0.019543
   108  O   -0.249026
   110  N   -0.232134
   112  C    0.147445
   114  C    0.630789
   115  C    0.041293
   119  O   -0.548272
   120  N   -0.256546
   122  C    0.113187
   124  C    0.616297
   125  C    0.058457
   128  O   -0.541094
   129  C    0.044225
   131  C   -0.019751
   135  C    0.001624
   139  N   -0.250223
   141  C    0.164757
   143  C    0.591929
   144  C    0.073809
   148  O   -0.443645
   149  O   -0.155574
 Electronic spatial extent (au):  <R**2>=          93953.4951
 Charge=              1.0000 electrons
 Dipole moment (field-independent basis, Debye):
    X=             -1.3548    Y=            -18.3061    Z=            -21.4173  Tot=             28.2072
 Quadrupole moment (field-independent basis, Debye-Ang):
   XX=           -299.6418   YY=           -310.1689   ZZ=           -234.7512
   XY=             -5.1992   XZ=             62.9820   YZ=            116.4495
 Traceless Quadrupole moment (field-independent basis, Debye-Ang):
   XX=            -18.1212   YY=            -28.6483   ZZ=             46.7695
   XY=             -5.1992   XZ=             62.9820   YZ=            116.4495
 Octapole moment (field-independent basis, Debye-Ang**2):
  XXX=          -1493.9271  YYY=           -116.5873  ZZZ=           -720.3262  XYY=           -863.1313
  XXY=            175.0555  XXZ=            508.6878  XZZ=           -745.0782  YZZ=           -783.8658
  YYZ=           -685.4765  XYZ=           -138.0863
 Hexadecapole moment (field-independent basis, Debye-Ang**3):
 XXXX=         -68292.9374 YYYY=         -14775.9724 ZZZZ=         -17490.3560 XXXY=            809.4850
 XXXZ=          -2593.7426 YYYX=           1435.8282 YYYZ=          -1163.9031 ZZZX=          -8432.8602
 ZZZY=           1590.9960 XXYY=         -15441.6408 XXZZ=         -14584.0865 YYZZ=          -1755.4657
 XXYZ=          -2264.0844 YYXZ=          -2539.1757 ZZXY=            886.6926
 N-N= 1.247332750253D+04 E-N=-3.296470246646D+04  KE= 3.423863265462D+03
 Unable to Open any file for archive entry.
 1\1\GINC-LAC-305\SP\RB3LYP\6-31G(d)\C44H80N11O15(1+)\KENGMITH\02-Jul-2
 022\0\\# B3LYP/6-31G* empiricaldispersion=gd3 guess=read geom=check no
 symm integral(ultrafinegrid)\\Candidate Structure: Conf:684 Charge cal
 c in gas phase\\1,1\N,0,-0.1034078563,-5.7166757271,-6.482412442\H,0,0
 .6435128705,-5.521666786,-7.1533692902\H,0,-0.5476985136,-6.6025096458
 ,-6.7372892002\H,0,0.3071541997,-5.7509520789,-5.4905750666\C,0,-1.094
 5075161,-4.5792950458,-6.3333576557\H,0,-0.8970156817,-3.8495586405,-7
 .120541342\C,0,-0.7287387415,-4.005423258,-4.9362634974\C,0,-2.5390393
 754,-5.0928841328,-6.3872752514\H,0,-3.1931429676,-4.2429238919,-6.157
 2493227\H,0,-2.6793514731,-5.8104240835,-5.5664910875\O,0,0.0677255307
 ,-4.6608553269,-4.2423381535\C,0,-2.980170283,-5.7181556002,-7.7271365
 363\H,0,-2.3320470801,-6.5842715638,-7.9497844397\C,0,-4.4145088521,-6
 .2503683274,-7.5876110644\H,0,-5.1120316791,-5.429605014,-7.3819387591
 \H,0,-4.4984214411,-6.9773365337,-6.7720188299\H,0,-4.7370255603,-6.74
 00725393,-8.5116495517\C,0,-2.8716968991,-4.7280533494,-8.8955634397\H
 ,0,-3.479437422,-3.8352725388,-8.7040268288\H,0,-1.8418393025,-4.40025
 42454,-9.0840415767\H,0,-3.2362458165,-5.1853593965,-9.8205113634\N,0,
 -1.3217699884,-2.872096899,-4.6051064211\H,0,-2.0491653642,-2.46047921
 71,-5.1919660012\C,0,-1.2860009356,-2.2424822453,-3.2830429481\H,0,-1.
 049411583,-3.007667238,-2.5389621483\C,0,-2.7114663507,-1.6954060789,-
 3.0848175482\C,0,-0.2358464704,-1.094041997,-3.2055641302\H,0,-0.35534
 28253,-0.6483372398,-2.2124314162\O,0,-3.4172500115,-1.4648926665,-4.0
 731920579\C,0,1.1872679527,-1.6533227224,-3.3394905918\H,0,1.353169787
 3,-2.0693650256,-4.3409575458\H,0,1.4015725966,-2.435850753,-2.6066426
 286\H,0,1.915132492,-0.8475387249,-3.1934277848\C,0,-0.4978175799,0.00
 72198797,-4.2410189671\H,0,-0.4012195796,-0.3781388719,-5.264314871\H,
 0,0.2385987966,0.8072319003,-4.1163911192\H,0,-1.4902113431,0.44798199
 06,-4.1261892877\N,0,-3.081109876,-1.4639770618,-1.8095832136\H,0,-2.3
 473872945,-1.5509098631,-1.1012296309\C,0,-4.1458569069,-0.505044639,-
 1.5285719248\H,0,-4.930269322,-0.6530828168,-2.2781573104\C,0,-3.51493
 27138,0.8986898927,-1.7095055254\C,0,-4.7342641446,-0.7427437044,-0.11
 00371482\H,0,-3.9577555427,-0.4859186931,0.6215746313\O,0,-2.279345960
 8,0.9992934701,-1.7005888126\C,0,-5.9563684329,0.1459986809,0.16261362
 03\H,0,-6.7412195199,-0.0211968427,-0.5876744917\H,0,-5.7054501877,1.2
 088379691,0.1735067252\H,0,-6.3818471181,-0.0969061277,1.1414951518\C,
 0,-5.1110751125,-2.2220549446,0.0644810386\H,0,-5.8741047852,-2.519193
 3621,-0.6662970225\H,0,-4.2498677502,-2.8835434536,-0.0635048272\H,0,-
 5.5223276783,-2.3879185331,1.0659453695\N,0,-4.3214541705,1.9724813963
 ,-1.8305757369\H,0,-5.2965389291,1.8238729277,-2.0617580399\C,0,-3.813
 7977142,3.3355469435,-2.0895922816\H,0,-3.0393099615,3.2646917173,-2.8
 627300959\C,0,-3.2185806774,3.946101137,-0.7851571773\C,0,-4.97062967,
 4.2018933707,-2.5767408779\H,0,-4.5658994929,5.1667000612,-2.910153010
 9\H,0,-5.6474397679,4.3996576356,-1.7353379417\O,0,-3.8080677522,4.809
 5387467,-0.1474121379\O,0,-5.6194796142,3.4914197373,-3.6289694696\H,0
 ,-6.3954781248,4.0039674616,-3.901003223\N,0,-2.0361704224,3.383716477
 7,-0.430139907\H,0,-1.6530452082,2.6721403119,-1.050888622\C,0,-1.4799
 103377,3.3551878202,0.9086173695\H,0,-1.4443306483,4.3611840489,1.3391
 588342\C,0,-0.0847309277,2.7146202374,0.771082284\C,0,-2.2773503118,2.
 4046590454,1.8594454475\H,0,-1.7454153631,2.3989955273,2.8205330459\O,
 0,0.2067550411,2.0647880977,-0.23847986\C,0,-3.726684586,2.8000664941,
 2.1199472582\H,0,-3.8046041383,3.8264276991,2.4896906251\H,0,-4.324355
 6576,2.7245817939,1.2109674895\H,0,-4.1444536364,2.1134321834,2.863121
 5526\O,0,-2.203923813,1.0632654583,1.3733116477\H,0,-2.0895312867,1.05
 59271677,0.4056574164\N,0,0.7374330409,2.7774219968,1.8426161806\H,0,0
 .4505190631,3.265260387,2.6810848661\C,0,1.9715678058,1.9887419038,1.8
 815896004\H,0,2.3002565086,1.9186229228,0.8385496614\C,0,1.7166628566,
 0.5323617209,2.3599946552\C,0,3.0661736287,2.6514598006,2.7204051453\H
 ,0,2.8526348856,2.5010562398,3.7833561496\H,0,3.0794721326,3.728387389
 3,2.5300282348\O,0,2.2883886852,0.0749575454,3.3491831874\C,0,4.440575
 4406,2.0517785529,2.3822506976\H,0,4.7566370644,2.3987139499,1.3883359
 988\H,0,4.3826746802,0.9630319988,2.3505242891\C,0,5.5056348751,2.4906
 805657,3.3839794335\N,0,6.3810127946,1.5025648055,3.7567953947\H,0,6.1
 335221978,0.5265202644,3.6190052231\H,0,7.0003808027,1.7253577749,4.52
 54418727\O,0,5.5832866662,3.6425961644,3.7871880338\N,0,0.9007143617,-
 0.2288818708,1.5785860063\H,0,0.5098077339,0.1638918263,0.7265561765\C
 ,0,0.9058617022,-1.6857009853,1.7228675257\H,0,1.0721056055,-1.9092216
 312,2.7800038199\C,0,2.0951135362,-2.2041949806,0.881269081\C,0,-0.407
 9593089,-2.336811935,1.2603925774\H,0,-0.2416164427,-3.4241365527,1.28
 45437275\O,0,1.9203885738,-2.7174483997,-0.2362382479\C,0,-1.599089741
 ,-1.9828802544,2.1313052442\H,0,-1.4334714372,-2.3322078885,3.15623596
 85\H,0,-1.7657368049,-0.9045172656,2.1412835088\H,0,-2.496884589,-2.47
 64560259,1.7438674388\O,0,-0.6856032932,-1.9429812546,-0.0959068773\H,
 0,0.1168513671,-2.2311390231,-0.5821453775\N,0,3.310701611,-1.96733690
 37,1.4085421632\H,0,3.3846454963,-1.5078025176,2.3166505398\C,0,4.5451
 565634,-2.0342129164,0.6390771314\H,0,4.6955616639,-3.0582064965,0.276
 0743935\C,0,5.6857415024,-1.6412292455,1.5943132734\C,0,4.5227765763,-
 1.06491967,-0.5618788201\H,0,5.4478010868,-1.1365719434,-1.1420220926\
 H,0,3.6808368742,-1.3087438207,-1.2124689256\H,0,4.4154909034,-0.03386
 71923,-0.2075863852\O,0,5.445574871,-1.1514666337,2.7053627616\N,0,6.9
 294152251,-1.7945468007,1.1136835977\H,0,7.1152575461,-2.2073645062,0.
 2046893412\C,0,8.1057194514,-1.2733480449,1.7999266947\H,0,7.843918080
 2,-0.2949094201,2.2145487693\C,0,9.1838169611,-1.11785141,0.7189759022
 \C,0,8.5506247223,-2.2271564005,2.9352736554\H,0,7.6590551709,-2.41317
 67997,3.5466940074\H,0,8.8323220749,-3.1828506821,2.4749809203\O,0,9.1
 544270808,-1.7949140189,-0.3094525235\C,0,9.68838835,-1.7329252103,3.8
 490319987\H,0,10.5811580841,-1.5468509039,3.2379778719\C,0,9.325515196
 9,-0.4307646377,4.5816586849\H,0,8.4229092024,-0.571034553,5.190812173
 9\H,0,9.1313512255,0.4070233875,3.9004901134\H,0,10.1364234933,-0.1237
 879811,5.2508799565\C,0,10.0398527161,-2.8320542116,4.8630757989\H,0,9
 .1811166034,-3.0578437275,5.5080608647\H,0,10.8690122295,-2.520358645,
 5.5080346784\H,0,10.3347126222,-3.7599688343,4.3596352882\N,0,10.15828
 79816,-0.2192145621,0.9887942876\H,0,10.1319112349,0.3060082617,1.8515
 383846\C,0,11.3164312637,-0.0601520265,0.1178824415\H,0,11.5119453144,
 -1.0381628722,-0.3361701999\C,0,12.5728249109,0.3129579203,0.896336387
 7\C,0,11.0689795872,0.9544159269,-1.0099876735\H,0,11.9604525341,1.039
 7174718,-1.636220025\H,0,10.2285443434,0.6096067658,-1.6176718464\H,0,
 10.8297770802,1.9408826187,-0.599025293\O,0,13.6392853452,0.526343652,
 0.3732420351\O,0,12.3716965807,0.3944254955,2.23741811\H,0,13.22778656
 01,0.6467238219,2.6332777599\\Version=ES64L-G16RevC.01\HF=-3455.717483
 2\RMSD=7.351e-09\Dipole=-3.4852904,-6.3363373,-7.6045856\Quadrupole=-1
 3.4726593,-21.2992811,34.7719404,-3.8654964,46.825541,86.5773221\PG=C0
 1 [X(C44H80N11O15)]\\@
 The archive entry for this job was punched.


 SOME PHYSICISTS WOULD PREFER TO COME BACK TO THE IDEA OF AN OBJECTIVE
 REAL WORLD WHOSE SMALLEST PARTS EXIST OBJECTIVELY IN THE SAME SENSE AS
 STONES OR TREES EXIST INDEPENDENTLY OF WHETHER WE OBSERVE THEM.
 THIS, HOWEVER, IS IMPOSSIBLE.  -- WERNER HEISENBERG
 Job cpu time:       0 days  0 hours 10 minutes 42.5 seconds.
 Elapsed time:       0 days  0 hours  2 minutes 41.8 seconds.
 File lengths (MBytes):  RWF=    872 Int=      0 D2E=      0 Chk=    144 Scr=     16
 Normal termination of Gaussian 16 at Sat Jul  2 15:27:37 2022.
