 Entering Gaussian System, Link 0=/opt/software/Gaussian/g16-AVX2-C.01/g16/g16
 Input=charge-conf-961.com
 Output=charge-conf-961.log
 Initial command:
 /opt/software/Gaussian/g16-AVX2-C.01/g16/l1.exe "/mnt/gs18/scratch/users/kengmith/Gau-9312.inp" -scrdir="/mnt/gs18/scratch/users/kengmith/"
 Entering Link 1 = /opt/software/Gaussian/g16-AVX2-C.01/g16/l1.exe PID=      9322.
  
 Copyright (c) 1988-2019, Gaussian, Inc.  All Rights Reserved.
  
 This is part of the Gaussian(R) 16 program.  It is based on
 the Gaussian(R) 09 system (copyright 2009, Gaussian, Inc.),
 the Gaussian(R) 03 system (copyright 2003, Gaussian, Inc.),
 the Gaussian(R) 98 system (copyright 1998, Gaussian, Inc.),
 the Gaussian(R) 94 system (copyright 1995, Gaussian, Inc.),
 the Gaussian 92(TM) system (copyright 1992, Gaussian, Inc.),
 the Gaussian 90(TM) system (copyright 1990, Gaussian, Inc.),
 the Gaussian 88(TM) system (copyright 1988, Gaussian, Inc.),
 the Gaussian 86(TM) system (copyright 1986, Carnegie Mellon
 University), and the Gaussian 82(TM) system (copyright 1983,
 Carnegie Mellon University). Gaussian is a federally registered
 trademark of Gaussian, Inc.
  
 This software contains proprietary and confidential information,
 including trade secrets, belonging to Gaussian, Inc.
  
 This software is provided under written license and may be
 used, copied, transmitted, or stored only in accord with that
 written license.
  
 The following legend is applicable only to US Government
 contracts under FAR:
  
                    RESTRICTED RIGHTS LEGEND
  
 Use, reproduction and disclosure by the US Government is
 subject to restrictions as set forth in subparagraphs (a)
 and (c) of the Commercial Computer Software - Restricted
 Rights clause in FAR 52.227-19.
  
 Gaussian, Inc.
 340 Quinnipiac St., Bldg. 40, Wallingford CT 06492
  
  
 ---------------------------------------------------------------
 Warning -- This program may not be used in any manner that
 competes with the business of Gaussian, Inc. or will provide
 assistance to any competitor of Gaussian, Inc.  The licensee
 of this program is prohibited from giving any competitor of
 Gaussian, Inc. access to this program.  By using this program,
 the user acknowledges that Gaussian, Inc. is engaged in the
 business of creating and licensing software in the field of
 computational chemistry and represents and warrants to the
 licensee that it is not a competitor of Gaussian, Inc. and that
 it will not use this program in any manner prohibited above.
 ---------------------------------------------------------------
  

 Cite this work as:
 Gaussian 16, Revision C.01,
 M. J. Frisch, G. W. Trucks, H. B. Schlegel, G. E. Scuseria, 
 M. A. Robb, J. R. Cheeseman, G. Scalmani, V. Barone, 
 G. A. Petersson, H. Nakatsuji, X. Li, M. Caricato, A. V. Marenich, 
 J. Bloino, B. G. Janesko, R. Gomperts, B. Mennucci, H. P. Hratchian, 
 J. V. Ortiz, A. F. Izmaylov, J. L. Sonnenberg, D. Williams-Young, 
 F. Ding, F. Lipparini, F. Egidi, J. Goings, B. Peng, A. Petrone, 
 T. Henderson, D. Ranasinghe, V. G. Zakrzewski, J. Gao, N. Rega, 
 G. Zheng, W. Liang, M. Hada, M. Ehara, K. Toyota, R. Fukuda, 
 J. Hasegawa, M. Ishida, T. Nakajima, Y. Honda, O. Kitao, H. Nakai, 
 T. Vreven, K. Throssell, J. A. Montgomery, Jr., J. E. Peralta, 
 F. Ogliaro, M. J. Bearpark, J. J. Heyd, E. N. Brothers, K. N. Kudin, 
 V. N. Staroverov, T. A. Keith, R. Kobayashi, J. Normand, 
 K. Raghavachari, A. P. Rendell, J. C. Burant, S. S. Iyengar, 
 J. Tomasi, M. Cossi, J. M. Millam, M. Klene, C. Adamo, R. Cammi, 
 J. W. Ochterski, R. L. Martin, K. Morokuma, O. Farkas, 
 J. B. Foresman, and D. J. Fox, Gaussian, Inc., Wallingford CT, 2019.
 
 ******************************************
 Gaussian 16:  ES64L-G16RevC.01  3-Jul-2019
                 2-Jul-2022 
 ******************************************
 %mem=8gb
 %nproc=4
 Will use up to    4 processors via shared memory.
 %chk=conf-961.chk
 ----------------------------------------------------------------------
 # B3LYP/6-31G* empiricaldispersion=gd3 guess=read geom=check nosymm in
 tegral(ultrafinegrid)
 ----------------------------------------------------------------------
 1/29=2,38=1,172=1/1;
 2/12=2,15=1,40=1/2;
 3/5=1,6=6,7=1,11=2,14=-4,25=1,30=1,74=-5,75=-5,116=-2,124=31/1,2,3;
 4/5=1/1;
 5/5=2,38=6/2;
 6/7=2,8=2,9=2,10=2,28=1/1;
 99/5=1,9=1/99;
 ------------------------------------------------------
 Candidate Structure: Conf:961 Charge calc in gas phase
 ------------------------------------------------------
 Structure from the checkpoint file:  "conf-961.chk"
 Charge =  1 Multiplicity = 1
 Redundant internal coordinates found in file.  (old form).
 N,0,-4.537093163,-8.3894237266,-4.6324513372
 H,0,-4.6728136143,-8.9135438275,-5.5026333515
 H,0,-4.7730037244,-8.9956051929,-3.8413785775
 H,0,-3.5273565691,-8.0756376028,-4.5895724216
 C,0,-5.2780651955,-7.063204423,-4.6110243892
 H,0,-6.1442087306,-7.1409690729,-5.2701713993
 C,0,-4.2036810127,-6.0795769211,-5.1359318211
 C,0,-5.6822135148,-6.7457582419,-3.1575632673
 H,0,-4.7724013321,-6.7792847603,-2.5426320507
 H,0,-6.3492302747,-7.5475707633,-2.8081067978
 O,0,-3.0181459336,-6.4135171165,-5.0017023915
 C,0,-6.3876260532,-5.3884101412,-2.9419583688
 H,0,-5.7119264039,-4.5900838617,-3.267849696
 C,0,-7.6952836897,-5.270845487,-3.7374456391
 H,0,-8.4137815671,-6.0397553735,-3.4272100284
 H,0,-7.555821337,-5.3647815918,-4.8218321202
 H,0,-8.151540009,-4.2914895908,-3.568884742
 C,0,-6.6443282214,-5.1889026249,-1.4410850646
 H,0,-7.3264181599,-5.9532824393,-1.0490959029
 H,0,-5.713690865,-5.2309492198,-0.8647334767
 H,0,-7.1026863619,-4.2107558962,-1.2638667112
 N,0,-4.6445556615,-4.9357580453,-5.6517224202
 H,0,-5.6378339537,-4.7119679115,-5.6335942819
 C,0,-3.8075543579,-3.7430007766,-5.8394061078
 H,0,-2.8375501467,-3.945240116,-5.3749537425
 C,0,-4.5826169184,-2.6424609752,-5.085776964
 C,0,-3.6064346644,-3.4057385402,-7.3366387714
 H,0,-4.6041756978,-3.2158420231,-7.7563242073
 O,0,-5.8173455323,-2.6384848116,-5.12555526
 C,0,-2.75527603,-2.1374242308,-7.496538721
 H,0,-1.7634843479,-2.270969139,-7.0453447722
 H,0,-3.2239092077,-1.2627403218,-7.0356093523
 H,0,-2.6065745746,-1.9166903462,-8.5579064711
 C,0,-2.9695726024,-4.5914657768,-8.073301412
 H,0,-1.9827228367,-4.8268302474,-7.6573589169
 H,0,-2.8413751462,-4.3533848797,-9.1339491706
 H,0,-3.5892714151,-5.4916172304,-8.0057446636
 N,0,-3.8452233463,-1.7532886929,-4.4030797667
 H,0,-2.8367000441,-1.8487178696,-4.3280757152
 C,0,-4.4233279762,-0.7344604073,-3.533686835
 H,0,-5.1807896219,-0.1805521867,-4.099967949
 C,0,-3.253835806,0.1836231771,-3.1583506354
 C,0,-5.1180978484,-1.3698206341,-2.2843446267
 H,0,-5.941582754,-1.9543783959,-2.7114178626
 O,0,-2.1017919371,-0.2537496351,-3.1206054399
 C,0,-4.1932378161,-2.3202183968,-1.5127167695
 H,0,-3.3227629233,-1.8191661268,-1.079194113
 H,0,-3.8252136848,-3.1277202147,-2.1563024091
 H,0,-4.7459178766,-2.7817237899,-0.6873654847
 C,0,-5.728514073,-0.3036313215,-1.364608351
 H,0,-4.9570304929,0.2796217445,-0.8510608524
 H,0,-6.3834329397,0.3851291389,-1.9152635429
 H,0,-6.3408624957,-0.781685371,-0.5933701154
 N,0,-3.5572890641,1.472934985,-2.8589502686
 H,0,-4.5319563572,1.7272712526,-2.7546009168
 C,0,-2.5582768287,2.4225454239,-2.3606411341
 H,0,-1.6061282843,2.12484214,-2.8163607587
 C,0,-2.3146778436,2.3570150609,-0.8380411141
 C,0,-2.8781303613,3.840642778,-2.8408265299
 H,0,-2.3022282362,4.5576370338,-2.2567369288
 H,0,-3.9433904403,4.0724725554,-2.6825475228
 O,0,-2.176000875,3.3855236409,-0.1773363192
 O,0,-2.4961548498,4.0264327764,-4.1979159992
 H,0,-2.9519798904,3.3653495104,-4.7427959317
 N,0,-2.159017912,1.1085997785,-0.3259337043
 H,0,-2.0440685784,0.3285769149,-0.9680816715
 C,0,-1.4760218833,0.9129437153,0.9593163862
 H,0,-1.8060454691,1.6987293521,1.6428303425
 C,0,0.0343747423,1.0457460592,0.6838205561
 C,0,-1.8004343913,-0.4774993229,1.5329283361
 H,0,-1.1388555145,-0.6182616101,2.3985334195
 O,0,0.7574537091,0.0460254694,0.5458794822
 C,0,-3.2522670549,-0.6118328253,1.9650401903
 H,0,-3.4851507119,0.0923578705,2.7706759886
 H,0,-3.9286833197,-0.4182767319,1.1270835206
 H,0,-3.4319891326,-1.6286737448,2.325903948
 O,0,-1.5427270308,-1.4707218509,0.5377267353
 H,0,-0.5799767845,-1.4071747433,0.3735473211
 N,0,0.4805116789,2.3038731575,0.5132179964
 H,0,-0.1714117502,3.0691336744,0.6493898901
 C,0,1.8645369687,2.6252289925,0.1315450304
 H,0,2.2275605961,1.7718299522,-0.4527581113
 C,0,2.6818854808,2.7179413777,1.4399559505
 C,0,1.9155456484,3.9018142386,-0.7027968848
 H,0,2.9536560554,4.1061582088,-0.9760745978
 H,0,1.6031760821,4.7543483002,-0.0897717792
 O,0,3.1262184424,3.7730294148,1.8802918663
 C,0,1.0606265298,3.8084436229,-1.9720054031
 H,0,-0.0046420719,3.7647896816,-1.7185246544
 H,0,1.2915562126,2.8802520828,-2.516572345
 C,0,1.3162155461,4.9835249954,-2.9223872567
 N,0,0.3349895755,5.210111536,-3.8449960787
 H,0,-0.4839186084,4.6281076949,-3.975758234
 H,0,0.5025547471,5.9439185817,-4.5194953178
 O,0,2.3308267609,5.6630976027,-2.8610064739
 N,0,2.7767046572,1.5275804917,2.0909052977
 H,0,2.3110707754,0.7261789414,1.6734764984
 C,0,3.0221840844,1.4693224167,3.5280180941
 H,0,2.853526587,2.4802231562,3.9221572065
 C,0,4.4932843548,1.0843592153,3.7811413338
 C,0,2.0236590619,0.4945258352,4.1808109708
 H,0,2.2164127468,-0.5102938562,3.7929637679
 O,0,4.8247804315,-0.0292378184,4.188113431
 C,0,2.129092801,0.483661939,5.7016876376
 H,0,3.117236855,0.1360826701,6.0110333291
 H,0,1.968367487,1.4912739795,6.1098191538
 H,0,1.3674897299,-0.1817177694,6.1192741571
 O,0,0.6854711302,0.8070516554,3.7525310692
 H,0,0.453623076,1.6618696671,4.1513347204
 N,0,5.3678765659,2.0711465652,3.483786482
 H,0,5.050316861,2.9599764073,3.0997540962
 C,0,6.8027079428,1.8647667083,3.5593751002
 H,0,7.0221771716,1.3476089556,4.50113373
 C,0,7.4670801568,3.2480735143,3.5517841819
 C,0,7.3231843676,1.0053566653,2.3915033736
 H,0,8.4017676785,0.8361073294,2.4787609103
 H,0,6.812103649,0.0394141943,2.4058084168
 H,0,7.1235137673,1.5061215534,1.4382889402
 O,0,6.8766395497,4.2492145797,3.1489446514
 N,0,8.7534917136,3.2672495398,3.9714839903
 H,0,9.2181444323,2.4409096916,4.3305055367
 C,0,9.5501940614,4.4830870057,3.9625109706
 H,0,9.3161707125,5.0276516448,3.0424263983
 C,0,11.0176435332,4.0436381302,3.9800886138
 C,0,9.211034845,5.3700606937,5.1873609877
 H,0,8.1229661282,5.506229738,5.1703023575
 H,0,9.4543879176,4.7929197512,6.0888682479
 O,0,11.3603944545,2.9762372002,4.4872664743
 C,0,9.8891828077,6.7514143982,5.2559734976
 H,0,10.9786104291,6.613850119,5.2698661495
 C,0,9.5312861606,7.6379190453,4.0526163602
 H,0,8.4448346684,7.7686939062,3.9766060866
 H,0,9.870641002,7.2205726819,3.0964310854
 H,0,9.987073481,8.6294512977,4.1514660524
 C,0,9.4916794409,7.4495926386,6.5654243214
 H,0,8.4080287744,7.6193737985,6.6031817439
 H,0,9.9859374496,8.4235786664,6.658233365
 H,0,9.7671683524,6.846682383,7.4386066399
 N,0,11.9017021935,4.9179957635,3.436955418
 H,0,11.5717317306,5.8001870429,3.0723561898
 C,0,13.3388647832,4.7016768733,3.536164766
 H,0,13.5176492092,4.1664308806,4.4767270387
 C,0,14.1124279958,6.0106264987,3.6352177864
 C,0,13.8852970228,3.8412632543,2.3863459888
 H,0,14.9627381507,3.7009684924,2.50313788
 H,0,13.3859199887,2.8694942638,2.4072467265
 H,0,13.6934566641,4.3192007222,1.4198471571
 O,0,15.3183323283,6.0767933988,3.6316294441
 O,0,13.3118876484,7.1048144698,3.7272372436
 H,0,13.9050713926,7.8777148894,3.7867299054
 Recover connectivity data from disk.
                           ----------------------------
                           !    Current Parameters    !
                           ! (Angstroms and Degrees)  !
 --------------------------                            --------------------------
 ! Name  Definition              Value                                          !
 --------------------------------------------------------------------------------
 ! R1    R(1,2)                  1.0249                                         !
 ! R2    R(1,3)                  1.0242                                         !
 ! R3    R(1,4)                  1.0582                                         !
 ! R4    R(1,5)                  1.5193                                         !
 ! R5    R(5,6)                  1.0912                                         !
 ! R6    R(5,7)                  1.5483                                         !
 ! R7    R(5,8)                  1.5416                                         !
 ! R8    R(7,11)                 1.239                                          !
 ! R9    R(7,22)                 1.3299                                         !
 ! R10   R(8,9)                  1.0986                                         !
 ! R11   R(8,10)                 1.1                                            !
 ! R12   R(8,12)                 1.5448                                         !
 ! R13   R(12,13)                1.0955                                         !
 ! R14   R(12,14)                1.5351                                         !
 ! R15   R(12,18)                1.5357                                         !
 ! R16   R(14,15)                1.0971                                         !
 ! R17   R(14,16)                1.0973                                         !
 ! R18   R(14,17)                1.0935                                         !
 ! R19   R(18,19)                1.0969                                         !
 ! R20   R(18,20)                1.0955                                         !
 ! R21   R(18,21)                1.0947                                         !
 ! R22   R(22,23)                1.0183                                         !
 ! R23   R(22,24)                1.4692                                         !
 ! R24   R(24,25)                1.0943                                         !
 ! R25   R(24,26)                1.5427                                         !
 ! R26   R(24,27)                1.5479                                         !
 ! R27   R(26,29)                1.2354                                         !
 ! R28   R(26,38)                1.3418                                         !
 ! R29   R(27,28)                1.0989                                         !
 ! R30   R(27,30)                1.5358                                         !
 ! R31   R(27,34)                1.5343                                         !
 ! R32   R(30,31)                1.0978                                         !
 ! R33   R(30,32)                1.0941                                         !
 ! R34   R(30,33)                1.0942                                         !
 ! R35   R(34,35)                1.0965                                         !
 ! R36   R(34,36)                1.0946                                         !
 ! R37   R(34,37)                1.0949                                         !
 ! R38   R(38,39)                1.0158                                         !
 ! R39   R(38,40)                1.4588                                         !
 ! R40   R(40,41)                1.096                                          !
 ! R41   R(40,42)                1.5334                                         !
 ! R42   R(40,43)                1.5644                                         !
 ! R43   R(42,45)                1.2329                                         !
 ! R44   R(42,54)                1.358                                          !
 ! R45   R(43,44)                1.0965                                         !
 ! R46   R(43,46)                1.5343                                         !
 ! R47   R(43,50)                1.5347                                         !
 ! R48   R(46,47)                1.0939                                         !
 ! R49   R(46,48)                1.0962                                         !
 ! R50   R(46,49)                1.0953                                         !
 ! R51   R(50,51)                1.095                                          !
 ! R52   R(50,52)                1.0984                                         !
 ! R53   R(50,53)                1.0947                                         !
 ! R54   R(54,55)                1.0127                                         !
 ! R55   R(54,56)                1.4656                                         !
 ! R56   R(56,57)                1.0968                                         !
 ! R57   R(56,58)                1.5434                                         !
 ! R58   R(56,59)                1.531                                          !
 ! R59   R(58,62)                1.2303                                         !
 ! R60   R(58,65)                1.3583                                         !
 ! R61   R(59,60)                1.0895                                         !
 ! R62   R(59,61)                1.1016                                         !
 ! R63   R(59,63)                1.422                                          !
 ! R64   R(63,64)                0.9704                                         !
 ! R65   R(65,66)                1.0169                                         !
 ! R66   R(65,67)                1.4685                                         !
 ! R67   R(67,68)                1.0925                                         !
 ! R68   R(67,69)                1.541                                          !
 ! R69   R(67,70)                1.5387                                         !
 ! R70   R(69,72)                1.2415                                         !
 ! R71   R(69,79)                1.3457                                         !
 ! R72   R(70,71)                1.0985                                         !
 ! R73   R(70,73)                1.5207                                         !
 ! R74   R(70,77)                1.4295                                         !
 ! R75   R(73,74)                1.0951                                         !
 ! R76   R(73,75)                1.0942                                         !
 ! R77   R(73,76)                1.0938                                         !
 ! R78   R(77,78)                0.9787                                         !
 ! R79   R(79,80)                1.0145                                         !
 ! R80   R(79,81)                1.4712                                         !
 ! R81   R(81,82)                1.0961                                         !
 ! R82   R(81,83)                1.5455                                         !
 ! R83   R(81,84)                1.5259                                         !
 ! R84   R(83,87)                1.2266                                         !
 ! R85   R(83,96)                1.36                                           !
 ! R86   R(84,85)                1.0928                                         !
 ! R87   R(84,86)                1.0955                                         !
 ! R88   R(84,88)                1.5331                                         !
 ! R89   R(88,89)                1.0959                                         !
 ! R90   R(88,90)                1.1006                                         !
 ! R91   R(88,91)                1.5328                                         !
 ! R92   R(91,92)                1.3658                                         !
 ! R93   R(91,95)                1.2227                                         !
 ! R94   R(92,93)                1.0131                                         !
 ! R95   R(92,94)                1.0107                                         !
 ! R96   R(96,97)                1.0165                                         !
 ! R97   R(96,98)                1.4591                                         !
 ! R98   R(98,99)                1.098                                          !
 ! R99   R(98,100)               1.5416                                         !
 ! R100  R(98,101)               1.5406                                         !
 ! R101  R(100,103)              1.2311                                         !
 ! R102  R(100,110)              1.3517                                         !
 ! R103  R(101,102)              1.0942                                         !
 ! R104  R(101,104)              1.5246                                         !
 ! R105  R(101,108)              1.4394                                         !
 ! R106  R(104,105)              1.0922                                         !
 ! R107  R(104,106)              1.0989                                         !
 ! R108  R(104,107)              1.0941                                         !
 ! R109  R(108,109)              0.9713                                         !
 ! R110  R(110,111)              1.019                                          !
 ! R111  R(110,112)              1.4516                                         !
 ! R112  R(112,113)              1.0966                                         !
 ! R113  R(112,114)              1.5346                                         !
 ! R114  R(112,115)              1.5406                                         !
 ! R115  R(114,119)              1.2301                                         !
 ! R116  R(114,120)              1.3533                                         !
 ! R117  R(115,116)              1.0953                                         !
 ! R118  R(115,117)              1.0929                                         !
 ! R119  R(115,118)              1.0951                                         !
 ! R120  R(120,121)              1.0137                                         !
 ! R121  R(120,122)              1.4536                                         !
 ! R122  R(122,123)              1.0945                                         !
 ! R123  R(122,124)              1.5319                                         !
 ! R124  R(122,125)              1.5498                                         !
 ! R125  R(124,128)              1.2305                                         !
 ! R126  R(124,139)              1.3569                                         !
 ! R127  R(125,126)              1.0967                                         !
 ! R128  R(125,127)              1.0977                                         !
 ! R129  R(125,129)              1.5404                                         !
 ! R130  R(129,130)              1.0982                                         !
 ! R131  R(129,131)              1.5369                                         !
 ! R132  R(129,135)              1.5363                                         !
 ! R133  R(131,132)              1.0969                                         !
 ! R134  R(131,133)              1.0971                                         !
 ! R135  R(131,134)              1.0957                                         !
 ! R136  R(135,136)              1.0975                                         !
 ! R137  R(135,137)              1.0962                                         !
 ! R138  R(135,138)              1.0963                                         !
 ! R139  R(139,140)              1.01                                           !
 ! R140  R(139,141)              1.4567                                         !
 ! R141  R(141,142)              1.0969                                         !
 ! R142  R(141,143)              1.5237                                         !
 ! R143  R(141,144)              1.5365                                         !
 ! R144  R(143,148)              1.2077                                         !
 ! R145  R(143,149)              1.3589                                         !
 ! R146  R(144,145)              1.0928                                         !
 ! R147  R(144,146)              1.0928                                         !
 ! R148  R(144,147)              1.0951                                         !
 ! R149  R(149,150)              0.9761                                         !
 ! A1    A(2,1,3)              108.8225                                         !
 ! A2    A(2,1,4)              108.2041                                         !
 ! A3    A(2,1,5)              113.1909                                         !
 ! A4    A(3,1,4)              111.3457                                         !
 ! A5    A(3,1,5)              113.1675                                         !
 ! A6    A(4,1,5)              101.8848                                         !
 ! A7    A(1,5,6)              108.4444                                         !
 ! A8    A(1,5,7)              102.2011                                         !
 ! A9    A(1,5,8)              108.7168                                         !
 ! A10   A(6,5,7)              113.0335                                         !
 ! A11   A(6,5,8)              112.0919                                         !
 ! A12   A(7,5,8)              111.7598                                         !
 ! A13   A(5,7,11)             117.1303                                         !
 ! A14   A(5,7,22)             116.6045                                         !
 ! A15   A(11,7,22)            126.2305                                         !
 ! A16   A(5,8,9)              107.7174                                         !
 ! A17   A(5,8,10)             107.9625                                         !
 ! A18   A(5,8,12)             115.6082                                         !
 ! A19   A(9,8,10)             107.584                                          !
 ! A20   A(9,8,12)             109.0771                                         !
 ! A21   A(10,8,12)            108.617                                          !
 ! A22   A(8,12,13)            108.4896                                         !
 ! A23   A(8,12,14)            112.5778                                         !
 ! A24   A(8,12,18)            109.0795                                         !
 ! A25   A(13,12,14)           108.3877                                         !
 ! A26   A(13,12,18)           107.4078                                         !
 ! A27   A(14,12,18)           110.7387                                         !
 ! A28   A(12,14,15)           110.9559                                         !
 ! A29   A(12,14,16)           113.4069                                         !
 ! A30   A(12,14,17)           110.129                                          !
 ! A31   A(15,14,16)           107.6178                                         !
 ! A32   A(15,14,17)           108.1102                                         !
 ! A33   A(16,14,17)           106.3811                                         !
 ! A34   A(12,18,19)           111.2646                                         !
 ! A35   A(12,18,20)           111.5435                                         !
 ! A36   A(12,18,21)           110.1394                                         !
 ! A37   A(19,18,20)           108.2709                                         !
 ! A38   A(19,18,21)           107.7254                                         !
 ! A39   A(20,18,21)           107.7487                                         !
 ! A40   A(7,22,23)            120.3609                                         !
 ! A41   A(7,22,24)            123.9816                                         !
 ! A42   A(23,22,24)           112.3058                                         !
 ! A43   A(22,24,25)           107.5017                                         !
 ! A44   A(22,24,26)           103.3287                                         !
 ! A45   A(22,24,27)           111.9926                                         !
 ! A46   A(25,24,26)           111.7059                                         !
 ! A47   A(25,24,27)           109.611                                          !
 ! A48   A(26,24,27)           112.481                                          !
 ! A49   A(24,26,29)           119.2562                                         !
 ! A50   A(24,26,38)           116.4357                                         !
 ! A51   A(29,26,38)           124.2991                                         !
 ! A52   A(24,27,28)           106.8034                                         !
 ! A53   A(24,27,30)           110.6501                                         !
 ! A54   A(24,27,34)           110.4848                                         !
 ! A55   A(28,27,30)           108.7059                                         !
 ! A56   A(28,27,34)           109.0885                                         !
 ! A57   A(30,27,34)           110.988                                          !
 ! A58   A(27,30,31)           110.9443                                         !
 ! A59   A(27,30,32)           112.2691                                         !
 ! A60   A(27,30,33)           110.0535                                         !
 ! A61   A(31,30,32)           108.1238                                         !
 ! A62   A(31,30,33)           107.4837                                         !
 ! A63   A(32,30,33)           107.7919                                         !
 ! A64   A(27,34,35)           110.9359                                         !
 ! A65   A(27,34,36)           110.2281                                         !
 ! A66   A(27,34,37)           111.7636                                         !
 ! A67   A(35,34,36)           107.9908                                         !
 ! A68   A(35,34,37)           108.0296                                         !
 ! A69   A(36,34,37)           107.7517                                         !
 ! A70   A(26,38,39)           121.3945                                         !
 ! A71   A(26,38,40)           123.2471                                         !
 ! A72   A(39,38,40)           114.523                                          !
 ! A73   A(38,40,41)           108.5978                                         !
 ! A74   A(38,40,42)           105.1757                                         !
 ! A75   A(38,40,43)           111.611                                          !
 ! A76   A(41,40,42)           110.5463                                         !
 ! A77   A(41,40,43)           108.1167                                         !
 ! A78   A(42,40,43)           112.7305                                         !
 ! A79   A(40,42,45)           120.5147                                         !
 ! A80   A(40,42,54)           116.8708                                         !
 ! A81   A(45,42,54)           122.6086                                         !
 ! A82   A(40,43,44)           103.8285                                         !
 ! A83   A(40,43,46)           112.6757                                         !
 ! A84   A(40,43,50)           111.907                                          !
 ! A85   A(44,43,46)           108.5643                                         !
 ! A86   A(44,43,50)           107.7633                                         !
 ! A87   A(46,43,50)           111.6354                                         !
 ! A88   A(43,46,47)           113.2811                                         !
 ! A89   A(43,46,48)           111.3092                                         !
 ! A90   A(43,46,49)           109.622                                          !
 ! A91   A(47,46,48)           107.6325                                         !
 ! A92   A(47,46,49)           107.2106                                         !
 ! A93   A(48,46,49)           107.5434                                         !
 ! A94   A(43,50,51)           111.7692                                         !
 ! A95   A(43,50,52)           111.8599                                         !
 ! A96   A(43,50,53)           109.9578                                         !
 ! A97   A(51,50,52)           108.7346                                         !
 ! A98   A(51,50,53)           107.2354                                         !
 ! A99   A(52,50,53)           107.0678                                         !
 ! A100  A(42,54,55)           118.4403                                         !
 ! A101  A(42,54,56)           122.5345                                         !
 ! A102  A(55,54,56)           117.2756                                         !
 ! A103  A(54,56,57)           105.9385                                         !
 ! A104  A(54,56,58)           114.5506                                         !
 ! A105  A(54,56,59)           110.5547                                         !
 ! A106  A(57,56,58)           105.1516                                         !
 ! A107  A(57,56,59)           107.6063                                         !
 ! A108  A(58,56,59)           112.4411                                         !
 ! A109  A(56,58,62)           120.8044                                         !
 ! A110  A(56,58,65)           115.4078                                         !
 ! A111  A(62,58,65)           123.5707                                         !
 ! A112  A(56,59,60)           109.3298                                         !
 ! A113  A(56,59,61)           110.6029                                         !
 ! A114  A(56,59,63)           111.3601                                         !
 ! A115  A(60,59,61)           107.1958                                         !
 ! A116  A(60,59,63)           106.4796                                         !
 ! A117  A(61,59,63)           111.6769                                         !
 ! A118  A(59,63,64)           108.7039                                         !
 ! A119  A(58,65,66)           118.6784                                         !
 ! A120  A(58,65,67)           120.3783                                         !
 ! A121  A(66,65,67)           113.4473                                         !
 ! A122  A(65,67,68)           108.1334                                         !
 ! A123  A(65,67,69)           106.7318                                         !
 ! A124  A(65,67,70)           110.4015                                         !
 ! A125  A(68,67,69)           110.2389                                         !
 ! A126  A(68,67,70)           110.6727                                         !
 ! A127  A(69,67,70)           110.5582                                         !
 ! A128  A(67,69,72)           121.4201                                         !
 ! A129  A(67,69,79)           115.3503                                         !
 ! A130  A(72,69,79)           123.0696                                         !
 ! A131  A(67,70,71)           106.4132                                         !
 ! A132  A(67,70,73)           112.7702                                         !
 ! A133  A(67,70,77)           109.2887                                         !
 ! A134  A(71,70,73)           109.861                                          !
 ! A135  A(71,70,77)           110.5475                                         !
 ! A136  A(73,70,77)           107.973                                          !
 ! A137  A(70,73,74)           110.8104                                         !
 ! A138  A(70,73,75)           110.9138                                         !
 ! A139  A(70,73,76)           109.434                                          !
 ! A140  A(74,73,75)           108.5543                                         !
 ! A141  A(74,73,76)           108.6713                                         !
 ! A142  A(75,73,76)           108.3929                                         !
 ! A143  A(70,77,78)           104.4194                                         !
 ! A144  A(69,79,80)           118.3704                                         !
 ! A145  A(69,79,81)           123.2961                                         !
 ! A146  A(80,79,81)           118.3325                                         !
 ! A147  A(79,81,82)           106.2478                                         !
 ! A148  A(79,81,83)           106.9171                                         !
 ! A149  A(79,81,84)           110.857                                          !
 ! A150  A(82,81,83)           108.8348                                         !
 ! A151  A(82,81,84)           110.4144                                         !
 ! A152  A(83,81,84)           113.2682                                         !
 ! A153  A(81,83,87)           123.1679                                         !
 ! A154  A(81,83,96)           112.9276                                         !
 ! A155  A(87,83,96)           123.7649                                         !
 ! A156  A(81,84,85)           108.9621                                         !
 ! A157  A(81,84,86)           109.6058                                         !
 ! A158  A(81,84,88)           112.5237                                         !
 ! A159  A(85,84,86)           105.3841                                         !
 ! A160  A(85,84,88)           109.518                                          !
 ! A161  A(86,84,88)           110.5875                                         !
 ! A162  A(84,88,89)           110.6705                                         !
 ! A163  A(84,88,90)           110.1183                                         !
 ! A164  A(84,88,91)           111.9397                                         !
 ! A165  A(89,88,90)           106.5469                                         !
 ! A166  A(89,88,91)           109.6364                                         !
 ! A167  A(90,88,91)           107.7434                                         !
 ! A168  A(88,91,92)           115.2292                                         !
 ! A169  A(88,91,95)           122.2312                                         !
 ! A170  A(92,91,95)           122.5385                                         !
 ! A171  A(91,92,93)           124.9311                                         !
 ! A172  A(91,92,94)           116.8822                                         !
 ! A173  A(93,92,94)           117.7074                                         !
 ! A174  A(83,96,97)           117.4867                                         !
 ! A175  A(83,96,98)           121.2045                                         !
 ! A176  A(97,96,98)           116.7468                                         !
 ! A177  A(96,98,99)           106.9141                                         !
 ! A178  A(96,98,100)          109.4053                                         !
 ! A179  A(96,98,101)          109.4853                                         !
 ! A180  A(99,98,100)          108.5144                                         !
 ! A181  A(99,98,101)          109.3219                                         !
 ! A182  A(100,98,101)         113.0126                                         !
 ! A183  A(98,100,103)         122.4884                                         !
 ! A184  A(98,100,110)         113.5176                                         !
 ! A185  A(103,100,110)        123.9765                                         !
 ! A186  A(98,101,102)         108.4629                                         !
 ! A187  A(98,101,104)         112.4818                                         !
 ! A188  A(98,101,108)         109.8229                                         !
 ! A189  A(102,101,104)        109.5651                                         !
 ! A190  A(102,101,108)        104.9336                                         !
 ! A191  A(104,101,108)        111.2639                                         !
 ! A192  A(101,104,105)        110.327                                          !
 ! A193  A(101,104,106)        110.7222                                         !
 ! A194  A(101,104,107)        109.6898                                         !
 ! A195  A(105,104,106)        108.5974                                         !
 ! A196  A(105,104,107)        109.155                                          !
 ! A197  A(106,104,107)        108.303                                          !
 ! A198  A(101,108,109)        106.9071                                         !
 ! A199  A(100,110,111)        121.2015                                         !
 ! A200  A(100,110,112)        121.6227                                         !
 ! A201  A(111,110,112)        116.8521                                         !
 ! A202  A(110,112,113)        108.0352                                         !
 ! A203  A(110,112,114)        107.4288                                         !
 ! A204  A(110,112,115)        111.9493                                         !
 ! A205  A(113,112,114)        110.0422                                         !
 ! A206  A(113,112,115)        108.6831                                         !
 ! A207  A(114,112,115)        110.661                                          !
 ! A208  A(112,114,119)        121.8329                                         !
 ! A209  A(112,114,120)        115.01                                           !
 ! A210  A(119,114,120)        123.1136                                         !
 ! A211  A(112,115,116)        111.0085                                         !
 ! A212  A(112,115,117)        108.9735                                         !
 ! A213  A(112,115,118)        110.0695                                         !
 ! A214  A(116,115,117)        108.8379                                         !
 ! A215  A(116,115,118)        108.6364                                         !
 ! A216  A(117,115,118)        109.2859                                         !
 ! A217  A(114,120,121)        122.2761                                         !
 ! A218  A(114,120,122)        122.0682                                         !
 ! A219  A(121,120,122)        115.6435                                         !
 ! A220  A(120,122,123)        107.7077                                         !
 ! A221  A(120,122,124)        106.5589                                         !
 ! A222  A(120,122,125)        110.7236                                         !
 ! A223  A(123,122,124)        110.9281                                         !
 ! A224  A(123,122,125)        109.4411                                         !
 ! A225  A(124,122,125)        111.3906                                         !
 ! A226  A(122,124,128)        121.359                                          !
 ! A227  A(122,124,139)        115.7648                                         !
 ! A228  A(128,124,139)        122.8541                                         !
 ! A229  A(122,125,126)        106.0145                                         !
 ! A230  A(122,125,127)        107.4354                                         !
 ! A231  A(122,125,129)        116.8773                                         !
 ! A232  A(126,125,127)        107.3374                                         !
 ! A233  A(126,125,129)        109.0345                                         !
 ! A234  A(127,125,129)        109.7126                                         !
 ! A235  A(125,129,130)        108.9641                                         !
 ! A236  A(125,129,131)        112.3258                                         !
 ! A237  A(125,129,135)        109.3661                                         !
 ! A238  A(130,129,131)        108.2509                                         !
 ! A239  A(130,129,135)        107.6279                                         !
 ! A240  A(131,129,135)        110.1807                                         !
 ! A241  A(129,131,132)        110.7118                                         !
 ! A242  A(129,131,133)        113.0139                                         !
 ! A243  A(129,131,134)        110.7602                                         !
 ! A244  A(132,131,133)        106.9372                                         !
 ! A245  A(132,131,134)        108.0809                                         !
 ! A246  A(133,131,134)        107.109                                          !
 ! A247  A(129,135,136)        110.7997                                         !
 ! A248  A(129,135,137)        111.0579                                         !
 ! A249  A(129,135,138)        111.3423                                         !
 ! A250  A(136,135,137)        107.7484                                         !
 ! A251  A(136,135,138)        107.8058                                         !
 ! A252  A(137,135,138)        107.9338                                         !
 ! A253  A(124,139,140)        119.6367                                         !
 ! A254  A(124,139,141)        121.3218                                         !
 ! A255  A(140,139,141)        118.4642                                         !
 ! A256  A(139,141,142)        106.9579                                         !
 ! A257  A(139,141,143)        112.1935                                         !
 ! A258  A(139,141,144)        112.5218                                         !
 ! A259  A(142,141,143)        106.3028                                         !
 ! A260  A(142,141,144)        108.0871                                         !
 ! A261  A(143,141,144)        110.4355                                         !
 ! A262  A(141,143,148)        123.6285                                         !
 ! A263  A(141,143,149)        113.3937                                         !
 ! A264  A(148,143,149)        122.9777                                         !
 ! A265  A(141,144,145)        110.0317                                         !
 ! A266  A(141,144,146)        108.7315                                         !
 ! A267  A(141,144,147)        110.7159                                         !
 ! A268  A(145,144,146)        109.5331                                         !
 ! A269  A(145,144,147)        108.848                                          !
 ! A270  A(146,144,147)        108.9606                                         !
 ! A271  A(143,149,150)        106.4812                                         !
 ! D1    D(2,1,5,6)             26.6948                                         !
 ! D2    D(2,1,5,7)            -92.9159                                         !
 ! D3    D(2,1,5,8)            148.8079                                         !
 ! D4    D(3,1,5,6)            -97.7156                                         !
 ! D5    D(3,1,5,7)            142.6737                                         !
 ! D6    D(3,1,5,8)             24.3975                                         !
 ! D7    D(4,1,5,6)            142.6374                                         !
 ! D8    D(4,1,5,7)             23.0267                                         !
 ! D9    D(4,1,5,8)            -95.2494                                         !
 ! D10   D(1,5,7,11)           -23.6537                                         !
 ! D11   D(1,5,7,22)           158.3546                                         !
 ! D12   D(6,5,7,11)          -139.992                                          !
 ! D13   D(6,5,7,22)            42.0164                                         !
 ! D14   D(8,5,7,11)            92.4376                                         !
 ! D15   D(8,5,7,22)           -85.554                                          !
 ! D16   D(1,5,8,9)             54.7831                                         !
 ! D17   D(1,5,8,10)           -61.1276                                         !
 ! D18   D(1,5,8,12)           177.033                                          !
 ! D19   D(6,5,8,9)            174.6534                                         !
 ! D20   D(6,5,8,10)            58.7427                                         !
 ! D21   D(6,5,8,12)           -63.0967                                         !
 ! D22   D(7,5,8,9)            -57.2722                                         !
 ! D23   D(7,5,8,10)          -173.1829                                         !
 ! D24   D(7,5,8,12)            64.9777                                         !
 ! D25   D(5,7,22,23)            4.0236                                         !
 ! D26   D(5,7,22,24)          161.7387                                         !
 ! D27   D(11,7,22,23)        -173.7605                                         !
 ! D28   D(11,7,22,24)         -16.0454                                         !
 ! D29   D(5,8,12,13)          -59.8788                                         !
 ! D30   D(5,8,12,14)           60.0725                                         !
 ! D31   D(5,8,12,18)         -176.5872                                         !
 ! D32   D(9,8,12,13)           61.6442                                         !
 ! D33   D(9,8,12,14)         -178.4045                                         !
 ! D34   D(9,8,12,18)          -55.0643                                         !
 ! D35   D(10,8,12,13)         178.6326                                         !
 ! D36   D(10,8,12,14)         -61.4161                                         !
 ! D37   D(10,8,12,18)          61.9241                                         !
 ! D38   D(8,12,14,15)          61.2619                                         !
 ! D39   D(8,12,14,16)         -60.0                                            !
 ! D40   D(8,12,14,17)        -179.0758                                         !
 ! D41   D(13,12,14,15)       -178.7279                                         !
 ! D42   D(13,12,14,16)         60.0102                                         !
 ! D43   D(13,12,14,17)        -59.0656                                         !
 ! D44   D(18,12,14,15)        -61.1485                                         !
 ! D45   D(18,12,14,16)        177.5896                                         !
 ! D46   D(18,12,14,17)         58.5138                                         !
 ! D47   D(8,12,18,19)         -63.206                                          !
 ! D48   D(8,12,18,20)          57.813                                          !
 ! D49   D(8,12,18,21)         177.4077                                         !
 ! D50   D(13,12,18,19)        179.3993                                         !
 ! D51   D(13,12,18,20)        -59.5817                                         !
 ! D52   D(13,12,18,21)         60.0131                                         !
 ! D53   D(14,12,18,19)         61.2217                                         !
 ! D54   D(14,12,18,20)       -177.7593                                         !
 ! D55   D(14,12,18,21)        -58.1645                                         !
 ! D56   D(7,22,24,25)          -6.6673                                         !
 ! D57   D(7,22,24,26)        -124.912                                          !
 ! D58   D(7,22,24,27)         113.7901                                         !
 ! D59   D(23,22,24,25)        152.6207                                         !
 ! D60   D(23,22,24,26)         34.376                                          !
 ! D61   D(23,22,24,27)        -86.9219                                         !
 ! D62   D(22,24,26,29)        -37.2955                                         !
 ! D63   D(22,24,26,38)        141.6637                                         !
 ! D64   D(25,24,26,29)       -152.57                                           !
 ! D65   D(25,24,26,38)         26.3892                                         !
 ! D66   D(27,24,26,29)         83.6718                                         !
 ! D67   D(27,24,26,38)        -97.369                                          !
 ! D68   D(22,24,27,28)         60.5495                                         !
 ! D69   D(22,24,27,30)        178.7023                                         !
 ! D70   D(22,24,27,34)        -57.9721                                         !
 ! D71   D(25,24,27,28)        179.7725                                         !
 ! D72   D(25,24,27,30)        -62.0747                                         !
 ! D73   D(25,24,27,34)         61.2509                                         !
 ! D74   D(26,24,27,28)        -55.313                                          !
 ! D75   D(26,24,27,30)         62.8399                                         !
 ! D76   D(26,24,27,34)       -173.8345                                         !
 ! D77   D(24,26,38,39)         -4.7885                                         !
 ! D78   D(24,26,38,40)       -173.7452                                         !
 ! D79   D(29,26,38,39)        174.1123                                         !
 ! D80   D(29,26,38,40)          5.1557                                         !
 ! D81   D(24,27,30,31)         60.3186                                         !
 ! D82   D(24,27,30,32)        -60.7899                                         !
 ! D83   D(24,27,30,33)        179.1454                                         !
 ! D84   D(28,27,30,31)        177.3046                                         !
 ! D85   D(28,27,30,32)         56.1961                                         !
 ! D86   D(28,27,30,33)        -63.8685                                         !
 ! D87   D(34,27,30,31)        -62.7156                                         !
 ! D88   D(34,27,30,32)        176.1759                                         !
 ! D89   D(34,27,30,33)         56.1112                                         !
 ! D90   D(24,27,34,35)        -61.1766                                         !
 ! D91   D(24,27,34,36)        179.2586                                         !
 ! D92   D(24,27,34,37)         59.458                                          !
 ! D93   D(28,27,34,35)       -178.2955                                         !
 ! D94   D(28,27,34,36)         62.1397                                         !
 ! D95   D(28,27,34,37)        -57.661                                          !
 ! D96   D(30,27,34,35)         61.9529                                         !
 ! D97   D(30,27,34,36)        -57.612                                          !
 ! D98   D(30,27,34,37)       -177.4126                                         !
 ! D99   D(26,38,40,41)        -52.4912                                         !
 ! D100  D(26,38,40,42)       -170.8474                                         !
 ! D101  D(26,38,40,43)         66.5995                                         !
 ! D102  D(39,38,40,41)        137.8622                                         !
 ! D103  D(39,38,40,42)         19.506                                          !
 ! D104  D(39,38,40,43)       -103.047                                          !
 ! D105  D(38,40,42,45)        -28.2005                                         !
 ! D106  D(38,40,42,54)        152.6578                                         !
 ! D107  D(41,40,42,45)       -145.2369                                         !
 ! D108  D(41,40,42,54)         35.6214                                         !
 ! D109  D(43,40,42,45)         93.6278                                         !
 ! D110  D(43,40,42,54)        -85.5138                                         !
 ! D111  D(38,40,43,44)        -64.0614                                         !
 ! D112  D(38,40,43,46)         53.2086                                         !
 ! D113  D(38,40,43,50)        179.9858                                         !
 ! D114  D(41,40,43,44)         55.3147                                         !
 ! D115  D(41,40,43,46)        172.5847                                         !
 ! D116  D(41,40,43,50)        -60.6382                                         !
 ! D117  D(42,40,43,44)        177.8236                                         !
 ! D118  D(42,40,43,46)        -64.9064                                         !
 ! D119  D(42,40,43,50)         61.8707                                         !
 ! D120  D(40,42,54,55)          9.4699                                         !
 ! D121  D(40,42,54,56)        173.9805                                         !
 ! D122  D(45,42,54,55)       -169.6523                                         !
 ! D123  D(45,42,54,56)         -5.1417                                         !
 ! D124  D(40,43,46,47)         63.7175                                         !
 ! D125  D(40,43,46,48)        -57.7355                                         !
 ! D126  D(40,43,46,49)       -176.5883                                         !
 ! D127  D(44,43,46,47)        178.1472                                         !
 ! D128  D(44,43,46,48)         56.6943                                         !
 ! D129  D(44,43,46,49)        -62.1585                                         !
 ! D130  D(50,43,46,47)        -63.2044                                         !
 ! D131  D(50,43,46,48)        175.3426                                         !
 ! D132  D(50,43,46,49)         56.4898                                         !
 ! D133  D(40,43,50,51)        -70.1157                                         !
 ! D134  D(40,43,50,52)         52.0829                                         !
 ! D135  D(40,43,50,53)        170.9076                                         !
 ! D136  D(44,43,50,51)        176.3471                                         !
 ! D137  D(44,43,50,52)        -61.4543                                         !
 ! D138  D(44,43,50,53)         57.3704                                         !
 ! D139  D(46,43,50,51)         57.2224                                         !
 ! D140  D(46,43,50,52)        179.421                                          !
 ! D141  D(46,43,50,53)        -61.7543                                         !
 ! D142  D(42,54,56,57)         31.5257                                         !
 ! D143  D(42,54,56,58)        -83.897                                          !
 ! D144  D(42,54,56,59)        147.8238                                         !
 ! D145  D(55,54,56,57)       -163.7941                                         !
 ! D146  D(55,54,56,58)         80.7832                                         !
 ! D147  D(55,54,56,59)        -47.496                                          !
 ! D148  D(54,56,58,62)       -138.8509                                         !
 ! D149  D(54,56,58,65)         46.3164                                         !
 ! D150  D(57,56,58,62)        105.2706                                         !
 ! D151  D(57,56,58,65)        -69.5621                                         !
 ! D152  D(59,56,58,62)        -11.5296                                         !
 ! D153  D(59,56,58,65)        173.6377                                         !
 ! D154  D(54,56,59,60)        164.8361                                         !
 ! D155  D(54,56,59,61)         47.0238                                         !
 ! D156  D(54,56,59,63)        -77.7781                                         !
 ! D157  D(57,56,59,60)        -79.9067                                         !
 ! D158  D(57,56,59,61)        162.281                                          !
 ! D159  D(57,56,59,63)         37.4791                                         !
 ! D160  D(58,56,59,60)         35.4182                                         !
 ! D161  D(58,56,59,61)        -82.3941                                         !
 ! D162  D(58,56,59,63)        152.804                                          !
 ! D163  D(56,58,65,66)         10.7747                                         !
 ! D164  D(56,58,65,67)        158.593                                          !
 ! D165  D(62,58,65,66)       -163.898                                          !
 ! D166  D(62,58,65,67)        -16.0797                                         !
 ! D167  D(56,59,63,64)         57.5308                                         !
 ! D168  D(60,59,63,64)        176.6312                                         !
 ! D169  D(61,59,63,64)        -66.6668                                         !
 ! D170  D(58,65,67,68)         41.1664                                         !
 ! D171  D(58,65,67,69)        -77.4249                                         !
 ! D172  D(58,65,67,70)        162.3743                                         !
 ! D173  D(66,65,67,68)       -169.4526                                         !
 ! D174  D(66,65,67,69)         71.9561                                         !
 ! D175  D(66,65,67,70)        -48.2447                                         !
 ! D176  D(65,67,69,72)        -99.2127                                         !
 ! D177  D(65,67,69,79)         76.3263                                         !
 ! D178  D(68,67,69,72)        143.5798                                         !
 ! D179  D(68,67,69,79)        -40.8812                                         !
 ! D180  D(70,67,69,72)         20.8874                                         !
 ! D181  D(70,67,69,79)       -163.5736                                         !
 ! D182  D(65,67,70,71)        171.11                                           !
 ! D183  D(65,67,70,73)        -68.3758                                         !
 ! D184  D(65,67,70,77)         51.7204                                         !
 ! D185  D(68,67,70,71)        -69.2038                                         !
 ! D186  D(68,67,70,73)         51.3104                                         !
 ! D187  D(68,67,70,77)        171.4066                                         !
 ! D188  D(69,67,70,71)         53.2353                                         !
 ! D189  D(69,67,70,73)        173.7495                                         !
 ! D190  D(69,67,70,77)        -66.1543                                         !
 ! D191  D(67,69,79,80)          4.891                                          !
 ! D192  D(67,69,79,81)       -174.747                                          !
 ! D193  D(72,69,79,80)       -179.6519                                         !
 ! D194  D(72,69,79,81)          0.7101                                         !
 ! D195  D(67,70,73,74)        -62.3861                                         !
 ! D196  D(67,70,73,75)         58.255                                          !
 ! D197  D(67,70,73,76)        177.7943                                         !
 ! D198  D(71,70,73,74)         56.1329                                         !
 ! D199  D(71,70,73,75)        176.774                                          !
 ! D200  D(71,70,73,76)        -63.6868                                         !
 ! D201  D(77,70,73,74)        176.7638                                         !
 ! D202  D(77,70,73,75)        -62.595                                          !
 ! D203  D(77,70,73,76)         56.9442                                         !
 ! D204  D(67,70,77,78)         63.2912                                         !
 ! D205  D(71,70,77,78)        -53.5094                                         !
 ! D206  D(73,70,77,78)       -173.71                                           !
 ! D207  D(69,79,81,82)         28.6673                                         !
 ! D208  D(69,79,81,83)        -87.4442                                         !
 ! D209  D(69,79,81,84)        148.6562                                         !
 ! D210  D(80,79,81,82)       -150.9709                                         !
 ! D211  D(80,79,81,83)         92.9177                                         !
 ! D212  D(80,79,81,84)        -30.982                                          !
 ! D213  D(79,81,83,87)       -110.1853                                         !
 ! D214  D(79,81,83,96)         65.663                                          !
 ! D215  D(82,81,83,87)        135.4376                                         !
 ! D216  D(82,81,83,96)        -48.714                                          !
 ! D217  D(84,81,83,87)         12.218                                          !
 ! D218  D(84,81,83,96)       -171.9336                                         !
 ! D219  D(79,81,84,85)       -179.5005                                         !
 ! D220  D(79,81,84,86)         65.6547                                         !
 ! D221  D(79,81,84,88)        -57.837                                          !
 ! D222  D(82,81,84,85)        -62.0308                                         !
 ! D223  D(82,81,84,86)       -176.8755                                         !
 ! D224  D(82,81,84,88)         59.6328                                         !
 ! D225  D(83,81,84,85)         60.3142                                         !
 ! D226  D(83,81,84,86)        -54.5305                                         !
 ! D227  D(83,81,84,88)       -178.0222                                         !
 ! D228  D(81,83,96,97)         -0.5432                                         !
 ! D229  D(81,83,96,98)       -155.8108                                         !
 ! D230  D(87,83,96,97)        175.2764                                         !
 ! D231  D(87,83,96,98)         20.0088                                         !
 ! D232  D(81,84,88,89)         67.7312                                         !
 ! D233  D(81,84,88,90)        -49.8094                                         !
 ! D234  D(81,84,88,91)       -169.6408                                         !
 ! D235  D(85,84,88,89)       -170.9218                                         !
 ! D236  D(85,84,88,90)         71.5376                                         !
 ! D237  D(85,84,88,91)        -48.2938                                         !
 ! D238  D(86,84,88,89)        -55.212                                          !
 ! D239  D(86,84,88,90)       -172.7526                                         !
 ! D240  D(86,84,88,91)         67.416                                          !
 ! D241  D(84,88,91,92)       -160.4029                                         !
 ! D242  D(84,88,91,95)         19.9828                                         !
 ! D243  D(89,88,91,92)        -37.1887                                         !
 ! D244  D(89,88,91,95)        143.1971                                         !
 ! D245  D(90,88,91,92)         78.3841                                         !
 ! D246  D(90,88,91,95)       -101.2302                                         !
 ! D247  D(88,91,92,93)         -4.6261                                         !
 ! D248  D(88,91,92,94)       -176.4733                                         !
 ! D249  D(95,91,92,93)        174.9869                                         !
 ! D250  D(95,91,92,94)          3.1396                                         !
 ! D251  D(83,96,98,99)         13.5874                                         !
 ! D252  D(83,96,98,100)      -103.7358                                         !
 ! D253  D(83,96,98,101)       131.9105                                         !
 ! D254  D(97,96,98,99)       -141.8541                                         !
 ! D255  D(97,96,98,100)       100.8227                                         !
 ! D256  D(97,96,98,101)       -23.531                                          !
 ! D257  D(96,98,100,103)     -106.6951                                         !
 ! D258  D(96,98,100,110)       71.8405                                         !
 ! D259  D(99,98,100,103)      136.9928                                         !
 ! D260  D(99,98,100,110)      -44.4716                                         !
 ! D261  D(101,98,100,103)      15.5709                                         !
 ! D262  D(101,98,100,110)    -165.8935                                         !
 ! D263  D(96,98,101,102)       64.252                                          !
 ! D264  D(96,98,101,104)     -174.3985                                         !
 ! D265  D(96,98,101,108)      -49.8994                                         !
 ! D266  D(99,98,101,102)     -178.9341                                         !
 ! D267  D(99,98,101,104)      -57.5845                                         !
 ! D268  D(99,98,101,108)       66.9146                                         !
 ! D269  D(100,98,101,102)     -57.9693                                         !
 ! D270  D(100,98,101,104)      63.3803                                         !
 ! D271  D(100,98,101,108)    -172.1206                                         !
 ! D272  D(98,100,110,111)      -2.0041                                         !
 ! D273  D(98,100,110,112)    -175.2653                                         !
 ! D274  D(103,100,110,111)    176.5063                                         !
 ! D275  D(103,100,110,112)      3.2452                                         !
 ! D276  D(98,101,104,105)     -62.6668                                         !
 ! D277  D(98,101,104,106)      57.5825                                         !
 ! D278  D(98,101,104,107)     177.0542                                         !
 ! D279  D(102,101,104,105)     58.0515                                         !
 ! D280  D(102,101,104,106)    178.3008                                         !
 ! D281  D(102,101,104,107)    -62.2275                                         !
 ! D282  D(108,101,104,105)    173.6318                                         !
 ! D283  D(108,101,104,106)    -66.1189                                         !
 ! D284  D(108,101,104,107)     53.3528                                         !
 ! D285  D(98,101,108,109)     -68.7119                                         !
 ! D286  D(102,101,108,109)    174.8939                                         !
 ! D287  D(104,101,108,109)     56.4893                                         !
 ! D288  D(100,110,112,113)    -45.6453                                         !
 ! D289  D(100,110,112,114)   -164.3293                                         !
 ! D290  D(100,110,112,115)     73.9869                                         !
 ! D291  D(111,110,112,113)    140.8142                                         !
 ! D292  D(111,110,112,114)     22.1301                                         !
 ! D293  D(111,110,112,115)    -99.5537                                         !
 ! D294  D(110,112,114,119)    -19.264                                          !
 ! D295  D(110,112,114,120)    163.0644                                         !
 ! D296  D(113,112,114,119)   -136.6473                                         !
 ! D297  D(113,112,114,120)     45.6811                                         !
 ! D298  D(115,112,114,119)    103.2212                                         !
 ! D299  D(115,112,114,120)    -74.4504                                         !
 ! D300  D(110,112,115,116)   -178.4203                                         !
 ! D301  D(110,112,115,117)    -58.5664                                         !
 ! D302  D(110,112,115,118)     61.2648                                         !
 ! D303  D(113,112,115,116)    -59.1692                                         !
 ! D304  D(113,112,115,117)     60.6848                                         !
 ! D305  D(113,112,115,118)   -179.4841                                         !
 ! D306  D(114,112,115,116)     61.772                                          !
 ! D307  D(114,112,115,117)   -178.3741                                         !
 ! D308  D(114,112,115,118)    -58.5429                                         !
 ! D309  D(112,114,120,121)     -4.4797                                         !
 ! D310  D(112,114,120,122)    176.8444                                         !
 ! D311  D(119,114,120,121)    177.8821                                         !
 ! D312  D(119,114,120,122)     -0.7938                                         !
 ! D313  D(114,120,122,123)    -39.9988                                         !
 ! D314  D(114,120,122,124)   -159.0846                                         !
 ! D315  D(114,120,122,125)     79.6288                                         !
 ! D316  D(121,120,122,123)    141.243                                          !
 ! D317  D(121,120,122,124)     22.1572                                         !
 ! D318  D(121,120,122,125)    -99.1293                                         !
 ! D319  D(120,122,124,128)    -27.8425                                         !
 ! D320  D(120,122,124,139)    153.818                                          !
 ! D321  D(123,122,124,128)   -144.8071                                         !
 ! D322  D(123,122,124,139)     36.8534                                         !
 ! D323  D(125,122,124,128)     93.0179                                         !
 ! D324  D(125,122,124,139)    -85.3216                                         !
 ! D325  D(120,122,125,126)    -53.2861                                         !
 ! D326  D(120,122,125,127)     61.2395                                         !
 ! D327  D(120,122,125,129)   -175.0127                                         !
 ! D328  D(123,122,125,126)     65.2951                                         !
 ! D329  D(123,122,125,127)    179.8207                                         !
 ! D330  D(123,122,125,129)    -56.4315                                         !
 ! D331  D(124,122,125,126)   -171.6752                                         !
 ! D332  D(124,122,125,127)    -57.1495                                         !
 ! D333  D(124,122,125,129)     66.5982                                         !
 ! D334  D(122,124,139,140)      1.1748                                         !
 ! D335  D(122,124,139,141)    172.328                                          !
 ! D336  D(128,124,139,140)   -177.1372                                         !
 ! D337  D(128,124,139,141)     -5.984                                          !
 ! D338  D(122,125,129,130)    -59.6921                                         !
 ! D339  D(122,125,129,131)     60.2483                                         !
 ! D340  D(122,125,129,135)   -177.0921                                         !
 ! D341  D(126,125,129,130)   -179.827                                          !
 ! D342  D(126,125,129,131)    -59.8866                                         !
 ! D343  D(126,125,129,135)     62.773                                          !
 ! D344  D(127,125,129,130)     62.8845                                         !
 ! D345  D(127,125,129,131)   -177.1751                                         !
 ! D346  D(127,125,129,135)    -54.5155                                         !
 ! D347  D(125,129,131,132)     57.369                                          !
 ! D348  D(125,129,131,133)    -62.5641                                         !
 ! D349  D(125,129,131,134)    177.248                                          !
 ! D350  D(130,129,131,132)    177.7229                                         !
 ! D351  D(130,129,131,133)     57.7898                                         !
 ! D352  D(130,129,131,134)    -62.3981                                         !
 ! D353  D(135,129,131,132)    -64.8296                                         !
 ! D354  D(135,129,131,133)    175.2373                                         !
 ! D355  D(135,129,131,134)     55.0494                                         !
 ! D356  D(125,129,135,136)    -62.1368                                         !
 ! D357  D(125,129,135,137)    178.1486                                         !
 ! D358  D(125,129,135,138)     57.8379                                         !
 ! D359  D(130,129,135,136)    179.6259                                         !
 ! D360  D(130,129,135,137)     59.9113                                         !
 ! D361  D(130,129,135,138)    -60.3994                                         !
 ! D362  D(131,129,135,136)     61.7932                                         !
 ! D363  D(131,129,135,137)    -57.9213                                         !
 ! D364  D(131,129,135,138)   -178.232                                          !
 ! D365  D(124,139,141,142)    -30.628                                          !
 ! D366  D(124,139,141,143)   -146.8183                                         !
 ! D367  D(124,139,141,144)     87.9147                                         !
 ! D368  D(140,139,141,142)    140.626                                          !
 ! D369  D(140,139,141,143)     24.4357                                         !
 ! D370  D(140,139,141,144)   -100.8313                                         !
 ! D371  D(139,141,143,148)   -174.61                                           !
 ! D372  D(139,141,143,149)      5.3239                                         !
 ! D373  D(142,141,143,148)     68.8053                                         !
 ! D374  D(142,141,143,149)   -111.2607                                         !
 ! D375  D(144,141,143,148)    -48.2062                                         !
 ! D376  D(144,141,143,149)    131.7277                                         !
 ! D377  D(139,141,144,145)   -179.7276                                         !
 ! D378  D(139,141,144,146)    -59.7661                                         !
 ! D379  D(139,141,144,147)     59.9068                                         !
 ! D380  D(142,141,144,145)    -61.8495                                         !
 ! D381  D(142,141,144,146)     58.112                                          !
 ! D382  D(142,141,144,147)    177.7849                                         !
 ! D383  D(143,141,144,145)     54.0523                                         !
 ! D384  D(143,141,144,146)    174.0138                                         !
 ! D385  D(143,141,144,147)    -66.3133                                         !
 ! D386  D(141,143,149,150)    179.8857                                         !
 ! D387  D(148,143,149,150)     -0.1799                                         !
 --------------------------------------------------------------------------------
 Symmetry turned off by external request.
 Stoichiometry    C44H80N11O15(1+)
 Framework group  C1[X(C44H80N11O15)]
 Deg. of freedom   444
 Full point group                 C1      NOp   1
                          Input orientation:                          
 ---------------------------------------------------------------------
 Center     Atomic      Atomic             Coordinates (Angstroms)
 Number     Number       Type             X           Y           Z
 ---------------------------------------------------------------------
      1          7           0       -4.537093   -8.389424   -4.632451
      2          1           0       -4.672814   -8.913544   -5.502633
      3          1           0       -4.773004   -8.995605   -3.841379
      4          1           0       -3.527357   -8.075638   -4.589572
      5          6           0       -5.278065   -7.063204   -4.611024
      6          1           0       -6.144209   -7.140969   -5.270171
      7          6           0       -4.203681   -6.079577   -5.135932
      8          6           0       -5.682214   -6.745758   -3.157563
      9          1           0       -4.772401   -6.779285   -2.542632
     10          1           0       -6.349230   -7.547571   -2.808107
     11          8           0       -3.018146   -6.413517   -5.001702
     12          6           0       -6.387626   -5.388410   -2.941958
     13          1           0       -5.711926   -4.590084   -3.267850
     14          6           0       -7.695284   -5.270845   -3.737446
     15          1           0       -8.413782   -6.039755   -3.427210
     16          1           0       -7.555821   -5.364782   -4.821832
     17          1           0       -8.151540   -4.291490   -3.568885
     18          6           0       -6.644328   -5.188903   -1.441085
[...]
 Alpha virt. eigenvalues --    1.80724   1.80910   1.81017   1.81319   1.81383
 Alpha virt. eigenvalues --    1.81619   1.82080   1.82525   1.82613   1.82906
 Alpha virt. eigenvalues --    1.83307   1.83735   1.84082   1.84583   1.84975
 Alpha virt. eigenvalues --    1.85039   1.85248   1.85481   1.85648   1.85779
 Alpha virt. eigenvalues --    1.85800   1.85911   1.86824   1.87066   1.87250
 Alpha virt. eigenvalues --    1.87596   1.88128   1.88207   1.88458   1.88847
 Alpha virt. eigenvalues --    1.89387   1.89743   1.89770   1.90131   1.90558
 Alpha virt. eigenvalues --    1.90763   1.91035   1.91293   1.92007   1.92311
 Alpha virt. eigenvalues --    1.92411   1.92621   1.92948   1.93104   1.94193
 Alpha virt. eigenvalues --    1.94327   1.94597   1.94835   1.95156   1.95662
 Alpha virt. eigenvalues --    1.95757   1.95819   1.96616   1.97092   1.97374
 Alpha virt. eigenvalues --    1.97556   1.97596   1.97864   1.98476   1.98540
 Alpha virt. eigenvalues --    1.98675   1.98868   1.99082   1.99286   1.99815
 Alpha virt. eigenvalues --    1.99942   1.99969   2.00279   2.00655   2.01368
 Alpha virt. eigenvalues --    2.01774   2.01982   2.02387   2.02647   2.02981
 Alpha virt. eigenvalues --    2.03344   2.03792   2.04006   2.04276   2.04494
 Alpha virt. eigenvalues --    2.04587   2.05134   2.05730   2.05899   2.06033
 Alpha virt. eigenvalues --    2.06642   2.07048   2.07335   2.07914   2.08792
 Alpha virt. eigenvalues --    2.09403   2.09476   2.09534   2.10216   2.10424
 Alpha virt. eigenvalues --    2.10789   2.11907   2.12274   2.12520   2.12979
 Alpha virt. eigenvalues --    2.13352   2.13400   2.14478   2.14805   2.15058
 Alpha virt. eigenvalues --    2.15161   2.15306   2.15556   2.16262   2.16618
 Alpha virt. eigenvalues --    2.17007   2.17037   2.17700   2.17882   2.18224
 Alpha virt. eigenvalues --    2.18672   2.18959   2.19468   2.20572   2.20586
 Alpha virt. eigenvalues --    2.21082   2.21730   2.22291   2.22584   2.22747
 Alpha virt. eigenvalues --    2.22818   2.23269   2.24005   2.24147   2.24545
 Alpha virt. eigenvalues --    2.25309   2.25590   2.25897   2.26775   2.28033
 Alpha virt. eigenvalues --    2.28084   2.28394   2.28693   2.29567   2.29781
 Alpha virt. eigenvalues --    2.30056   2.30398   2.31060   2.31633   2.31840
 Alpha virt. eigenvalues --    2.32703   2.33056   2.33294   2.33826   2.34408
 Alpha virt. eigenvalues --    2.34623   2.34766   2.34832   2.36021   2.37122
 Alpha virt. eigenvalues --    2.37484   2.37957   2.38419   2.38695   2.38873
 Alpha virt. eigenvalues --    2.39712   2.40816   2.41091   2.41240   2.41448
 Alpha virt. eigenvalues --    2.41954   2.42132   2.42487   2.43097   2.43284
 Alpha virt. eigenvalues --    2.43986   2.44066   2.44744   2.45019   2.45492
 Alpha virt. eigenvalues --    2.45866   2.46343   2.47141   2.47399   2.47945
 Alpha virt. eigenvalues --    2.48262   2.48531   2.48815   2.49247   2.49336
 Alpha virt. eigenvalues --    2.50041   2.50972   2.51096   2.51278   2.53125
 Alpha virt. eigenvalues --    2.53517   2.53682   2.54796   2.54846   2.55974
 Alpha virt. eigenvalues --    2.56106   2.57155   2.58239   2.58879   2.59463
 Alpha virt. eigenvalues --    2.59669   2.59897   2.60230   2.61018   2.61850
 Alpha virt. eigenvalues --    2.61864   2.62875   2.63111   2.63318   2.63677
 Alpha virt. eigenvalues --    2.64406   2.65358   2.65598   2.65719   2.65976
 Alpha virt. eigenvalues --    2.66292   2.66623   2.67211   2.67901   2.68268
 Alpha virt. eigenvalues --    2.68436   2.69768   2.70260   2.71070   2.71116
 Alpha virt. eigenvalues --    2.72188   2.74562   2.75753   2.75936   2.76989
 Alpha virt. eigenvalues --    2.79017   2.79283   2.79698   2.80274   2.80828
 Alpha virt. eigenvalues --    2.81269   2.83331   2.83687   2.84143   2.84238
 Alpha virt. eigenvalues --    2.86028   2.86281   2.87143   2.87481   2.88658
 Alpha virt. eigenvalues --    2.90111   2.90361   2.91641   2.92468   2.93064
 Alpha virt. eigenvalues --    2.94439   2.95140   2.95522   2.96526   2.96831
 Alpha virt. eigenvalues --    2.98344   2.99279   3.00432   3.01130   3.01222
 Alpha virt. eigenvalues --    3.05483   3.06323   3.06870   3.08399   3.10147
 Alpha virt. eigenvalues --    3.10336   3.12646   3.12984   3.16982   3.18365
 Alpha virt. eigenvalues --    3.62164   3.74816   3.76839   3.81154   3.82042
 Alpha virt. eigenvalues --    3.86896   3.91061   3.93004   3.95911   3.96249
 Alpha virt. eigenvalues --    3.98716   4.00400   4.00959   4.01773   4.02200
 Alpha virt. eigenvalues --    4.02545   4.04566   4.06035   4.06880   4.07515
 Alpha virt. eigenvalues --    4.08127   4.09226   4.10893   4.12331   4.14493
 Alpha virt. eigenvalues --    4.14884   4.16554   4.16948   4.17087   4.17393
 Alpha virt. eigenvalues --    4.17497   4.17972   4.19252   4.19964   4.20652
 Alpha virt. eigenvalues --    4.20747   4.23859   4.24833   4.25245   4.25773
 Alpha virt. eigenvalues --    4.28047   4.28385   4.29515   4.30683   4.31514
 Alpha virt. eigenvalues --    4.32414   4.36683   4.37353   4.38232   4.40032
 Alpha virt. eigenvalues --    4.40472   4.44637   4.44797   4.45791   4.47252
 Alpha virt. eigenvalues --    4.48894   4.50673   4.52916   4.53426   4.54572
 Alpha virt. eigenvalues --    4.55110   4.55571   4.58426   4.59480   4.59837
 Alpha virt. eigenvalues --    4.60741   4.61593   4.62681   4.64491   4.65756
          Condensed to atoms (all electrons):
 Mulliken charges:
               1
     1  N   -0.749798
     2  H    0.419219
     3  H    0.416160
     4  H    0.432343
     5  C   -0.124881
     6  H    0.214042
     7  C    0.645260
     8  C   -0.285530
     9  H    0.176334
    10  H    0.165925
    11  O   -0.534258
    12  C   -0.113497
    13  H    0.165115
    14  C   -0.456585
    15  H    0.157843
    16  H    0.131229
    17  H    0.191075
    18  C   -0.453429
    19  H    0.156935
    20  H    0.163058
    21  H    0.171302
    22  N   -0.596590
    23  H    0.379444
    24  C   -0.070838
    25  H    0.186420
    26  C    0.635995
    27  C   -0.079324
    28  H    0.152453
    29  O   -0.554888
    30  C   -0.466588
    31  H    0.154963
    32  H    0.159190
    33  H    0.174450
    34  C   -0.447107
    35  H    0.162600
    36  H    0.171415
    37  H    0.133886
    38  N   -0.617347
    39  H    0.367333
    40  C   -0.030139
    41  H    0.174647
    42  C    0.612764
    43  C   -0.097707
    44  H    0.166853
    45  O   -0.538480
    46  C   -0.480815
    47  H    0.207823
    48  H    0.124465
    49  H    0.154140
    50  C   -0.487155
    51  H    0.170402
    52  H    0.142557
    53  H    0.169763
    54  N   -0.618186
    55  H    0.345919
    56  C   -0.113776
    57  H    0.217699
    58  C    0.629729
    59  C   -0.057141
    60  H    0.213165
    61  H    0.144610
    62  O   -0.531766
    63  O   -0.609421
    64  H    0.400957
    65  N   -0.610770
    66  H    0.375344
    67  C   -0.090469
    68  H    0.182726
    69  C    0.664894
    70  C    0.117902
    71  H    0.176441
    72  O   -0.580370
    73  C   -0.464651
    74  H    0.153630
    75  H    0.151883
    76  H    0.163142
    77  O   -0.656909
    78  H    0.423213
    79  N   -0.606369
    80  H    0.368990
    81  C   -0.084301
    82  H    0.181220
    83  C    0.616884
    84  C   -0.276391
    85  H    0.199647
    86  H    0.172624
    87  O   -0.517531
    88  C   -0.396022
    89  H    0.147220
    90  H    0.160401
    91  C    0.606787
    92  N   -0.789307
    93  H    0.367706
    94  H    0.338792
    95  O   -0.500071
    96  N   -0.606447
    97  H    0.374860
    98  C   -0.086721
    99  H    0.164358
   100  C    0.645472
   101  C    0.117395
   102  H    0.164924
   103  O   -0.548893
   104  C   -0.478009
   105  H    0.194222
   106  H    0.132842
   107  H    0.158019
   108  O   -0.634023
   109  H    0.387145
   110  N   -0.622458
   111  H    0.375915
   112  C   -0.033652
   113  H    0.171300
   114  C    0.618925
   115  C   -0.449469
   116  H    0.149342
   117  H    0.183785
   118  H    0.157174
   119  O   -0.536437
   120  N   -0.625324
   121  H    0.350923
   122  C   -0.047336
   123  H    0.173350
   124  C    0.613608
   125  C   -0.255860
   126  H    0.169698
   127  H    0.143066
   128  O   -0.539461
   129  C   -0.094685
   130  H    0.135336
   131  C   -0.449450
   132  H    0.161078
   133  H    0.127524
   134  H    0.146383
   135  C   -0.443315
   136  H    0.145733
   137  H    0.143143
   138  H    0.145274
   139  N   -0.616222
   140  H    0.358111
   141  C   -0.045361
   142  H    0.213210
   143  C    0.588084
   144  C   -0.442714
   145  H    0.181361
   146  H    0.178969
   147  H    0.151190
   148  O   -0.448997
   149  O   -0.578545
   150  H    0.421139
 Sum of Mulliken charges =   1.00000
 Mulliken charges with hydrogens summed into heavy atoms:
               1
     1  N    0.517924
     5  C    0.089162
     7  C    0.645260
     8  C    0.056729
    11  O   -0.534258
    12  C    0.051618
    14  C    0.023561
    18  C    0.037866
    22  N   -0.217146
    24  C    0.115582
    26  C    0.635995
    27  C    0.073128
    29  O   -0.554888
    30  C    0.022015
    34  C    0.020795
    38  N   -0.250014
    40  C    0.144508
    42  C    0.612764
    43  C    0.069146
    45  O   -0.538480
    46  C    0.005613
    50  C   -0.004433
    54  N   -0.272268
    56  C    0.103922
    58  C    0.629729
    59  C    0.300634
    62  O   -0.531766
    63  O   -0.208464
    65  N   -0.235425
    67  C    0.092258
    69  C    0.664894
    70  C    0.294343
    72  O   -0.580370
    73  C    0.004005
    77  O   -0.233696
    79  N   -0.237379
    81  C    0.096919
    83  C    0.616884
    84  C    0.095880
    87  O   -0.517531
    88  C   -0.088401
    91  C    0.606787
    92  N   -0.082809
    95  O   -0.500071
    96  N   -0.231587
    98  C    0.077637
   100  C    0.645472
   101  C    0.282320
   103  O   -0.548893
   104  C    0.007074
   108  O   -0.246879
   110  N   -0.246543
   112  C    0.137648
   114  C    0.618925
   115  C    0.040832
   119  O   -0.536437
   120  N   -0.274401
   122  C    0.126014
   124  C    0.613608
   125  C    0.056903
   128  O   -0.539461
   129  C    0.040651
   131  C   -0.014464
   135  C   -0.009166
   139  N   -0.258111
   141  C    0.167849
   143  C    0.588084
   144  C    0.068806
   148  O   -0.448997
   149  O   -0.157406
 Electronic spatial extent (au):  <R**2>=         138492.9314
 Charge=              1.0000 electrons
 Dipole moment (field-independent basis, Debye):
    X=            -26.1974    Y=            -26.5406    Z=            -21.2468  Tot=             42.9200
 Quadrupole moment (field-independent basis, Debye-Ang):
   XX=           -267.2546   YY=           -165.7543   ZZ=           -291.5802
   XY=            177.9766   XZ=            110.6534   YZ=            156.0236
 Traceless Quadrupole moment (field-independent basis, Debye-Ang):
   XX=            -25.7249   YY=             75.7754   ZZ=            -50.0505
   XY=            177.9766   XZ=            110.6534   YZ=            156.0236
 Octapole moment (field-independent basis, Debye-Ang**2):
  XXX=          -2341.5994  YYY=          -3072.1684  ZZZ=           -457.1695  XYY=          -1518.1502
  XXY=           -647.6090  XXZ=           -417.5482  XZZ=          -1113.5066  YZZ=           -922.6362
  YYZ=           -909.0175  XYZ=           -435.5447
 Hexadecapole moment (field-independent basis, Debye-Ang**3):
 XXXX=        -102330.0059 YYYY=         -21281.4042 ZZZZ=         -32168.3326 XXXY=         -15956.6391
 XXXZ=         -21244.8798 YYYX=         -10683.5696 YYYZ=          -1084.0253 ZZZX=         -19784.5202
 ZZZY=          -8029.3497 XXYY=         -12166.1540 XXZZ=         -21063.9139 YYZZ=          -6803.4434
 XXYZ=           1285.8176 YYXZ=            173.7874 ZZXY=          -4246.0497
 N-N= 1.144660426115D+04 E-N=-3.091302183366D+04  KE= 3.423824625600D+03
 Unable to Open any file for archive entry.
 1\1\GINC-LAC-260\SP\RB3LYP\6-31G(d)\C44H80N11O15(1+)\KENGMITH\02-Jul-2
 022\0\\# B3LYP/6-31G* empiricaldispersion=gd3 guess=read geom=check no
 symm integral(ultrafinegrid)\\Candidate Structure: Conf:961 Charge cal
 c in gas phase\\1,1\N,0,-4.537093163,-8.3894237266,-4.6324513372\H,0,-
 4.6728136143,-8.9135438275,-5.5026333515\H,0,-4.7730037244,-8.99560519
 29,-3.8413785775\H,0,-3.5273565691,-8.0756376028,-4.5895724216\C,0,-5.
 2780651955,-7.063204423,-4.6110243892\H,0,-6.1442087306,-7.1409690729,
 -5.2701713993\C,0,-4.2036810127,-6.0795769211,-5.1359318211\C,0,-5.682
 2135148,-6.7457582419,-3.1575632673\H,0,-4.7724013321,-6.7792847603,-2
 .5426320507\H,0,-6.3492302747,-7.5475707633,-2.8081067978\O,0,-3.01814
 59336,-6.4135171165,-5.0017023915\C,0,-6.3876260532,-5.3884101412,-2.9
 419583688\H,0,-5.7119264039,-4.5900838617,-3.267849696\C,0,-7.69528368
 97,-5.270845487,-3.7374456391\H,0,-8.4137815671,-6.0397553735,-3.42721
 00284\H,0,-7.555821337,-5.3647815918,-4.8218321202\H,0,-8.151540009,-4
 .2914895908,-3.568884742\C,0,-6.6443282214,-5.1889026249,-1.4410850646
 \H,0,-7.3264181599,-5.9532824393,-1.0490959029\H,0,-5.713690865,-5.230
 9492198,-0.8647334767\H,0,-7.1026863619,-4.2107558962,-1.2638667112\N,
 0,-4.6445556615,-4.9357580453,-5.6517224202\H,0,-5.6378339537,-4.71196
 79115,-5.6335942819\C,0,-3.8075543579,-3.7430007766,-5.8394061078\H,0,
 -2.8375501467,-3.945240116,-5.3749537425\C,0,-4.5826169184,-2.64246097
 52,-5.085776964\C,0,-3.6064346644,-3.4057385402,-7.3366387714\H,0,-4.6
 041756978,-3.2158420231,-7.7563242073\O,0,-5.8173455323,-2.6384848116,
 -5.12555526\C,0,-2.75527603,-2.1374242308,-7.496538721\H,0,-1.76348434
 79,-2.270969139,-7.0453447722\H,0,-3.2239092077,-1.2627403218,-7.03560
 93523\H,0,-2.6065745746,-1.9166903462,-8.5579064711\C,0,-2.9695726024,
 -4.5914657768,-8.073301412\H,0,-1.9827228367,-4.8268302474,-7.65735891
 69\H,0,-2.8413751462,-4.3533848797,-9.1339491706\H,0,-3.5892714151,-5.
 4916172304,-8.0057446636\N,0,-3.8452233463,-1.7532886929,-4.4030797667
 \H,0,-2.8367000441,-1.8487178696,-4.3280757152\C,0,-4.4233279762,-0.73
 44604073,-3.533686835\H,0,-5.1807896219,-0.1805521867,-4.099967949\C,0
 ,-3.253835806,0.1836231771,-3.1583506354\C,0,-5.1180978484,-1.36982063
 41,-2.2843446267\H,0,-5.941582754,-1.9543783959,-2.7114178626\O,0,-2.1
 017919371,-0.2537496351,-3.1206054399\C,0,-4.1932378161,-2.3202183968,
 -1.5127167695\H,0,-3.3227629233,-1.8191661268,-1.079194113\H,0,-3.8252
 136848,-3.1277202147,-2.1563024091\H,0,-4.7459178766,-2.7817237899,-0.
 6873654847\C,0,-5.728514073,-0.3036313215,-1.364608351\H,0,-4.95703049
 29,0.2796217445,-0.8510608524\H,0,-6.3834329397,0.3851291389,-1.915263
 5429\H,0,-6.3408624957,-0.781685371,-0.5933701154\N,0,-3.5572890641,1.
 472934985,-2.8589502686\H,0,-4.5319563572,1.7272712526,-2.7546009168\C
 ,0,-2.5582768287,2.4225454239,-2.3606411341\H,0,-1.6061282843,2.124842
 14,-2.8163607587\C,0,-2.3146778436,2.3570150609,-0.8380411141\C,0,-2.8
 781303613,3.840642778,-2.8408265299\H,0,-2.3022282362,4.5576370338,-2.
 2567369288\H,0,-3.9433904403,4.0724725554,-2.6825475228\O,0,-2.1760008
 75,3.3855236409,-0.1773363192\O,0,-2.4961548498,4.0264327764,-4.197915
 9992\H,0,-2.9519798904,3.3653495104,-4.7427959317\N,0,-2.159017912,1.1
 085997785,-0.3259337043\H,0,-2.0440685784,0.3285769149,-0.9680816715\C
 ,0,-1.4760218833,0.9129437153,0.9593163862\H,0,-1.8060454691,1.6987293
 521,1.6428303425\C,0,0.0343747423,1.0457460592,0.6838205561\C,0,-1.800
 4343913,-0.4774993229,1.5329283361\H,0,-1.1388555145,-0.6182616101,2.3
 985334195\O,0,0.7574537091,0.0460254694,0.5458794822\C,0,-3.2522670549
 ,-0.6118328253,1.9650401903\H,0,-3.4851507119,0.0923578705,2.770675988
 6\H,0,-3.9286833197,-0.4182767319,1.1270835206\H,0,-3.4319891326,-1.62
 86737448,2.325903948\O,0,-1.5427270308,-1.4707218509,0.5377267353\H,0,
 -0.5799767845,-1.4071747433,0.3735473211\N,0,0.4805116789,2.3038731575
 ,0.5132179964\H,0,-0.1714117502,3.0691336744,0.6493898901\C,0,1.864536
 9687,2.6252289925,0.1315450304\H,0,2.2275605961,1.7718299522,-0.452758
 1113\C,0,2.6818854808,2.7179413777,1.4399559505\C,0,1.9155456484,3.901
 8142386,-0.7027968848\H,0,2.9536560554,4.1061582088,-0.9760745978\H,0,
 1.6031760821,4.7543483002,-0.0897717792\O,0,3.1262184424,3.7730294148,
 1.8802918663\C,0,1.0606265298,3.8084436229,-1.9720054031\H,0,-0.004642
 0719,3.7647896816,-1.7185246544\H,0,1.2915562126,2.8802520828,-2.51657
 2345\C,0,1.3162155461,4.9835249954,-2.9223872567\N,0,0.3349895755,5.21
 0111536,-3.8449960787\H,0,-0.4839186084,4.6281076949,-3.975758234\H,0,
 0.5025547471,5.9439185817,-4.5194953178\O,0,2.3308267609,5.6630976027,
 -2.8610064739\N,0,2.7767046572,1.5275804917,2.0909052977\H,0,2.3110707
 754,0.7261789414,1.6734764984\C,0,3.0221840844,1.4693224167,3.52801809
 41\H,0,2.853526587,2.4802231562,3.9221572065\C,0,4.4932843548,1.084359
 2153,3.7811413338\C,0,2.0236590619,0.4945258352,4.1808109708\H,0,2.216
 4127468,-0.5102938562,3.7929637679\O,0,4.8247804315,-0.0292378184,4.18
 8113431\C,0,2.129092801,0.483661939,5.7016876376\H,0,3.117236855,0.136
 0826701,6.0110333291\H,0,1.968367487,1.4912739795,6.1098191538\H,0,1.3
 674897299,-0.1817177694,6.1192741571\O,0,0.6854711302,0.8070516554,3.7
 525310692\H,0,0.453623076,1.6618696671,4.1513347204\N,0,5.3678765659,2
 .0711465652,3.483786482\H,0,5.050316861,2.9599764073,3.0997540962\C,0,
 6.8027079428,1.8647667083,3.5593751002\H,0,7.0221771716,1.3476089556,4
 .50113373\C,0,7.4670801568,3.2480735143,3.5517841819\C,0,7.3231843676,
 1.0053566653,2.3915033736\H,0,8.4017676785,0.8361073294,2.4787609103\H
 ,0,6.812103649,0.0394141943,2.4058084168\H,0,7.1235137673,1.5061215534
 ,1.4382889402\O,0,6.8766395497,4.2492145797,3.1489446514\N,0,8.7534917
 136,3.2672495398,3.9714839903\H,0,9.2181444323,2.4409096916,4.33050553
 67\C,0,9.5501940614,4.4830870057,3.9625109706\H,0,9.3161707125,5.02765
 16448,3.0424263983\C,0,11.0176435332,4.0436381302,3.9800886138\C,0,9.2
 11034845,5.3700606937,5.1873609877\H,0,8.1229661282,5.506229738,5.1703
 023575\H,0,9.4543879176,4.7929197512,6.0888682479\O,0,11.3603944545,2.
 9762372002,4.4872664743\C,0,9.8891828077,6.7514143982,5.2559734976\H,0
 ,10.9786104291,6.613850119,5.2698661495\C,0,9.5312861606,7.6379190453,
 4.0526163602\H,0,8.4448346684,7.7686939062,3.9766060866\H,0,9.87064100
 2,7.2205726819,3.0964310854\H,0,9.987073481,8.6294512977,4.1514660524\
 C,0,9.4916794409,7.4495926386,6.5654243214\H,0,8.4080287744,7.61937379
 85,6.6031817439\H,0,9.9859374496,8.4235786664,6.658233365\H,0,9.767168
 3524,6.846682383,7.4386066399\N,0,11.9017021935,4.9179957635,3.4369554
 18\H,0,11.5717317306,5.8001870429,3.0723561898\C,0,13.3388647832,4.701
 6768733,3.536164766\H,0,13.5176492092,4.1664308806,4.4767270387\C,0,14
 .1124279958,6.0106264987,3.6352177864\C,0,13.8852970228,3.8412632543,2
 .3863459888\H,0,14.9627381507,3.7009684924,2.50313788\H,0,13.385919988
 7,2.8694942638,2.4072467265\H,0,13.6934566641,4.3192007222,1.419847157
 1\O,0,15.3183323283,6.0767933988,3.6316294441\O,0,13.3118876484,7.1048
 144698,3.7272372436\H,0,13.9050713926,7.8777148894,3.7867299054\\Versi
 on=ES64L-G16RevC.01\HF=-3455.6859819\RMSD=5.061e-09\Dipole=-13.0088996
 ,-12.1184656,-8.0799771\Quadrupole=-19.1258111,56.3371308,-37.2113196,
 132.3212084,82.2681225,115.9997003\PG=C01 [X(C44H80N11O15)]\\@
 The archive entry for this job was punched.


 I DO NOT KNOW WHAT I MAY APPEAR TO THE WORLD; BUT TO MYSELF
 I SEEM TO HAVE BEEN ONLY LIKE A BOY PLAYING ON THE SEASHORE,
 AND DIVERTING MYSELF IN NOW AND THEN FINDING A SMOOTHER PEBBLE
 OR A PRETTIER SHELL THAN ORDINARY, WHILST THE GREAT OCEAN OF
 TRUTH LAY ALL UNDISCOVERED BEFORE ME.
                                          -- NEWTON (1642-1726)
 Job cpu time:       0 days  0 hours  8 minutes 20.4 seconds.
 Elapsed time:       0 days  0 hours  2 minutes  6.2 seconds.
 File lengths (MBytes):  RWF=    872 Int=      0 D2E=      0 Chk=    144 Scr=     16
 Normal termination of Gaussian 16 at Sat Jul  2 15:27:01 2022.
