 Entering Gaussian System, Link 0=/opt/software/Gaussian/g16-AVX2-C.01/g16/g16
 Input=charge-conf-535.com
 Output=charge-conf-535.log
 Initial command:
 /opt/software/Gaussian/g16-AVX2-C.01/g16/l1.exe "/mnt/gs18/scratch/users/kengmith/Gau-41884.inp" -scrdir="/mnt/gs18/scratch/users/kengmith/"
 Entering Link 1 = /opt/software/Gaussian/g16-AVX2-C.01/g16/l1.exe PID=     41894.
  
 Copyright (c) 1988-2019, Gaussian, Inc.  All Rights Reserved.
  
 This is part of the Gaussian(R) 16 program.  It is based on
 the Gaussian(R) 09 system (copyright 2009, Gaussian, Inc.),
 the Gaussian(R) 03 system (copyright 2003, Gaussian, Inc.),
 the Gaussian(R) 98 system (copyright 1998, Gaussian, Inc.),
 the Gaussian(R) 94 system (copyright 1995, Gaussian, Inc.),
 the Gaussian 92(TM) system (copyright 1992, Gaussian, Inc.),
 the Gaussian 90(TM) system (copyright 1990, Gaussian, Inc.),
 the Gaussian 88(TM) system (copyright 1988, Gaussian, Inc.),
 the Gaussian 86(TM) system (copyright 1986, Carnegie Mellon
 University), and the Gaussian 82(TM) system (copyright 1983,
 Carnegie Mellon University). Gaussian is a federally registered
 trademark of Gaussian, Inc.
  
 This software contains proprietary and confidential information,
 including trade secrets, belonging to Gaussian, Inc.
  
 This software is provided under written license and may be
 used, copied, transmitted, or stored only in accord with that
 written license.
  
 The following legend is applicable only to US Government
 contracts under FAR:
  
                    RESTRICTED RIGHTS LEGEND
  
 Use, reproduction and disclosure by the US Government is
 subject to restrictions as set forth in subparagraphs (a)
 and (c) of the Commercial Computer Software - Restricted
 Rights clause in FAR 52.227-19.
  
 Gaussian, Inc.
 340 Quinnipiac St., Bldg. 40, Wallingford CT 06492
  
  
 ---------------------------------------------------------------
 Warning -- This program may not be used in any manner that
 competes with the business of Gaussian, Inc. or will provide
 assistance to any competitor of Gaussian, Inc.  The licensee
 of this program is prohibited from giving any competitor of
 Gaussian, Inc. access to this program.  By using this program,
 the user acknowledges that Gaussian, Inc. is engaged in the
 business of creating and licensing software in the field of
 computational chemistry and represents and warrants to the
 licensee that it is not a competitor of Gaussian, Inc. and that
 it will not use this program in any manner prohibited above.
 ---------------------------------------------------------------
  

 Cite this work as:
 Gaussian 16, Revision C.01,
 M. J. Frisch, G. W. Trucks, H. B. Schlegel, G. E. Scuseria, 
 M. A. Robb, J. R. Cheeseman, G. Scalmani, V. Barone, 
 G. A. Petersson, H. Nakatsuji, X. Li, M. Caricato, A. V. Marenich, 
 J. Bloino, B. G. Janesko, R. Gomperts, B. Mennucci, H. P. Hratchian, 
 J. V. Ortiz, A. F. Izmaylov, J. L. Sonnenberg, D. Williams-Young, 
 F. Ding, F. Lipparini, F. Egidi, J. Goings, B. Peng, A. Petrone, 
 T. Henderson, D. Ranasinghe, V. G. Zakrzewski, J. Gao, N. Rega, 
 G. Zheng, W. Liang, M. Hada, M. Ehara, K. Toyota, R. Fukuda, 
 J. Hasegawa, M. Ishida, T. Nakajima, Y. Honda, O. Kitao, H. Nakai, 
 T. Vreven, K. Throssell, J. A. Montgomery, Jr., J. E. Peralta, 
 F. Ogliaro, M. J. Bearpark, J. J. Heyd, E. N. Brothers, K. N. Kudin, 
 V. N. Staroverov, T. A. Keith, R. Kobayashi, J. Normand, 
 K. Raghavachari, A. P. Rendell, J. C. Burant, S. S. Iyengar, 
 J. Tomasi, M. Cossi, J. M. Millam, M. Klene, C. Adamo, R. Cammi, 
 J. W. Ochterski, R. L. Martin, K. Morokuma, O. Farkas, 
 J. B. Foresman, and D. J. Fox, Gaussian, Inc., Wallingford CT, 2019.
 
 ******************************************
 Gaussian 16:  ES64L-G16RevC.01  3-Jul-2019
                18-Jul-2022 
 ******************************************
 %mem=8gb
 %nproc=4
 Will use up to    4 processors via shared memory.
 %chk=conf-535.chk
 ----------------------------------------------------------------------
 # B3LYP/6-31G* empiricaldispersion=gd3 guess=read geom=check nosymm in
 tegral(ultrafinegrid)
 ----------------------------------------------------------------------
 1/29=2,38=1,172=1/1;
 2/12=2,15=1,40=1/2;
 3/5=1,6=6,7=1,11=2,14=-4,25=1,30=1,74=-5,75=-5,116=-2,124=31/1,2,3;
 4/5=1/1;
 5/5=2,38=6/2;
 6/7=2,8=2,9=2,10=2,28=1/1;
 99/5=1,9=1/99;
 ------------------------------------------------------
 Candidate Structure: Conf:535 Charge calc in gas phase
 ------------------------------------------------------
 Structure from the checkpoint file:  "conf-535.chk"
 Charge =  1 Multiplicity = 1
 Redundant internal coordinates found in file.  (old form).
 N,0,0.7144929987,3.2256920216,-4.4221065306
 H,0,1.3758568614,2.9761886334,-5.1621988208
 H,0,1.1687082832,3.8865491269,-3.7845460809
 H,0,-0.1515667511,3.6323544591,-4.8687996148
 C,0,0.1583657134,2.0173914713,-3.6918443263
 H,0,0.8585318513,1.1872778526,-3.7815110126
 C,0,-1.1711550116,1.7496119704,-4.4322194809
 C,0,-0.1049742363,2.3798979644,-2.2240898699
 H,0,-0.6206151955,1.5254199326,-1.7760828543
 H,0,-0.8191557384,3.2155197239,-2.2028698606
 O,0,-1.6698330351,2.6815355686,-5.0829037169
 C,0,1.1477852029,2.7168400261,-1.3926793014
 H,0,1.7131635507,3.5399758019,-1.8625876571
 C,0,0.7185448868,3.2290511501,-0.0107733635
 H,0,0.1788688195,2.447684506,0.5399982807
 H,0,0.0560089253,4.0990098715,-0.0890036168
 H,0,1.5990954992,3.5219396427,0.564150456
 C,0,2.1034185782,1.5243926531,-1.261089301
 H,0,1.6298367797,0.7151786692,-0.693782477
 H,0,2.4047072758,1.1059105631,-2.2281884304
 H,0,3.0083796817,1.8415822857,-0.7420667738
 N,0,-1.6675870636,0.5304941679,-4.2550003239
 H,0,-1.1059691938,-0.114096557,-3.6748544529
 C,0,-3.0073160349,0.1335130552,-4.6530583113
 H,0,-3.4327490957,0.9654572041,-5.2244233137
 C,0,-3.8492608841,-0.0523936425,-3.3685392554
 C,0,-2.9684668158,-1.1347211251,-5.5500967398
 H,0,-4.0009477803,-1.325801661,-5.875464675
 O,0,-3.3897608963,0.2093212464,-2.2496808716
 C,0,-2.1334084292,-0.8751377054,-6.8103197204
 H,0,-1.0791785138,-0.724612935,-6.5533919972
 H,0,-2.4826988727,0.0125293262,-7.350036295
 H,0,-2.1931119299,-1.7323051456,-7.4884608341
 C,0,-2.4711092442,-2.3689977847,-4.7829095068
 H,0,-1.4428049201,-2.2326059507,-4.4282452986
 H,0,-2.4828908468,-3.2492610366,-5.4331730822
 H,0,-3.1055642375,-2.5899617665,-3.9184335182
 N,0,-5.107938708,-0.5046424033,-3.5350870009
 H,0,-5.4149915619,-0.8030323921,-4.4515494864
 C,0,-5.9668270574,-0.8667402913,-2.3973799624
 H,0,-5.7231315346,-0.1686891307,-1.5912338494
 C,0,-5.5931119412,-2.3117795317,-1.9934412628
 C,0,-7.4558240905,-0.7417794683,-2.7591019813
 H,0,-7.6552804086,-1.4675318002,-3.5592879647
 O,0,-6.1038319925,-3.2853395913,-2.5370733701
 C,0,-8.3240887388,-1.123024488,-1.5509068242
 H,0,-8.1223331038,-0.4613382761,-0.6986315941
 H,0,-8.1485466771,-2.1571776614,-1.2417960993
 H,0,-9.3848955661,-1.0248856015,-1.8025249167
 C,0,-7.7912025376,0.6733583118,-3.2498792552
 H,0,-7.5997124223,1.414213377,-2.4634380469
 H,0,-7.2046108811,0.9622227705,-4.1285020593
 H,0,-8.8504020694,0.7390290792,-3.5189287926
 N,0,-4.6299463328,-2.4119112809,-1.0383099386
 H,0,-4.1891178288,-1.5808027022,-0.6622652877
 C,0,-4.1604680145,-3.6952841225,-0.5569619657
 H,0,-5.0185954714,-4.3508605272,-0.3739529859
 C,0,-3.3488893493,-3.4878829966,0.7119345761
 C,0,-3.2515488098,-4.4133016018,-1.6104441559
 H,0,-2.4052992657,-3.7520410557,-1.8442054292
 H,0,-3.8594043632,-4.5396943104,-2.5093931273
 O,0,-2.8493441063,-2.3964791999,1.0074103482
 O,0,-2.8282101392,-5.6884573223,-1.1716840845
 H,0,-1.9546221681,-5.5857413877,-0.7392379487
 N,0,-3.1214381633,-4.6177349305,1.440942614
 H,0,-3.3024623863,-5.4763100216,0.9212500228
 C,0,-1.9553106167,-4.647366423,2.3253483559
 H,0,-2.0626392495,-3.837180747,3.05102795
 C,0,-0.6921734914,-4.4415857565,1.4743368075
 C,0,-1.9418138249,-5.9849771855,3.1008138884
 H,0,-1.9374434709,-6.8028521345,2.3585295548
 O,0,-0.5687382368,-4.9899953182,0.3692011247
 C,0,-0.7241369223,-6.1243967415,4.0044128577
 H,0,0.2023327482,-6.1761354263,3.4250061513
 H,0,-0.6645242036,-5.2806875186,4.7009070055
 H,0,-0.8208483346,-7.0412552085,4.5912588618
 O,0,-3.0835795043,-6.0582260319,3.936308408
 H,0,-3.8743279048,-5.9109265772,3.392286628
 N,0,0.2423243473,-3.6326247314,2.0018291574
 H,0,0.0949206582,-3.1989563036,2.908387864
 C,0,1.4973720998,-3.2620961798,1.3666363363
 H,0,1.9124391346,-4.1332600789,0.8486492282
 C,0,2.4290946467,-2.76381156,2.479061035
 C,0,1.3154871998,-2.0722087233,0.3782490307
 H,0,2.2678426081,-1.5446274449,0.2530462465
 H,0,0.6369958176,-1.3647088581,0.8674741773
 O,0,1.969392408,-2.333411376,3.5382201063
 C,0,0.7826155454,-2.4838372532,-1.0142041528
 H,0,0.2007287864,-3.4064812008,-0.9251611406
 H,0,1.6097713564,-2.6825146464,-1.6992315662
 C,0,-0.1069788609,-1.4401386403,-1.6658380888
 N,0,-1.2001351081,-1.0716656897,-0.9762545482
 H,0,-1.5120176127,-1.5648689019,-0.1426679851
 H,0,-1.9043800729,-0.4909586243,-1.434422633
 O,0,0.1641375586,-0.9656712059,-2.7880026443
 N,0,3.7427913271,-2.7074037575,2.1515866969
 H,0,4.0388515644,-2.9734433344,1.2157987859
 C,0,4.6423908079,-1.7212184516,2.7605125364
 H,0,4.6132770553,-1.8273187562,3.8481976354
 C,0,4.1077507587,-0.3469594224,2.3177260299
 C,0,6.0710112329,-1.9660354031,2.2202645556
 H,0,6.6844342668,-1.1005128272,2.5155933344
 O,0,4.3833802074,0.1058561267,1.1894550802
 C,0,6.6873999408,-3.2433671025,2.7708342309
 H,0,6.8013021692,-3.1849957619,3.858246719
 H,0,6.062637223,-4.10936422,2.5304059568
 H,0,7.6720992218,-3.3939260496,2.3206160997
 O,0,6.02151983,-2.0816232849,0.8005299455
 H,0,5.6689902288,-1.2264436926,0.4832707899
 N,0,3.2536699165,0.2565365422,3.1619626743
 H,0,2.9749974069,-0.2695842235,3.982299943
 C,0,2.3463676612,1.3377130983,2.7391684393
 H,0,2.0811848645,1.1345706286,1.694924005
 C,0,3.0617943458,2.7104467309,2.7871887945
 C,0,1.0995811779,1.3302708863,3.6137090494
 H,0,0.3860178322,2.0729615571,3.2483260143
 H,0,0.6300356268,0.3411645262,3.5954126392
 H,0,1.3516743332,1.6009101496,4.6427365925
 O,0,2.8087174908,3.5503084043,3.6422356416
 N,0,3.9615924326,2.8756745854,1.7837404856
 H,0,4.157055667,2.0749819053,1.1901236492
 C,0,4.7765286138,4.0597544469,1.6325335752
 H,0,4.5892472485,4.6827537713,2.5111195135
 C,0,4.3512080353,4.823744672,0.366875066
 C,0,6.2757393923,3.6959096951,1.5398841808
 H,0,6.4510981681,3.1954644872,0.5771477482
 H,0,6.8579085097,4.6272040801,1.518804474
 O,0,3.8499174427,4.2617304318,-0.6103537541
 C,0,6.7817879781,2.7944811603,2.6820699244
 H,0,6.2318283626,1.8447483833,2.6190387703
 C,0,8.2726967899,2.4890080992,2.4803497599
 H,0,8.8731487041,3.4051526678,2.5458846495
 H,0,8.4615385187,2.034013031,1.5004594113
 H,0,8.6386323067,1.7988451328,3.2491831266
 C,0,6.5226216066,3.4060004611,4.0662882744
 H,0,7.0023658044,4.389966654,4.1523371805
 H,0,6.9403552173,2.7680442423,4.8534802301
 H,0,5.4541414443,3.5297875105,4.2723470287
 N,0,4.6106616224,6.1517045161,0.3919813906
 H,0,5.0552134895,6.5857115211,1.1929608674
 C,0,4.3751267976,7.006572113,-0.7576541976
 H,0,4.7287719425,6.490457516,-1.6580081568
 C,0,5.205208048,8.268585277,-0.5709850778
 C,0,2.8834478386,7.3458913594,-0.9370677274
 H,0,2.7347516757,7.9664117599,-1.8252057929
 H,0,2.327064579,6.4112562679,-1.0443854004
 H,0,2.5040060145,7.8815654087,-0.0612337803
 O,0,5.8094499741,8.5525431781,0.44022523
 O,0,5.1645825019,9.0477473837,-1.6678711604
 H,0,5.6914224815,9.8467103987,-1.4739812561
 Recover connectivity data from disk.
                           ----------------------------
                           !    Current Parameters    !
                           ! (Angstroms and Degrees)  !
 --------------------------                            --------------------------
 ! Name  Definition              Value                                          !
 --------------------------------------------------------------------------------
 ! R1    R(1,2)                  1.0234                                         !
 ! R2    R(1,3)                  1.0245                                         !
 ! R3    R(1,4)                  1.0559                                         !
 ! R4    R(1,5)                  1.5174                                         !
 ! R5    R(5,6)                  1.0897                                         !
 ! R6    R(5,7)                  1.5451                                         !
 ! R7    R(5,8)                  1.5346                                         !
 ! R8    R(7,11)                 1.2412                                         !
 ! R9    R(7,22)                 1.3282                                         !
 ! R10   R(8,9)                  1.094                                          !
 ! R11   R(8,10)                 1.0994                                         !
 ! R12   R(8,12)                 1.5408                                         !
 ! R13   R(12,13)                1.1036                                         !
 ! R14   R(12,14)                1.535                                          !
 ! R15   R(12,18)                1.5338                                         !
 ! R16   R(14,15)                1.0978                                         !
 ! R17   R(14,16)                1.0963                                         !
 ! R18   R(14,17)                1.0916                                         !
 ! R19   R(18,19)                1.0959                                         !
 ! R20   R(18,20)                1.096                                          !
 ! R21   R(18,21)                1.0904                                         !
 ! R22   R(22,23)                1.0332                                         !
 ! R23   R(22,24)                1.4529                                         !
 ! R24   R(24,25)                1.0953                                         !
 ! R25   R(24,26)                1.5471                                         !
 ! R26   R(24,27)                1.5539                                         !
 ! R27   R(26,29)                1.2375                                         !
 ! R28   R(26,38)                1.3478                                         !
 ! R29   R(27,28)                1.0993                                         !
 ! R30   R(27,30)                1.5339                                         !
 ! R31   R(27,34)                1.536                                          !
 ! R32   R(30,31)                1.0955                                         !
 ! R33   R(30,32)                1.096                                          !
 ! R34   R(30,33)                1.0946                                         !
 ! R35   R(34,35)                1.0963                                         !
 ! R36   R(34,36)                1.0945                                         !
 ! R37   R(34,37)                1.0948                                         !
 ! R38   R(38,39)                1.0115                                         !
 ! R39   R(38,40)                1.4708                                         !
 ! R40   R(40,41)                1.0939                                         !
 ! R41   R(40,42)                1.5463                                         !
 ! R42   R(40,43)                1.5374                                         !
 ! R43   R(42,45)                1.2265                                         !
 ! R44   R(42,54)                1.3601                                         !
 ! R45   R(43,44)                1.0985                                         !
 ! R46   R(43,46)                1.5359                                         !
 ! R47   R(43,50)                1.5349                                         !
 ! R48   R(46,47)                1.0977                                         !
 ! R49   R(46,48)                1.0935                                         !
 ! R50   R(46,49)                1.0946                                         !
 ! R51   R(50,51)                1.0973                                         !
 ! R52   R(50,52)                1.0952                                         !
 ! R53   R(50,53)                1.0948                                         !
 ! R54   R(54,55)                1.0132                                         !
 ! R55   R(54,56)                1.4488                                         !
 ! R56   R(56,57)                1.0953                                         !
 ! R57   R(56,58)                1.5205                                         !
 ! R58   R(56,59)                1.5657                                         !
 ! R59   R(58,62)                1.2361                                         !
 ! R60   R(58,65)                1.3637                                         !
 ! R61   R(59,60)                1.0991                                         !
 ! R62   R(59,61)                1.0925                                         !
 ! R63   R(59,63)                1.4134                                         !
 ! R64   R(63,64)                0.9802                                         !
 ! R65   R(65,66)                1.0198                                         !
 ! R66   R(65,67)                1.4639                                         !
 ! R67   R(67,68)                1.0929                                         !
 ! R68   R(67,69)                1.5369                                         !
 ! R69   R(67,70)                1.5462                                         !
 ! R70   R(69,72)                1.2399                                         !
 ! R71   R(69,79)                1.3439                                         !
 ! R72   R(70,71)                1.1045                                         !
 ! R73   R(70,73)                1.5227                                         !
 ! R74   R(70,77)                1.4167                                         !
 ! R75   R(73,74)                1.094                                          !
 ! R76   R(73,75)                1.0957                                         !
 ! R77   R(73,76)                1.0929                                         !
 ! R78   R(77,78)                0.9711                                         !
 ! R79   R(79,80)                1.0157                                         !
 ! R80   R(79,81)                1.4546                                         !
 ! R81   R(81,82)                1.0952                                         !
 ! R82   R(81,83)                1.5342                                         !
 ! R83   R(81,84)                1.5575                                         !
 ! R84   R(83,87)                1.2322                                         !
 ! R85   R(83,96)                1.3551                                         !
 ! R86   R(84,85)                1.0959                                         !
 ! R87   R(84,86)                1.0956                                         !
 ! R88   R(84,88)                1.5467                                         !
 ! R89   R(88,89)                1.0944                                         !
 ! R90   R(88,90)                1.0922                                         !
 ! R91   R(88,91)                1.5183                                         !
 ! R92   R(91,92)                1.344                                          !
 ! R93   R(91,95)                1.2481                                         !
 ! R94   R(92,93)                1.0175                                         !
 ! R95   R(92,94)                1.0213                                         !
 ! R96   R(96,97)                1.0169                                         !
 ! R97   R(96,98)                1.4672                                         !
 ! R98   R(98,99)                1.0932                                         !
 ! R99   R(98,100)               1.5396                                         !
 ! R100  R(98,101)               1.5469                                         !
 ! R101  R(100,103)              1.2466                                         !
 ! R102  R(100,110)              1.344                                          !
 ! R103  R(101,102)              1.1012                                         !
 ! R104  R(101,104)              1.5214                                         !
 ! R105  R(101,108)              1.4253                                         !
 ! R106  R(104,105)              1.0949                                         !
 ! R107  R(104,106)              1.0946                                         !
 ! R108  R(104,107)              1.0932                                         !
 ! R109  R(108,109)              0.9779                                         !
 ! R110  R(110,111)              1.0136                                         !
 ! R111  R(110,112)              1.4734                                         !
 ! R112  R(112,113)              1.0964                                         !
 ! R113  R(112,114)              1.5487                                         !
 ! R114  R(112,115)              1.5229                                         !
 ! R115  R(114,119)              1.225                                          !
 ! R116  R(114,120)              1.3579                                         !
 ! R117  R(115,116)              1.0928                                         !
 ! R118  R(115,117)              1.0951                                         !
 ! R119  R(115,118)              1.0935                                         !
 ! R120  R(120,121)              1.0157                                         !
 ! R121  R(120,122)              1.4453                                         !
 ! R122  R(122,123)              1.0932                                         !
 ! R123  R(122,124)              1.5383                                         !
 ! R124  R(122,125)              1.5455                                         !
 ! R125  R(124,128)              1.2337                                         !
 ! R126  R(124,139)              1.3533                                         !
 ! R127  R(125,126)              1.0991                                         !
 ! R128  R(125,127)              1.0985                                         !
 ! R129  R(125,129)              1.5405                                         !
 ! R130  R(129,130)              1.0993                                         !
 ! R131  R(129,131)              1.5352                                         !
 ! R132  R(129,135)              1.5353                                         !
 ! R133  R(131,132)              1.0973                                         !
 ! R134  R(131,133)              1.0968                                         !
 ! R135  R(131,134)              1.0961                                         !
 ! R136  R(135,136)              1.0981                                         !
 ! R137  R(135,137)              1.096                                          !
 ! R138  R(135,138)              1.0952                                         !
 ! R139  R(139,140)              1.0137                                         !
 ! R140  R(139,141)              1.4519                                         !
 ! R141  R(141,142)              1.0964                                         !
 ! R142  R(141,143)              1.522                                          !
 ! R143  R(141,144)              1.5403                                         !
 ! R144  R(143,148)              1.2117                                         !
 ! R145  R(143,149)              1.3461                                         !
 ! R146  R(144,145)              1.0936                                         !
 ! R147  R(144,146)              1.093                                          !
 ! R148  R(144,147)              1.0945                                         !
 ! R149  R(149,150)              0.9765                                         !
 ! A1    A(2,1,3)              108.7109                                         !
 ! A2    A(2,1,4)              108.5422                                         !
 ! A3    A(2,1,5)              113.0                                            !
 ! A4    A(3,1,4)              112.2398                                         !
 ! A5    A(3,1,5)              112.1268                                         !
 ! A6    A(4,1,5)              102.1025                                         !
 ! A7    A(1,5,6)              109.3613                                         !
 ! A8    A(1,5,7)              102.8707                                         !
 ! A9    A(1,5,8)              109.5772                                         !
 ! A10   A(6,5,7)              112.4223                                         !
 ! A11   A(6,5,8)              111.6489                                         !
 ! A12   A(7,5,8)              110.5833                                         !
 ! A13   A(5,7,11)             117.8255                                         !
 ! A14   A(5,7,22)             114.6291                                         !
 ! A15   A(11,7,22)            127.5136                                         !
 ! A16   A(5,8,9)              106.742                                          !
 ! A17   A(5,8,10)             108.027                                          !
 ! A18   A(5,8,12)             115.3541                                         !
 ! A19   A(9,8,10)             106.2348                                         !
 ! A20   A(9,8,12)             109.4546                                         !
 ! A21   A(10,8,12)            110.5804                                         !
 ! A22   A(8,12,13)            110.4787                                         !
 ! A23   A(8,12,14)            109.3525                                         !
 ! A24   A(8,12,18)            112.5105                                         !
 ! A25   A(13,12,14)           106.1223                                         !
 ! A26   A(13,12,18)           107.2897                                         !
 ! A27   A(14,12,18)           110.8802                                         !
 ! A28   A(12,14,15)           110.5871                                         !
 ! A29   A(12,14,16)           111.6872                                         !
 ! A30   A(12,14,17)           109.7609                                         !
 ! A31   A(15,14,16)           107.669                                          !
 ! A32   A(15,14,17)           108.8613                                         !
 ! A33   A(16,14,17)           108.1886                                         !
 ! A34   A(12,18,19)           110.4413                                         !
 ! A35   A(12,18,20)           113.1059                                         !
 ! A36   A(12,18,21)           109.3769                                         !
 ! A37   A(19,18,20)           107.0763                                         !
 ! A38   A(19,18,21)           109.0898                                         !
 ! A39   A(20,18,21)           107.6343                                         !
 ! A40   A(7,22,23)            116.385                                          !
 ! A41   A(7,22,24)            123.979                                          !
 ! A42   A(23,22,24)           118.9869                                         !
 ! A43   A(22,24,25)           107.071                                          !
 ! A44   A(22,24,26)           107.8895                                         !
 ! A45   A(22,24,27)           110.9842                                         !
 ! A46   A(25,24,26)           108.2417                                         !
 ! A47   A(25,24,27)           109.1782                                         !
 ! A48   A(26,24,27)           113.2562                                         !
 ! A49   A(24,26,29)           121.5464                                         !
 ! A50   A(24,26,38)           116.4847                                         !
 ! A51   A(29,26,38)           121.9675                                         !
 ! A52   A(24,27,28)           106.8133                                         !
 ! A53   A(24,27,30)           110.4734                                         !
 ! A54   A(24,27,34)           112.061                                          !
 ! A55   A(28,27,30)           107.3114                                         !
 ! A56   A(28,27,34)           108.1966                                         !
 ! A57   A(30,27,34)           111.7192                                         !
 ! A58   A(27,30,31)           110.7608                                         !
 ! A59   A(27,30,32)           111.6009                                         !
 ! A60   A(27,30,33)           110.2902                                         !
 ! A61   A(31,30,32)           108.1134                                         !
 ! A62   A(31,30,33)           107.7816                                         !
 ! A63   A(32,30,33)           108.1653                                         !
 ! A64   A(27,34,35)           111.4281                                         !
 ! A65   A(27,34,36)           110.246                                          !
 ! A66   A(27,34,37)           111.6483                                         !
 ! A67   A(35,34,36)           107.6006                                         !
 ! A68   A(35,34,37)           108.2541                                         !
 ! A69   A(36,34,37)           107.4916                                         !
 ! A70   A(26,38,39)           119.6313                                         !
 ! A71   A(26,38,40)           122.1666                                         !
 ! A72   A(39,38,40)           116.8043                                         !
 ! A73   A(38,40,41)           106.4315                                         !
 ! A74   A(38,40,42)           106.9186                                         !
 ! A75   A(38,40,43)           111.3199                                         !
 ! A76   A(41,40,42)           110.4877                                         !
 ! A77   A(41,40,43)           109.7124                                         !
 ! A78   A(42,40,43)           111.8083                                         !
 ! A79   A(40,42,45)           121.6947                                         !
 ! A80   A(40,42,54)           115.0489                                         !
 ! A81   A(45,42,54)           123.21                                           !
 ! A82   A(40,43,44)           107.0696                                         !
 ! A83   A(40,43,46)           110.0147                                         !
 ! A84   A(40,43,50)           111.2102                                         !
 ! A85   A(44,43,46)           107.8402                                         !
 ! A86   A(44,43,50)           109.6651                                         !
 ! A87   A(46,43,50)           110.9072                                         !
 ! A88   A(43,46,47)           110.9306                                         !
 ! A89   A(43,46,48)           111.4909                                         !
 ! A90   A(43,46,49)           110.1675                                         !
 ! A91   A(47,46,48)           108.7287                                         !
 ! A92   A(47,46,49)           107.6107                                         !
 ! A93   A(48,46,49)           107.7776                                         !
 ! A94   A(43,50,51)           110.8051                                         !
 ! A95   A(43,50,52)           112.4979                                         !
 ! A96   A(43,50,53)           110.1985                                         !
 ! A97   A(51,50,52)           107.6637                                         !
 ! A98   A(51,50,53)           107.7264                                         !
 ! A99   A(52,50,53)           107.7703                                         !
 ! A100  A(42,54,55)           120.5549                                         !
 ! A101  A(42,54,56)           121.8686                                         !
 ! A102  A(55,54,56)           117.5375                                         !
 ! A103  A(54,56,57)           109.3793                                         !
 ! A104  A(54,56,58)           109.2321                                         !
 ! A105  A(54,56,59)           111.7636                                         !
 ! A106  A(57,56,58)           111.1248                                         !
 ! A107  A(57,56,59)           107.0229                                         !
 ! A108  A(58,56,59)           108.3133                                         !
 ! A109  A(56,58,62)           122.3868                                         !
 ! A110  A(56,58,65)           114.9697                                         !
 ! A111  A(62,58,65)           122.4335                                         !
 ! A112  A(56,59,60)           108.31                                           !
 ! A113  A(56,59,61)           106.4811                                         !
 ! A114  A(56,59,63)           112.255                                          !
 ! A115  A(60,59,61)           108.8435                                         !
 ! A116  A(60,59,63)           112.2218                                         !
 ! A117  A(61,59,63)           108.5238                                         !
 ! A118  A(59,63,64)           108.0209                                         !
 ! A119  A(58,65,66)           113.2968                                         !
 ! A120  A(58,65,67)           118.2031                                         !
 ! A121  A(66,65,67)           115.6099                                         !
 ! A122  A(65,67,68)           107.9332                                         !
 ! A123  A(65,67,69)           108.5097                                         !
 ! A124  A(65,67,70)           109.1152                                         !
 ! A125  A(68,67,69)           110.4326                                         !
 ! A126  A(68,67,70)           108.0075                                         !
 ! A127  A(69,67,70)           112.7283                                         !
 ! A128  A(67,69,72)           121.0736                                         !
 ! A129  A(67,69,79)           115.7706                                         !
 ! A130  A(72,69,79)           123.1539                                         !
 ! A131  A(67,70,71)           107.6725                                         !
 ! A132  A(67,70,73)           112.5694                                         !
 ! A133  A(67,70,77)           109.4795                                         !
 ! A134  A(71,70,73)           109.1378                                         !
 ! A135  A(71,70,77)           111.1766                                         !
 ! A136  A(73,70,77)           106.8452                                         !
 ! A137  A(70,73,74)           111.5478                                         !
 ! A138  A(70,73,75)           110.5009                                         !
 ! A139  A(70,73,76)           108.9472                                         !
 ! A140  A(74,73,75)           109.0882                                         !
 ! A141  A(74,73,76)           108.6431                                         !
 ! A142  A(75,73,76)           108.0284                                         !
 ! A143  A(70,77,78)           108.5448                                         !
 ! A144  A(69,79,80)           120.4274                                         !
 ! A145  A(69,79,81)           125.5853                                         !
 ! A146  A(80,79,81)           113.9668                                         !
 ! A147  A(79,81,82)           109.3231                                         !
 ! A148  A(79,81,83)           106.8628                                         !
 ! A149  A(79,81,84)           111.7746                                         !
 ! A150  A(82,81,83)           111.7838                                         !
 ! A151  A(82,81,84)           110.5975                                         !
 ! A152  A(83,81,84)           106.4348                                         !
 ! A153  A(81,83,87)           120.6712                                         !
 ! A154  A(81,83,96)           115.2799                                         !
 ! A155  A(87,83,96)           123.7009                                         !
 ! A156  A(81,84,85)           109.8039                                         !
 ! A157  A(81,84,86)           106.3979                                         !
 ! A158  A(81,84,88)           114.0932                                         !
 ! A159  A(85,84,86)           106.1598                                         !
 ! A160  A(85,84,88)           108.945                                          !
 ! A161  A(86,84,88)           111.132                                          !
 ! A162  A(84,88,89)           109.529                                          !
 ! A163  A(84,88,90)           110.6183                                         !
 ! A164  A(84,88,91)           113.9095                                         !
 ! A165  A(89,88,90)           107.4773                                         !
 ! A166  A(89,88,91)           107.6322                                         !
 ! A167  A(90,88,91)           107.4325                                         !
 ! A168  A(88,91,92)           116.4113                                         !
 ! A169  A(88,91,95)           121.3254                                         !
 ! A170  A(92,91,95)           122.2596                                         !
 ! A171  A(91,92,93)           122.4625                                         !
 ! A172  A(91,92,94)           119.1151                                         !
 ! A173  A(93,92,94)           115.5785                                         !
 ! A174  A(83,96,97)           119.5867                                         !
 ! A175  A(83,96,98)           121.4737                                         !
 ! A176  A(97,96,98)           112.2876                                         !
 ! A177  A(96,98,99)           109.3513                                         !
 ! A178  A(96,98,100)          105.5267                                         !
 ! A179  A(96,98,101)          108.3576                                         !
 ! A180  A(99,98,100)          111.3159                                         !
 ! A181  A(99,98,101)          110.8988                                         !
 ! A182  A(100,98,101)         111.1943                                         !
 ! A183  A(98,100,103)         120.5132                                         !
 ! A184  A(98,100,110)         116.1555                                         !
 ! A185  A(103,100,110)        123.0875                                         !
 ! A186  A(98,101,102)         107.2421                                         !
 ! A187  A(98,101,104)         112.375                                          !
 ! A188  A(98,101,108)         109.1874                                         !
 ! A189  A(102,101,104)        109.7036                                         !
 ! A190  A(102,101,108)        110.5012                                         !
 ! A191  A(104,101,108)        107.8457                                         !
 ! A192  A(101,104,105)        110.9033                                         !
 ! A193  A(101,104,106)        110.7024                                         !
 ! A194  A(101,104,107)        109.3624                                         !
 ! A195  A(105,104,106)        108.6451                                         !
 ! A196  A(105,104,107)        108.824                                          !
 ! A197  A(106,104,107)        108.3439                                         !
 ! A198  A(101,108,109)        105.353                                          !
 ! A199  A(100,110,111)        116.7442                                         !
 ! A200  A(100,110,112)        122.7217                                         !
 ! A201  A(111,110,112)        116.3478                                         !
 ! A202  A(110,112,113)        106.6359                                         !
 ! A203  A(110,112,114)        110.9194                                         !
 ! A204  A(110,112,115)        109.6189                                         !
 ! A205  A(113,112,114)        107.788                                          !
 ! A206  A(113,112,115)        110.3663                                         !
 ! A207  A(114,112,115)        111.3896                                         !
 ! A208  A(112,114,119)        122.2707                                         !
 ! A209  A(112,114,120)        113.0197                                         !
 ! A210  A(119,114,120)        124.7015                                         !
 ! A211  A(112,115,116)        109.8303                                         !
 ! A212  A(112,115,117)        110.234                                          !
 ! A213  A(112,115,118)        110.5148                                         !
 ! A214  A(116,115,117)        109.165                                          !
 ! A215  A(116,115,118)        107.2757                                         !
 ! A216  A(117,115,118)        109.7633                                         !
 ! A217  A(114,120,121)        117.6118                                         !
 ! A218  A(114,120,122)        123.4094                                         !
 ! A219  A(121,120,122)        118.4348                                         !
 ! A220  A(120,122,123)        106.6303                                         !
 ! A221  A(120,122,124)        109.6969                                         !
 ! A222  A(120,122,125)        111.1217                                         !
 ! A223  A(123,122,124)        109.3193                                         !
 ! A224  A(123,122,125)        110.3968                                         !
 ! A225  A(124,122,125)        109.6209                                         !
 ! A226  A(122,124,128)        122.5332                                         !
 ! A227  A(122,124,139)        114.7756                                         !
 ! A228  A(128,124,139)        122.6563                                         !
 ! A229  A(122,125,126)        108.3285                                         !
 ! A230  A(122,125,127)        108.4006                                         !
 ! A231  A(122,125,129)        114.3278                                         !
 ! A232  A(126,125,127)        106.5381                                         !
 ! A233  A(126,125,129)        109.3047                                         !
 ! A234  A(127,125,129)        109.6466                                         !
 ! A235  A(125,129,130)        107.3786                                         !
 ! A236  A(125,129,131)        109.7565                                         !
 ! A237  A(125,129,135)        112.3302                                         !
 ! A238  A(130,129,131)        107.8433                                         !
 ! A239  A(130,129,135)        108.1413                                         !
 ! A240  A(131,129,135)        111.2019                                         !
 ! A241  A(129,131,132)        110.9426                                         !
 ! A242  A(129,131,133)        111.5406                                         !
 ! A243  A(129,131,134)        110.9381                                         !
 ! A244  A(132,131,133)        107.788                                          !
 ! A245  A(132,131,134)        107.5252                                         !
 ! A246  A(133,131,134)        107.9388                                         !
 ! A247  A(129,135,136)        110.721                                          !
 ! A248  A(129,135,137)        110.572                                          !
 ! A249  A(129,135,138)        112.2928                                         !
 ! A250  A(136,135,137)        107.3852                                         !
 ! A251  A(136,135,138)        108.0724                                         !
 ! A252  A(137,135,138)        107.6085                                         !
 ! A253  A(124,139,140)        121.2564                                         !
 ! A254  A(124,139,141)        122.1397                                         !
 ! A255  A(140,139,141)        116.4059                                         !
 ! A256  A(139,141,142)        108.7081                                         !
 ! A257  A(139,141,143)        107.6154                                         !
 ! A258  A(139,141,144)        112.2752                                         !
 ! A259  A(142,141,143)        108.3683                                         !
 ! A260  A(142,141,144)        108.6887                                         !
 ! A261  A(143,141,144)        111.0877                                         !
 ! A262  A(141,143,148)        124.6539                                         !
 ! A263  A(141,143,149)        111.3187                                         !
 ! A264  A(148,143,149)        124.0168                                         !
 ! A265  A(141,144,145)        110.5656                                         !
 ! A266  A(141,144,146)        108.4239                                         !
 ! A267  A(141,144,147)        110.5082                                         !
 ! A268  A(145,144,146)        109.6486                                         !
 ! A269  A(145,144,147)        108.9669                                         !
 ! A270  A(146,144,147)        108.6992                                         !
 ! A271  A(143,149,150)        107.1893                                         !
 ! D1    D(2,1,5,6)             24.5394                                         !
 ! D2    D(2,1,5,7)            -95.1308                                         !
 ! D3    D(2,1,5,8)            147.2227                                         !
 ! D4    D(3,1,5,6)            -98.7451                                         !
 ! D5    D(3,1,5,7)            141.5847                                         !
 ! D6    D(3,1,5,8)             23.9382                                         !
 ! D7    D(4,1,5,6)            140.9204                                         !
 ! D8    D(4,1,5,7)             21.2502                                         !
 ! D9    D(4,1,5,8)            -96.3964                                         !
 ! D10   D(1,5,7,11)           -20.624                                          !
 ! D11   D(1,5,7,22)           161.271                                          !
 ! D12   D(6,5,7,11)          -138.1508                                         !
 ! D13   D(6,5,7,22)            43.7442                                         !
 ! D14   D(8,5,7,11)            96.3097                                         !
 ! D15   D(8,5,7,22)           -81.7953                                         !
 ! D16   D(1,5,8,9)            172.8781                                         !
 ! D17   D(1,5,8,10)            58.9922                                         !
 ! D18   D(1,5,8,12)           -65.2909                                         !
 ! D19   D(6,5,8,9)            -65.808                                          !
 ! D20   D(6,5,8,10)          -179.6939                                         !
 ! D21   D(6,5,8,12)            56.023                                          !
 ! D22   D(7,5,8,9)             60.1662                                         !
 ! D23   D(7,5,8,10)           -53.7197                                         !
 ! D24   D(7,5,8,12)          -178.0028                                         !
 ! D25   D(5,7,22,23)           -1.9635                                         !
 ! D26   D(5,7,22,24)          168.682                                          !
 ! D27   D(11,7,22,23)        -179.8505                                         !
 ! D28   D(11,7,22,24)          -9.205                                          !
 ! D29   D(5,8,12,13)           56.3768                                         !
 ! D30   D(5,8,12,14)          172.822                                          !
 ! D31   D(5,8,12,18)          -63.5035                                         !
 ! D32   D(9,8,12,13)          176.7378                                         !
 ! D33   D(9,8,12,14)          -66.817                                          !
 ! D34   D(9,8,12,18)           56.8574                                         !
 ! D35   D(10,8,12,13)         -66.5604                                         !
 ! D36   D(10,8,12,14)          49.8848                                         !
 ! D37   D(10,8,12,18)         173.5592                                         !
 ! D38   D(8,12,14,15)          62.9882                                         !
 ! D39   D(8,12,14,16)         -56.8995                                         !
 ! D40   D(8,12,14,17)        -176.8873                                         !
 ! D41   D(13,12,14,15)       -177.8344                                         !
 ! D42   D(13,12,14,16)         62.2779                                         !
 ! D43   D(13,12,14,17)        -57.7099                                         !
 ! D44   D(18,12,14,15)        -61.6424                                         !
 ! D45   D(18,12,14,16)        178.4699                                         !
 ! D46   D(18,12,14,17)         58.4822                                         !
 ! D47   D(8,12,18,19)         -64.8996                                         !
 ! D48   D(8,12,18,20)          55.0827                                         !
 ! D49   D(8,12,18,21)         175.0295                                         !
 ! D50   D(13,12,18,19)        173.3895                                         !
 ! D51   D(13,12,18,20)        -66.6283                                         !
 ! D52   D(13,12,18,21)         53.3186                                         !
 ! D53   D(14,12,18,19)         57.9213                                         !
 ! D54   D(14,12,18,20)        177.9035                                         !
 ! D55   D(14,12,18,21)        -62.1497                                         !
 ! D56   D(7,22,24,25)           7.6244                                         !
 ! D57   D(7,22,24,26)        -108.6847                                         !
 ! D58   D(7,22,24,27)         126.6919                                         !
 ! D59   D(23,22,24,25)        178.0422                                         !
 ! D60   D(23,22,24,26)         61.7331                                         !
 ! D61   D(23,22,24,27)        -62.8903                                         !
 ! D62   D(22,24,26,29)          4.436                                          !
 ! D63   D(22,24,26,38)       -175.9849                                         !
 ! D64   D(25,24,26,29)       -111.1066                                         !
 ! D65   D(25,24,26,38)         68.4725                                         !
 ! D66   D(27,24,26,29)        127.6869                                         !
 ! D67   D(27,24,26,38)        -52.7341                                         !
 ! D68   D(22,24,27,28)       -175.5604                                         !
 ! D69   D(22,24,27,30)        -59.1608                                         !
 ! D70   D(22,24,27,34)         66.1157                                         !
 ! D71   D(25,24,27,28)        -57.7671                                         !
 ! D72   D(25,24,27,30)         58.6326                                         !
 ! D73   D(25,24,27,34)       -176.0909                                         !
 ! D74   D(26,24,27,28)         62.9104                                         !
 ! D75   D(26,24,27,30)        179.3101                                         !
 ! D76   D(26,24,27,34)        -55.4134                                         !
 ! D77   D(24,26,38,39)          7.0669                                         !
 ! D78   D(24,26,38,40)        173.137                                          !
 ! D79   D(29,26,38,39)       -173.3559                                         !
 ! D80   D(29,26,38,40)         -7.2858                                         !
 ! D81   D(24,27,30,31)         66.6315                                         !
 ! D82   D(24,27,30,32)        -53.8791                                         !
 ! D83   D(24,27,30,33)       -174.136                                          !
 ! D84   D(28,27,30,31)       -177.2789                                         !
 ! D85   D(28,27,30,32)         62.2105                                         !
 ! D86   D(28,27,30,33)        -58.0464                                         !
 ! D87   D(34,27,30,31)        -58.8384                                         !
 ! D88   D(34,27,30,32)       -179.349                                          !
 ! D89   D(34,27,30,33)         60.3941                                         !
 ! D90   D(24,27,34,35)        -62.2219                                         !
 ! D91   D(24,27,34,36)        178.3731                                         !
 ! D92   D(24,27,34,37)         58.9626                                         !
 ! D93   D(28,27,34,35)       -179.7221                                         !
 ! D94   D(28,27,34,36)         60.8729                                         !
 ! D95   D(28,27,34,37)        -58.5377                                         !
 ! D96   D(30,27,34,35)         62.3665                                         !
 ! D97   D(30,27,34,36)        -57.0385                                         !
 ! D98   D(30,27,34,37)       -176.449                                          !
 ! D99   D(26,38,40,41)         35.153                                          !
 ! D100  D(26,38,40,42)        -82.9543                                         !
 ! D101  D(26,38,40,43)        154.6644                                         !
 ! D102  D(39,38,40,41)       -158.4058                                         !
 ! D103  D(39,38,40,42)         83.4869                                         !
 ! D104  D(39,38,40,43)        -38.8944                                         !
 ! D105  D(38,40,42,45)        -85.973                                          !
 ! D106  D(38,40,42,54)         91.6255                                         !
 ! D107  D(41,40,42,45)        158.6048                                         !
 ! D108  D(41,40,42,54)        -23.7967                                         !
 ! D109  D(43,40,42,45)         36.1021                                         !
 ! D110  D(43,40,42,54)       -146.2994                                         !
 ! D111  D(38,40,43,44)         63.2016                                         !
 ! D112  D(38,40,43,46)       -179.8665                                         !
 ! D113  D(38,40,43,50)        -56.5851                                         !
 ! D114  D(41,40,43,44)       -179.257                                          !
 ! D115  D(41,40,43,46)        -62.3251                                         !
 ! D116  D(41,40,43,50)         60.9563                                         !
 ! D117  D(42,40,43,44)        -56.3127                                         !
 ! D118  D(42,40,43,46)         60.6191                                         !
 ! D119  D(42,40,43,50)       -176.0994                                         !
 ! D120  D(40,42,54,55)         -1.8823                                         !
 ! D121  D(40,42,54,56)       -179.5536                                         !
 ! D122  D(45,42,54,55)        175.6755                                         !
 ! D123  D(45,42,54,56)         -1.9959                                         !
 ! D124  D(40,43,46,47)         60.3637                                         !
 ! D125  D(40,43,46,48)        -60.9718                                         !
 ! D126  D(40,43,46,49)        179.4126                                         !
 ! D127  D(44,43,46,47)        176.8136                                         !
 ! D128  D(44,43,46,48)         55.4781                                         !
 ! D129  D(44,43,46,49)        -64.1375                                         !
 ! D130  D(50,43,46,47)        -63.0949                                         !
 ! D131  D(50,43,46,48)        175.5696                                         !
 ! D132  D(50,43,46,49)         55.954                                          !
 ! D133  D(40,43,50,51)        -61.84                                           !
 ! D134  D(40,43,50,52)         58.7377                                         !
 ! D135  D(40,43,50,53)        179.0267                                         !
 ! D136  D(44,43,50,51)        179.9276                                         !
 ! D137  D(44,43,50,52)        -59.4947                                         !
 ! D138  D(44,43,50,53)         60.7943                                         !
 ! D139  D(46,43,50,51)         60.9292                                         !
 ! D140  D(46,43,50,52)       -178.4931                                         !
 ! D141  D(46,43,50,53)        -58.2041                                         !
 ! D142  D(42,54,56,57)        -44.7867                                         !
 ! D143  D(42,54,56,58)       -166.6127                                         !
 ! D144  D(42,54,56,59)         73.5457                                         !
 ! D145  D(55,54,56,57)        137.4747                                         !
 ! D146  D(55,54,56,58)         15.6488                                         !
 ! D147  D(55,54,56,59)       -104.1929                                         !
 ! D148  D(54,56,58,62)        -20.2267                                         !
 ! D149  D(54,56,58,65)        164.9225                                         !
 ! D150  D(57,56,58,62)       -140.9933                                         !
 ! D151  D(57,56,58,65)         44.1559                                         !
 ! D152  D(59,56,58,62)        101.7186                                         !
 ! D153  D(59,56,58,65)        -73.1322                                         !
 ! D154  D(54,56,59,60)         57.7435                                         !
 ! D155  D(54,56,59,61)        -59.1728                                         !
 ! D156  D(54,56,59,63)       -177.7959                                         !
 ! D157  D(57,56,59,60)        177.472                                          !
 ! D158  D(57,56,59,61)         60.5557                                         !
 ! D159  D(57,56,59,63)        -58.0674                                         !
 ! D160  D(58,56,59,60)        -62.6367                                         !
 ! D161  D(58,56,59,61)       -179.553                                          !
 ! D162  D(58,56,59,63)         61.8239                                         !
 ! D163  D(56,58,65,66)         15.6294                                         !
 ! D164  D(56,58,65,67)        155.53                                           !
 ! D165  D(62,58,65,66)       -159.2187                                         !
 ! D166  D(62,58,65,67)        -19.3181                                         !
 ! D167  D(56,59,63,64)        -93.6032                                         !
 ! D168  D(60,59,63,64)         28.6632                                         !
 ! D169  D(61,59,63,64)        148.9843                                         !
 ! D170  D(58,65,67,68)         59.8512                                         !
 ! D171  D(58,65,67,69)        -59.8381                                         !
 ! D172  D(58,65,67,70)        176.9838                                         !
 ! D173  D(66,65,67,68)       -161.1483                                         !
 ! D174  D(66,65,67,69)         79.1624                                         !
 ! D175  D(66,65,67,70)        -44.0157                                         !
 ! D176  D(65,67,69,72)        -40.8792                                         !
 ! D177  D(65,67,69,79)        138.6327                                         !
 ! D178  D(68,67,69,72)       -158.9932                                         !
 ! D179  D(68,67,69,79)         20.5187                                         !
 ! D180  D(70,67,69,72)         80.0944                                         !
 ! D181  D(70,67,69,79)       -100.3937                                         !
 ! D182  D(65,67,70,71)         57.2294                                         !
 ! D183  D(65,67,70,73)        177.5635                                         !
 ! D184  D(65,67,70,77)        -63.7583                                         !
 ! D185  D(68,67,70,71)        174.3149                                         !
 ! D186  D(68,67,70,73)        -65.3509                                         !
 ! D187  D(68,67,70,77)         53.3273                                         !
 ! D188  D(69,67,70,71)        -63.3982                                         !
 ! D189  D(69,67,70,73)         56.9359                                         !
 ! D190  D(69,67,70,77)        175.6141                                         !
 ! D191  D(67,69,79,80)          0.0247                                         !
 ! D192  D(67,69,79,81)       -178.2235                                         !
 ! D193  D(72,69,79,80)        179.5253                                         !
 ! D194  D(72,69,79,81)          1.2771                                         !
 ! D195  D(67,70,73,74)        -65.3448                                         !
 ! D196  D(67,70,73,75)         56.1898                                         !
 ! D197  D(67,70,73,76)        174.7253                                         !
 ! D198  D(71,70,73,74)         54.1418                                         !
 ! D199  D(71,70,73,75)        175.6764                                         !
 ! D200  D(71,70,73,76)        -65.7882                                         !
 ! D201  D(77,70,73,74)        174.4459                                         !
 ! D202  D(77,70,73,75)        -64.0195                                         !
 ! D203  D(77,70,73,76)         54.5159                                         !
 ! D204  D(67,70,77,78)         53.9997                                         !
 ! D205  D(71,70,77,78)        -64.8398                                         !
 ! D206  D(73,70,77,78)        176.1711                                         !
 ! D207  D(69,79,81,82)        -39.3467                                         !
 ! D208  D(69,79,81,83)       -160.4923                                         !
 ! D209  D(69,79,81,84)         83.4401                                         !
 ! D210  D(80,79,81,82)        142.3063                                         !
 ! D211  D(80,79,81,83)         21.1607                                         !
 ! D212  D(80,79,81,84)        -94.9069                                         !
 ! D213  D(79,81,83,87)        -23.2597                                         !
 ! D214  D(79,81,83,96)        163.2681                                         !
 ! D215  D(82,81,83,87)       -142.8299                                         !
 ! D216  D(82,81,83,96)         43.6979                                         !
 ! D217  D(84,81,83,87)         96.3143                                         !
 ! D218  D(84,81,83,96)        -77.1579                                         !
 ! D219  D(79,81,84,85)        155.7492                                         !
 ! D220  D(79,81,84,86)         41.2725                                         !
 ! D221  D(79,81,84,88)        -81.6334                                         !
 ! D222  D(82,81,84,85)        -82.1927                                         !
 ! D223  D(82,81,84,86)        163.3306                                         !
 ! D224  D(82,81,84,88)         40.4247                                         !
 ! D225  D(83,81,84,85)         39.4214                                         !
 ! D226  D(83,81,84,86)        -75.0552                                         !
 ! D227  D(83,81,84,88)        162.0389                                         !
 ! D228  D(81,83,96,97)          0.9145                                         !
 ! D229  D(81,83,96,98)        150.1105                                         !
 ! D230  D(87,83,96,97)       -172.3357                                         !
 ! D231  D(87,83,96,98)        -23.1398                                         !
 ! D232  D(81,84,88,89)         26.4877                                         !
 ! D233  D(81,84,88,90)        -91.8011                                         !
 ! D234  D(81,84,88,91)        147.0723                                         !
 ! D235  D(85,84,88,89)        149.5729                                         !
 ! D236  D(85,84,88,90)         31.2841                                         !
 ! D237  D(85,84,88,91)        -89.8425                                         !
 ! D238  D(86,84,88,89)        -93.8026                                         !
 ! D239  D(86,84,88,90)        147.9086                                         !
 ! D240  D(86,84,88,91)         26.7821                                         !
 ! D241  D(84,88,91,92)        -57.9127                                         !
 ! D242  D(84,88,91,95)        122.7696                                         !
 ! D243  D(89,88,91,92)         63.7285                                         !
 ! D244  D(89,88,91,95)       -115.5893                                         !
 ! D245  D(90,88,91,92)        179.2028                                         !
 ! D246  D(90,88,91,95)         -0.1149                                         !
 ! D247  D(88,91,92,93)        -10.1094                                         !
 ! D248  D(88,91,92,94)       -170.1627                                         !
 ! D249  D(95,91,92,93)        169.2014                                         !
 ! D250  D(95,91,92,94)          9.1481                                         !
 ! D251  D(83,96,98,99)         56.5717                                         !
 ! D252  D(83,96,98,100)       -63.2593                                         !
 ! D253  D(83,96,98,101)       177.5618                                         !
 ! D254  D(97,96,98,99)       -152.1978                                         !
 ! D255  D(97,96,98,100)        87.9713                                         !
 ! D256  D(97,96,98,101)       -31.2076                                         !
 ! D257  D(96,98,100,103)      -80.8622                                         !
 ! D258  D(96,98,100,110)       93.6383                                         !
 ! D259  D(99,98,100,103)      160.6107                                         !
 ! D260  D(99,98,100,110)      -24.8888                                         !
 ! D261  D(101,98,100,103)      36.4166                                         !
 ! D262  D(101,98,100,110)    -149.0829                                         !
 ! D263  D(96,98,101,102)      168.3597                                         !
 ! D264  D(96,98,101,104)      -71.0083                                         !
 ! D265  D(96,98,101,108)       48.6056                                         !
 ! D266  D(99,98,101,102)      -71.6125                                         !
 ! D267  D(99,98,101,104)       49.0195                                         !
 ! D268  D(99,98,101,108)      168.6334                                         !
 ! D269  D(100,98,101,102)      52.8175                                         !
 ! D270  D(100,98,101,104)     173.4496                                         !
 ! D271  D(100,98,101,108)     -66.9365                                         !
 ! D272  D(98,100,110,111)      -4.6415                                         !
 ! D273  D(98,100,110,112)    -160.7771                                         !
 ! D274  D(103,100,110,111)    169.7031                                         !
 ! D275  D(103,100,110,112)     13.5674                                         !
 ! D276  D(98,101,104,105)     -62.7868                                         !
 ! D277  D(98,101,104,106)      57.8897                                         !
 ! D278  D(98,101,104,107)     177.1921                                         !
 ! D279  D(102,101,104,105)     56.4161                                         !
 ! D280  D(102,101,104,106)    177.0926                                         !
 ! D281  D(102,101,104,107)    -63.605                                          !
 ! D282  D(108,101,104,105)    176.821                                          !
 ! D283  D(108,101,104,106)    -62.5025                                         !
 ! D284  D(108,101,104,107)     56.8                                            !
 ! D285  D(98,101,108,109)      60.7462                                         !
 ! D286  D(102,101,108,109)    -56.9759                                         !
 ! D287  D(104,101,108,109)   -176.8783                                         !
 ! D288  D(100,110,112,113)     32.1443                                         !
 ! D289  D(100,110,112,114)    -84.9564                                         !
 ! D290  D(100,110,112,115)    151.6241                                         !
 ! D291  D(111,110,112,113)   -124.0788                                         !
 ! D292  D(111,110,112,114)    118.8205                                         !
 ! D293  D(111,110,112,115)     -4.599                                          !
 ! D294  D(110,112,114,119)   -107.6445                                         !
 ! D295  D(110,112,114,120)     73.3493                                         !
 ! D296  D(113,112,114,119)    135.963                                          !
 ! D297  D(113,112,114,120)    -43.0433                                         !
 ! D298  D(115,112,114,119)     14.7516                                         !
 ! D299  D(115,112,114,120)   -164.2547                                         !
 ! D300  D(110,112,115,116)   -175.0721                                         !
 ! D301  D(110,112,115,117)    -54.75                                           !
 ! D302  D(110,112,115,118)     66.7636                                         !
 ! D303  D(113,112,115,116)    -57.909                                          !
 ! D304  D(113,112,115,117)     62.4132                                         !
 ! D305  D(113,112,115,118)   -176.0733                                         !
 ! D306  D(114,112,115,116)     61.7856                                         !
 ! D307  D(114,112,115,117)   -177.8922                                         !
 ! D308  D(114,112,115,118)    -56.3787                                         !
 ! D309  D(112,114,120,121)     -7.1606                                         !
 ! D310  D(112,114,120,122)   -178.5544                                         !
 ! D311  D(119,114,120,121)    173.8614                                         !
 ! D312  D(119,114,120,122)      2.4677                                         !
 ! D313  D(114,120,122,123)      5.8609                                         !
 ! D314  D(114,120,122,124)   -112.4113                                         !
 ! D315  D(114,120,122,125)    126.2132                                         !
 ! D316  D(121,120,122,123)   -165.4663                                         !
 ! D317  D(121,120,122,124)     76.2615                                         !
 ! D318  D(121,120,122,125)    -45.114                                          !
 ! D319  D(120,122,124,128)    -28.0249                                         !
 ! D320  D(120,122,124,139)    154.0753                                         !
 ! D321  D(123,122,124,128)   -144.6162                                         !
 ! D322  D(123,122,124,139)     37.484                                          !
 ! D323  D(125,122,124,128)     94.2486                                         !
 ! D324  D(125,122,124,139)    -83.6513                                         !
 ! D325  D(120,122,125,126)     69.8706                                         !
 ! D326  D(120,122,125,127)   -174.9012                                         !
 ! D327  D(120,122,125,129)    -52.2678                                         !
 ! D328  D(123,122,125,126)   -172.0321                                         !
 ! D329  D(123,122,125,127)    -56.8039                                         !
 ! D330  D(123,122,125,129)     65.8296                                         !
 ! D331  D(124,122,125,126)    -51.5494                                         !
 ! D332  D(124,122,125,127)     63.6788                                         !
 ! D333  D(124,122,125,129)   -173.6878                                         !
 ! D334  D(122,124,139,140)      0.2326                                         !
 ! D335  D(122,124,139,141)    174.9334                                         !
 ! D336  D(128,124,139,140)   -177.6644                                         !
 ! D337  D(128,124,139,141)     -2.9635                                         !
 ! D338  D(122,125,129,130)     62.5018                                         !
 ! D339  D(122,125,129,131)    179.4741                                         !
 ! D340  D(122,125,129,135)    -56.2656                                         !
 ! D341  D(126,125,129,130)    -59.1016                                         !
 ! D342  D(126,125,129,131)     57.8707                                         !
 ! D343  D(126,125,129,135)   -177.869                                          !
 ! D344  D(127,125,129,130)   -175.5446                                         !
 ! D345  D(127,125,129,131)    -58.5723                                         !
 ! D346  D(127,125,129,135)     65.688                                          !
 ! D347  D(125,129,131,132)     63.9997                                         !
 ! D348  D(125,129,131,133)    -56.1814                                         !
 ! D349  D(125,129,131,134)   -176.5507                                         !
 ! D350  D(130,129,131,132)   -179.3196                                         !
 ! D351  D(130,129,131,133)     60.4993                                         !
 ! D352  D(130,129,131,134)    -59.8701                                         !
 ! D353  D(135,129,131,132)    -60.9139                                         !
 ! D354  D(135,129,131,133)    178.905                                          !
 ! D355  D(135,129,131,134)     58.5356                                         !
 ! D356  D(125,129,135,136)    -58.1031                                         !
 ! D357  D(125,129,135,137)   -176.9974                                         !
 ! D358  D(125,129,135,138)     62.7979                                         !
 ! D359  D(130,129,135,136)   -176.4214                                         !
 ! D360  D(130,129,135,137)     64.6843                                         !
 ! D361  D(130,129,135,138)    -55.5204                                         !
 ! D362  D(131,129,135,136)     65.3525                                         !
 ! D363  D(131,129,135,137)    -53.5418                                         !
 ! D364  D(131,129,135,138)   -173.7465                                         !
 ! D365  D(124,139,141,142)    -43.0633                                         !
 ! D366  D(124,139,141,143)   -160.2308                                         !
 ! D367  D(124,139,141,144)     77.2215                                         !
 ! D368  D(140,139,141,142)    131.8796                                         !
 ! D369  D(140,139,141,143)     14.7122                                         !
 ! D370  D(140,139,141,144)   -107.8356                                         !
 ! D371  D(139,141,143,148)     -8.3135                                         !
 ! D372  D(139,141,143,149)    172.8288                                         !
 ! D373  D(142,141,143,148)   -125.7021                                         !
 ! D374  D(142,141,143,149)     55.4403                                         !
 ! D375  D(144,141,143,148)    114.9637                                         !
 ! D376  D(144,141,143,149)    -63.8939                                         !
 ! D377  D(139,141,144,145)   -178.4082                                         !
 ! D378  D(139,141,144,146)    -58.1747                                         !
 ! D379  D(139,141,144,147)     60.8631                                         !
 ! D380  D(142,141,144,145)    -58.1121                                         !
 ! D381  D(142,141,144,146)     62.1213                                         !
 ! D382  D(142,141,144,147)   -178.8409                                         !
 ! D383  D(143,141,144,145)     61.0302                                         !
 ! D384  D(143,141,144,146)   -178.7363                                         !
 ! D385  D(143,141,144,147)    -59.6985                                         !
 ! D386  D(141,143,149,150)    178.3643                                         !
 ! D387  D(148,143,149,150)     -0.502                                          !
 --------------------------------------------------------------------------------
 Symmetry turned off by external request.
 Stoichiometry    C44H80N11O15(1+)
 Framework group  C1[X(C44H80N11O15)]
 Deg. of freedom   444
 Full point group                 C1      NOp   1
                          Input orientation:                          
 ---------------------------------------------------------------------
 Center     Atomic      Atomic             Coordinates (Angstroms)
 Number     Number       Type             X           Y           Z
 ---------------------------------------------------------------------
      1          7           0        0.714493    3.225692   -4.422107
      2          1           0        1.375857    2.976189   -5.162199
      3          1           0        1.168708    3.886549   -3.784546
      4          1           0       -0.151567    3.632354   -4.868800
      5          6           0        0.158366    2.017391   -3.691844
      6          1           0        0.858532    1.187278   -3.781511
      7          6           0       -1.171155    1.749612   -4.432219
      8          6           0       -0.104974    2.379898   -2.224090
      9          1           0       -0.620615    1.525420   -1.776083
     10          1           0       -0.819156    3.215520   -2.202870
     11          8           0       -1.669833    2.681536   -5.082904
     12          6           0        1.147785    2.716840   -1.392679
     13          1           0        1.713164    3.539976   -1.862588
     14          6           0        0.718545    3.229051   -0.010773
     15          1           0        0.178869    2.447685    0.539998
     16          1           0        0.056009    4.099010   -0.089004
     17          1           0        1.599095    3.521940    0.564150
     18          6           0        2.103419    1.524393   -1.261089
[...]
 Alpha virt. eigenvalues --    1.75572   1.75989   1.76282   1.76365   1.76654
 Alpha virt. eigenvalues --    1.76776   1.77384   1.77548   1.77764   1.78051
 Alpha virt. eigenvalues --    1.78623   1.79320   1.79687   1.80101   1.80293
 Alpha virt. eigenvalues --    1.80589   1.80815   1.80913   1.81040   1.81603
 Alpha virt. eigenvalues --    1.81860   1.82103   1.82254   1.82467   1.82607
 Alpha virt. eigenvalues --    1.82949   1.83141   1.83714   1.84180   1.84675
 Alpha virt. eigenvalues --    1.85005   1.85232   1.85554   1.85856   1.86008
 Alpha virt. eigenvalues --    1.86108   1.86325   1.86680   1.87526   1.87918
 Alpha virt. eigenvalues --    1.88057   1.88313   1.88720   1.89412   1.89590
 Alpha virt. eigenvalues --    1.90116   1.90469   1.90585   1.90952   1.91074
 Alpha virt. eigenvalues --    1.91456   1.91566   1.91769   1.92432   1.93331
 Alpha virt. eigenvalues --    1.93607   1.93928   1.94256   1.94530   1.94663
 Alpha virt. eigenvalues --    1.94881   1.95165   1.95184   1.95487   1.95930
 Alpha virt. eigenvalues --    1.96102   1.96315   1.96524   1.96864   1.97271
 Alpha virt. eigenvalues --    1.97483   1.97668   1.98045   1.98079   1.98328
 Alpha virt. eigenvalues --    1.98974   1.99514   2.00150   2.00357   2.00625
 Alpha virt. eigenvalues --    2.00751   2.00957   2.01487   2.02010   2.02431
 Alpha virt. eigenvalues --    2.02630   2.02966   2.03178   2.03856   2.03910
 Alpha virt. eigenvalues --    2.04422   2.05188   2.05439   2.05609   2.05678
 Alpha virt. eigenvalues --    2.05902   2.06464   2.07151   2.07410   2.07864
 Alpha virt. eigenvalues --    2.08602   2.08935   2.09305   2.09942   2.10177
 Alpha virt. eigenvalues --    2.10399   2.10705   2.10965   2.11942   2.12247
 Alpha virt. eigenvalues --    2.12289   2.12860   2.13749   2.14031   2.15043
 Alpha virt. eigenvalues --    2.15145   2.15822   2.16231   2.16615   2.16862
 Alpha virt. eigenvalues --    2.17043   2.17395   2.17558   2.18058   2.18083
 Alpha virt. eigenvalues --    2.18236   2.18907   2.19361   2.19454   2.19832
 Alpha virt. eigenvalues --    2.20205   2.20568   2.20815   2.21288   2.21586
 Alpha virt. eigenvalues --    2.21927   2.22049   2.22348   2.22793   2.23969
 Alpha virt. eigenvalues --    2.24352   2.24451   2.25005   2.25684   2.26141
 Alpha virt. eigenvalues --    2.26562   2.26697   2.27328   2.28043   2.28362
 Alpha virt. eigenvalues --    2.29510   2.29651   2.30323   2.30580   2.30959
 Alpha virt. eigenvalues --    2.31347   2.32047   2.32685   2.32768   2.33894
 Alpha virt. eigenvalues --    2.34133   2.34321   2.34820   2.35274   2.35620
 Alpha virt. eigenvalues --    2.35969   2.36441   2.37239   2.37424   2.37660
 Alpha virt. eigenvalues --    2.37796   2.38666   2.39155   2.39788   2.40273
 Alpha virt. eigenvalues --    2.40486   2.40970   2.41143   2.41328   2.41680
 Alpha virt. eigenvalues --    2.42513   2.43522   2.43701   2.43893   2.44471
 Alpha virt. eigenvalues --    2.44632   2.45403   2.45462   2.45613   2.45944
 Alpha virt. eigenvalues --    2.46567   2.46935   2.47145   2.47571   2.48178
 Alpha virt. eigenvalues --    2.49590   2.50056   2.50456   2.50685   2.51100
 Alpha virt. eigenvalues --    2.51760   2.52594   2.52635   2.53453   2.54209
 Alpha virt. eigenvalues --    2.54679   2.55442   2.55943   2.56369   2.56918
 Alpha virt. eigenvalues --    2.57542   2.57625   2.58275   2.58887   2.59716
 Alpha virt. eigenvalues --    2.60402   2.60819   2.61366   2.61855   2.62477
 Alpha virt. eigenvalues --    2.62693   2.63130   2.63960   2.64136   2.64426
 Alpha virt. eigenvalues --    2.65450   2.66165   2.66649   2.67201   2.67588
 Alpha virt. eigenvalues --    2.69182   2.69319   2.69873   2.70230   2.70956
 Alpha virt. eigenvalues --    2.71599   2.72981   2.73641   2.74811   2.76045
 Alpha virt. eigenvalues --    2.76577   2.77312   2.77453   2.78344   2.78985
 Alpha virt. eigenvalues --    2.79327   2.80498   2.82380   2.83871   2.84891
 Alpha virt. eigenvalues --    2.85039   2.85584   2.86434   2.87146   2.87672
 Alpha virt. eigenvalues --    2.88503   2.89071   2.89522   2.91081   2.91420
 Alpha virt. eigenvalues --    2.91488   2.93330   2.95379   2.95754   2.95831
 Alpha virt. eigenvalues --    2.96855   2.97045   2.98856   2.99361   3.01297
 Alpha virt. eigenvalues --    3.03157   3.05350   3.05444   3.06143   3.06372
 Alpha virt. eigenvalues --    3.09421   3.09944   3.12177   3.12794   3.13413
 Alpha virt. eigenvalues --    3.67390   3.75040   3.76007   3.78164   3.80207
 Alpha virt. eigenvalues --    3.89369   3.91614   3.92608   3.93270   3.94775
 Alpha virt. eigenvalues --    3.96385   3.99038   4.01382   4.02008   4.03282
 Alpha virt. eigenvalues --    4.04524   4.05300   4.05893   4.07044   4.07544
 Alpha virt. eigenvalues --    4.08752   4.11501   4.11864   4.13603   4.13722
 Alpha virt. eigenvalues --    4.15090   4.15597   4.16349   4.18200   4.18886
 Alpha virt. eigenvalues --    4.19617   4.20295   4.21393   4.21560   4.23328
 Alpha virt. eigenvalues --    4.23508   4.24467   4.25169   4.26380   4.26881
 Alpha virt. eigenvalues --    4.28503   4.28741   4.30212   4.30797   4.31413
 Alpha virt. eigenvalues --    4.31897   4.33777   4.35224   4.35752   4.37117
 Alpha virt. eigenvalues --    4.38574   4.42250   4.44166   4.44413   4.46247
 Alpha virt. eigenvalues --    4.47241   4.48381   4.49690   4.51192   4.54095
 Alpha virt. eigenvalues --    4.54565   4.54886   4.56181   4.57473   4.58546
 Alpha virt. eigenvalues --    4.59354   4.60000   4.62956   4.63863   4.65685
          Condensed to atoms (all electrons):
 Mulliken charges:
               1
     1  N   -0.751891
     2  H    0.411483
     3  H    0.410419
     4  H    0.422423
     5  C   -0.135846
     6  H    0.232818
     7  C    0.631722
     8  C   -0.287615
     9  H    0.199439
    10  H    0.160674
    11  O   -0.550619
    12  C   -0.102383
    13  H    0.131738
    14  C   -0.469693
    15  H    0.145478
    16  H    0.146233
    17  H    0.192531
    18  C   -0.468459
    19  H    0.148760
    20  H    0.133129
    21  H    0.195293
    22  N   -0.612729
    23  H    0.417769
    24  C   -0.092449
    25  H    0.205569
    26  C    0.639249
    27  C   -0.096023
    28  H    0.137943
    29  O   -0.560938
    30  C   -0.447358
    31  H    0.148325
    32  H    0.156443
    33  H    0.168474
    34  C   -0.494389
    35  H    0.168322
    36  H    0.172244
    37  H    0.162779
    38  N   -0.598823
    39  H    0.350837
    40  C   -0.041081
    41  H    0.172371
    42  C    0.629956
    43  C   -0.101380
    44  H    0.155327
    45  O   -0.527177
    46  C   -0.464143
    47  H    0.143748
    48  H    0.173981
    49  H    0.163055
    50  C   -0.448166
    51  H    0.149872
    52  H    0.137455
    53  H    0.164747
    54  N   -0.628918
    55  H    0.357057
    56  C   -0.048269
    57  H    0.195910
    58  C    0.605420
    59  C   -0.058452
    60  H    0.134479
    61  H    0.195372
    62  O   -0.557377
    63  O   -0.646855
    64  H    0.438745
    65  N   -0.618043
    66  H    0.355552
    67  C   -0.071461
    68  H    0.184674
    69  C    0.645942
    70  C    0.128203
    71  H    0.137824
    72  O   -0.572305
    73  C   -0.465883
    74  H    0.154801
    75  H    0.160256
    76  H    0.188219
    77  O   -0.611074
    78  H    0.404257
    79  N   -0.600187
    80  H    0.365868
    81  C   -0.057970
    82  H    0.192436
    83  C    0.613707
    84  C   -0.305285
    85  H    0.179114
    86  H    0.171986
    87  O   -0.538394
    88  C   -0.382618
    89  H    0.220744
    90  H    0.178403
    91  C    0.595612
    92  N   -0.815654
    93  H    0.390680
    94  H    0.410292
    95  O   -0.578982
    96  N   -0.590933
    97  H    0.354140
    98  C   -0.074402
    99  H    0.180352
   100  C    0.640715
   101  C    0.107263
   102  H    0.148436
   103  O   -0.592492
   104  C   -0.451746
   105  H    0.155094
   106  H    0.161741
   107  H    0.180518
   108  O   -0.644633
   109  H    0.420138
   110  N   -0.577811
   111  H    0.369525
   112  C   -0.074595
   113  H    0.174978
   114  C    0.626516
   115  C   -0.482877
   116  H    0.177861
   117  H    0.158569
   118  H    0.188731
   119  O   -0.518807
   120  N   -0.617325
   121  H    0.390826
   122  C   -0.085103
   123  H    0.189662
   124  C    0.643829
   125  C   -0.276059
   126  H    0.145246
   127  H    0.146508
   128  O   -0.557691
   129  C   -0.072210
   130  H    0.123072
   131  C   -0.445235
   132  H    0.149994
   133  H    0.142587
   134  H    0.146994
   135  C   -0.468932
   136  H    0.144171
   137  H    0.146886
   138  H    0.173598
   139  N   -0.608852
   140  H    0.359995
   141  C   -0.017138
   142  H    0.187927
   143  C    0.583507
   144  C   -0.455305
   145  H    0.170262
   146  H    0.168470
   147  H    0.170534
   148  O   -0.457781
   149  O   -0.563378
   150  H    0.427391
 Sum of Mulliken charges =   1.00000
 Mulliken charges with hydrogens summed into heavy atoms:
               1
     1  N    0.492434
     5  C    0.096972
     7  C    0.631722
     8  C    0.072498
    11  O   -0.550619
    12  C    0.029355
    14  C    0.014549
    18  C    0.008724
    22  N   -0.194960
    24  C    0.113119
    26  C    0.639249
    27  C    0.041920
    29  O   -0.560938
    30  C    0.025884
    34  C    0.008955
    38  N   -0.247986
    40  C    0.131290
    42  C    0.629956
    43  C    0.053947
    45  O   -0.527177
    46  C    0.016642
    50  C    0.003908
    54  N   -0.271861
    56  C    0.147641
    58  C    0.605420
    59  C    0.271399
    62  O   -0.557377
    63  O   -0.208110
    65  N   -0.262491
    67  C    0.113212
    69  C    0.645942
    70  C    0.266027
    72  O   -0.572305
    73  C    0.037393
    77  O   -0.206818
    79  N   -0.234319
    81  C    0.134466
    83  C    0.613707
    84  C    0.045814
    87  O   -0.538394
    88  C    0.016529
    91  C    0.595612
    92  N   -0.014683
    95  O   -0.578982
    96  N   -0.236794
    98  C    0.105950
   100  C    0.640715
   101  C    0.255698
   103  O   -0.592492
   104  C    0.045608
   108  O   -0.224495
   110  N   -0.208286
   112  C    0.100383
   114  C    0.626516
   115  C    0.042285
   119  O   -0.518807
   120  N   -0.226500
   122  C    0.104559
   124  C    0.643829
   125  C    0.015695
   128  O   -0.557691
   129  C    0.050862
   131  C   -0.005659
   135  C   -0.004277
   139  N   -0.248858
   141  C    0.170790
   143  C    0.583507
   144  C    0.053962
   148  O   -0.457781
   149  O   -0.135987
 Electronic spatial extent (au):  <R**2>=          74211.7799
 Charge=              1.0000 electrons
 Dipole moment (field-independent basis, Debye):
    X=              4.2402    Y=              7.0093    Z=            -10.1407  Tot=             13.0363
 Quadrupole moment (field-independent basis, Debye-Ang):
   XX=           -341.7377   YY=           -342.6837   ZZ=           -349.8880
   XY=             28.3956   XZ=             18.0007   YZ=            -58.5837
 Traceless Quadrupole moment (field-independent basis, Debye-Ang):
   XX=              3.0321   YY=              2.0861   ZZ=             -5.1182
   XY=             28.3956   XZ=             18.0007   YZ=            -58.5837
 Octapole moment (field-independent basis, Debye-Ang**2):
  XXX=           -557.6271  YYY=            566.7584  ZZZ=           -122.1895  XYY=            168.9361
  XXY=            161.8038  XXZ=             76.7059  XZZ=           -148.6785  YZZ=             79.3255
  YYZ=            -68.8101  XYZ=           -132.5363
 Hexadecapole moment (field-independent basis, Debye-Ang**3):
 XXXX=         -38985.2155 YYYY=         -28305.1846 ZZZZ=         -17996.9529 XXXY=          -8335.1705
 XXXZ=          -6063.9900 YYYX=          -6485.0303 YYYZ=           -552.7419 ZZZX=          -6749.1788
 ZZZY=           1213.6325 XXYY=         -11406.4844 XXZZ=          -9388.0487 YYZZ=          -8811.4623
 XXYZ=           -237.2898 YYXZ=          -3517.7166 ZZXY=          -2952.4566
 N-N= 1.283687235105D+04 E-N=-3.368511452029D+04  KE= 3.423970532476D+03
 Unable to Open any file for archive entry.
 1\1\GINC-AMR-134\SP\RB3LYP\6-31G(d)\C44H80N11O15(1+)\KENGMITH\18-Jul-2
 022\0\\# B3LYP/6-31G* empiricaldispersion=gd3 guess=read geom=check no
 symm integral(ultrafinegrid)\\Candidate Structure: Conf:535 Charge cal
 c in gas phase\\1,1\N,0,0.7144929987,3.2256920216,-4.4221065306\H,0,1.
 3758568614,2.9761886334,-5.1621988208\H,0,1.1687082832,3.8865491269,-3
 .7845460809\H,0,-0.1515667511,3.6323544591,-4.8687996148\C,0,0.1583657
 134,2.0173914713,-3.6918443263\H,0,0.8585318513,1.1872778526,-3.781511
 0126\C,0,-1.1711550116,1.7496119704,-4.4322194809\C,0,-0.1049742363,2.
 3798979644,-2.2240898699\H,0,-0.6206151955,1.5254199326,-1.7760828543\
 H,0,-0.8191557384,3.2155197239,-2.2028698606\O,0,-1.6698330351,2.68153
 55686,-5.0829037169\C,0,1.1477852029,2.7168400261,-1.3926793014\H,0,1.
 7131635507,3.5399758019,-1.8625876571\C,0,0.7185448868,3.2290511501,-0
 .0107733635\H,0,0.1788688195,2.447684506,0.5399982807\H,0,0.0560089253
 ,4.0990098715,-0.0890036168\H,0,1.5990954992,3.5219396427,0.564150456\
 C,0,2.1034185782,1.5243926531,-1.261089301\H,0,1.6298367797,0.71517866
 92,-0.693782477\H,0,2.4047072758,1.1059105631,-2.2281884304\H,0,3.0083
 796817,1.8415822857,-0.7420667738\N,0,-1.6675870636,0.5304941679,-4.25
 50003239\H,0,-1.1059691938,-0.114096557,-3.6748544529\C,0,-3.007316034
 9,0.1335130552,-4.6530583113\H,0,-3.4327490957,0.9654572041,-5.2244233
 137\C,0,-3.8492608841,-0.0523936425,-3.3685392554\C,0,-2.9684668158,-1
 .1347211251,-5.5500967398\H,0,-4.0009477803,-1.325801661,-5.875464675\
 O,0,-3.3897608963,0.2093212464,-2.2496808716\C,0,-2.1334084292,-0.8751
 377054,-6.8103197204\H,0,-1.0791785138,-0.724612935,-6.5533919972\H,0,
 -2.4826988727,0.0125293262,-7.350036295\H,0,-2.1931119299,-1.732305145
 6,-7.4884608341\C,0,-2.4711092442,-2.3689977847,-4.7829095068\H,0,-1.4
 428049201,-2.2326059507,-4.4282452986\H,0,-2.4828908468,-3.2492610366,
 -5.4331730822\H,0,-3.1055642375,-2.5899617665,-3.9184335182\N,0,-5.107
 938708,-0.5046424033,-3.5350870009\H,0,-5.4149915619,-0.8030323921,-4.
 4515494864\C,0,-5.9668270574,-0.8667402913,-2.3973799624\H,0,-5.723131
 5346,-0.1686891307,-1.5912338494\C,0,-5.5931119412,-2.3117795317,-1.99
 34412628\C,0,-7.4558240905,-0.7417794683,-2.7591019813\H,0,-7.65528040
 86,-1.4675318002,-3.5592879647\O,0,-6.1038319925,-3.2853395913,-2.5370
 733701\C,0,-8.3240887388,-1.123024488,-1.5509068242\H,0,-8.1223331038,
 -0.4613382761,-0.6986315941\H,0,-8.1485466771,-2.1571776614,-1.2417960
 993\H,0,-9.3848955661,-1.0248856015,-1.8025249167\C,0,-7.7912025376,0.
 6733583118,-3.2498792552\H,0,-7.5997124223,1.414213377,-2.4634380469\H
 ,0,-7.2046108811,0.9622227705,-4.1285020593\H,0,-8.8504020694,0.739029
 0792,-3.5189287926\N,0,-4.6299463328,-2.4119112809,-1.0383099386\H,0,-
 4.1891178288,-1.5808027022,-0.6622652877\C,0,-4.1604680145,-3.69528412
 25,-0.5569619657\H,0,-5.0185954714,-4.3508605272,-0.3739529859\C,0,-3.
 3488893493,-3.4878829966,0.7119345761\C,0,-3.2515488098,-4.4133016018,
 -1.6104441559\H,0,-2.4052992657,-3.7520410557,-1.8442054292\H,0,-3.859
 4043632,-4.5396943104,-2.5093931273\O,0,-2.8493441063,-2.3964791999,1.
 0074103482\O,0,-2.8282101392,-5.6884573223,-1.1716840845\H,0,-1.954622
 1681,-5.5857413877,-0.7392379487\N,0,-3.1214381633,-4.6177349305,1.440
 942614\H,0,-3.3024623863,-5.4763100216,0.9212500228\C,0,-1.9553106167,
 -4.647366423,2.3253483559\H,0,-2.0626392495,-3.837180747,3.05102795\C,
 0,-0.6921734914,-4.4415857565,1.4743368075\C,0,-1.9418138249,-5.984977
 1855,3.1008138884\H,0,-1.9374434709,-6.8028521345,2.3585295548\O,0,-0.
 5687382368,-4.9899953182,0.3692011247\C,0,-0.7241369223,-6.1243967415,
 4.0044128577\H,0,0.2023327482,-6.1761354263,3.4250061513\H,0,-0.664524
 2036,-5.2806875186,4.7009070055\H,0,-0.8208483346,-7.0412552085,4.5912
 588618\O,0,-3.0835795043,-6.0582260319,3.936308408\H,0,-3.8743279048,-
 5.9109265772,3.392286628\N,0,0.2423243473,-3.6326247314,2.0018291574\H
 ,0,0.0949206582,-3.1989563036,2.908387864\C,0,1.4973720998,-3.26209617
 98,1.3666363363\H,0,1.9124391346,-4.1332600789,0.8486492282\C,0,2.4290
 946467,-2.76381156,2.479061035\C,0,1.3154871998,-2.0722087233,0.378249
 0307\H,0,2.2678426081,-1.5446274449,0.2530462465\H,0,0.6369958176,-1.3
 647088581,0.8674741773\O,0,1.969392408,-2.333411376,3.5382201063\C,0,0
 .7826155454,-2.4838372532,-1.0142041528\H,0,0.2007287864,-3.4064812008
 ,-0.9251611406\H,0,1.6097713564,-2.6825146464,-1.6992315662\C,0,-0.106
 9788609,-1.4401386403,-1.6658380888\N,0,-1.2001351081,-1.0716656897,-0
 .9762545482\H,0,-1.5120176127,-1.5648689019,-0.1426679851\H,0,-1.90438
 00729,-0.4909586243,-1.434422633\O,0,0.1641375586,-0.9656712059,-2.788
 0026443\N,0,3.7427913271,-2.7074037575,2.1515866969\H,0,4.0388515644,-
 2.9734433344,1.2157987859\C,0,4.6423908079,-1.7212184516,2.7605125364\
 H,0,4.6132770553,-1.8273187562,3.8481976354\C,0,4.1077507587,-0.346959
 4224,2.3177260299\C,0,6.0710112329,-1.9660354031,2.2202645556\H,0,6.68
 44342668,-1.1005128272,2.5155933344\O,0,4.3833802074,0.1058561267,1.18
 94550802\C,0,6.6873999408,-3.2433671025,2.7708342309\H,0,6.8013021692,
 -3.1849957619,3.858246719\H,0,6.062637223,-4.10936422,2.5304059568\H,0
 ,7.6720992218,-3.3939260496,2.3206160997\O,0,6.02151983,-2.0816232849,
 0.8005299455\H,0,5.6689902288,-1.2264436926,0.4832707899\N,0,3.2536699
 165,0.2565365422,3.1619626743\H,0,2.9749974069,-0.2695842235,3.9822999
 43\C,0,2.3463676612,1.3377130983,2.7391684393\H,0,2.0811848645,1.13457
 06286,1.694924005\C,0,3.0617943458,2.7104467309,2.7871887945\C,0,1.099
 5811779,1.3302708863,3.6137090494\H,0,0.3860178322,2.0729615571,3.2483
 260143\H,0,0.6300356268,0.3411645262,3.5954126392\H,0,1.3516743332,1.6
 009101496,4.6427365925\O,0,2.8087174908,3.5503084043,3.6422356416\N,0,
 3.9615924326,2.8756745854,1.7837404856\H,0,4.157055667,2.0749819053,1.
 1901236492\C,0,4.7765286138,4.0597544469,1.6325335752\H,0,4.5892472485
 ,4.6827537713,2.5111195135\C,0,4.3512080353,4.823744672,0.366875066\C,
 0,6.2757393923,3.6959096951,1.5398841808\H,0,6.4510981681,3.1954644872
 ,0.5771477482\H,0,6.8579085097,4.6272040801,1.518804474\O,0,3.84991744
 27,4.2617304318,-0.6103537541\C,0,6.7817879781,2.7944811603,2.68206992
 44\H,0,6.2318283626,1.8447483833,2.6190387703\C,0,8.2726967899,2.48900
 80992,2.4803497599\H,0,8.8731487041,3.4051526678,2.5458846495\H,0,8.46
 15385187,2.034013031,1.5004594113\H,0,8.6386323067,1.7988451328,3.2491
 831266\C,0,6.5226216066,3.4060004611,4.0662882744\H,0,7.0023658044,4.3
 89966654,4.1523371805\H,0,6.9403552173,2.7680442423,4.8534802301\H,0,5
 .4541414443,3.5297875105,4.2723470287\N,0,4.6106616224,6.1517045161,0.
 3919813906\H,0,5.0552134895,6.5857115211,1.1929608674\C,0,4.3751267976
 ,7.006572113,-0.7576541976\H,0,4.7287719425,6.490457516,-1.6580081568\
 C,0,5.205208048,8.268585277,-0.5709850778\C,0,2.8834478386,7.345891359
 4,-0.9370677274\H,0,2.7347516757,7.9664117599,-1.8252057929\H,0,2.3270
 64579,6.4112562679,-1.0443854004\H,0,2.5040060145,7.8815654087,-0.0612
 337803\O,0,5.8094499741,8.5525431781,0.44022523\O,0,5.1645825019,9.047
 7473837,-1.6678711604\H,0,5.6914224815,9.8467103987,-1.4739812561\\Ver
 sion=ES64L-G16RevC.01\HF=-3455.7585614\RMSD=5.098e-10\Dipole=0.7997367
 ,2.7161257,-3.5931351\Quadrupole=2.2542944,1.5509563,-3.8052507,21.111
 4111,13.3830681,-43.555524\PG=C01 [X(C44H80N11O15)]\\@
 The archive entry for this job was punched.


 AND THIS OUR LIFE, EXEMPT FROM PUBLIC HAUNT,
 FINDS TONGUES IN TREES, BOOKS IN THE RUNNING BROOKS,
 SERMONS IN STONES, AND GOOD IN EVERYTHING.
 I WOULD NOT CHANGE IT. -- W. SHAKESPEARE
 AS YOU LIKE IT, ACT II, SCENE 1.
 Job cpu time:       0 days  0 hours 12 minutes 49.3 seconds.
 Elapsed time:       0 days  0 hours  3 minutes 13.5 seconds.
 File lengths (MBytes):  RWF=    872 Int=      0 D2E=      0 Chk=    144 Scr=     16
 Normal termination of Gaussian 16 at Mon Jul 18 20:43:51 2022.
