 Entering Gaussian System, Link 0=/opt/software/Gaussian/g16-AVX2-C.01/g16/g16
 Input=charge-conf-448.com
 Output=charge-conf-448.log
 Initial command:
 /opt/software/Gaussian/g16-AVX2-C.01/g16/l1.exe "/mnt/gs18/scratch/users/kengmith/Gau-62969.inp" -scrdir="/mnt/gs18/scratch/users/kengmith/"
 Entering Link 1 = /opt/software/Gaussian/g16-AVX2-C.01/g16/l1.exe PID=     62988.
  
 Copyright (c) 1988-2019, Gaussian, Inc.  All Rights Reserved.
  
 This is part of the Gaussian(R) 16 program.  It is based on
 the Gaussian(R) 09 system (copyright 2009, Gaussian, Inc.),
 the Gaussian(R) 03 system (copyright 2003, Gaussian, Inc.),
 the Gaussian(R) 98 system (copyright 1998, Gaussian, Inc.),
 the Gaussian(R) 94 system (copyright 1995, Gaussian, Inc.),
 the Gaussian 92(TM) system (copyright 1992, Gaussian, Inc.),
 the Gaussian 90(TM) system (copyright 1990, Gaussian, Inc.),
 the Gaussian 88(TM) system (copyright 1988, Gaussian, Inc.),
 the Gaussian 86(TM) system (copyright 1986, Carnegie Mellon
 University), and the Gaussian 82(TM) system (copyright 1983,
 Carnegie Mellon University). Gaussian is a federally registered
 trademark of Gaussian, Inc.
  
 This software contains proprietary and confidential information,
 including trade secrets, belonging to Gaussian, Inc.
  
 This software is provided under written license and may be
 used, copied, transmitted, or stored only in accord with that
 written license.
  
 The following legend is applicable only to US Government
 contracts under FAR:
  
                    RESTRICTED RIGHTS LEGEND
  
 Use, reproduction and disclosure by the US Government is
 subject to restrictions as set forth in subparagraphs (a)
 and (c) of the Commercial Computer Software - Restricted
 Rights clause in FAR 52.227-19.
  
 Gaussian, Inc.
 340 Quinnipiac St., Bldg. 40, Wallingford CT 06492
  
  
 ---------------------------------------------------------------
 Warning -- This program may not be used in any manner that
 competes with the business of Gaussian, Inc. or will provide
 assistance to any competitor of Gaussian, Inc.  The licensee
 of this program is prohibited from giving any competitor of
 Gaussian, Inc. access to this program.  By using this program,
 the user acknowledges that Gaussian, Inc. is engaged in the
 business of creating and licensing software in the field of
 computational chemistry and represents and warrants to the
 licensee that it is not a competitor of Gaussian, Inc. and that
 it will not use this program in any manner prohibited above.
 ---------------------------------------------------------------
  

 Cite this work as:
 Gaussian 16, Revision C.01,
 M. J. Frisch, G. W. Trucks, H. B. Schlegel, G. E. Scuseria, 
 M. A. Robb, J. R. Cheeseman, G. Scalmani, V. Barone, 
 G. A. Petersson, H. Nakatsuji, X. Li, M. Caricato, A. V. Marenich, 
 J. Bloino, B. G. Janesko, R. Gomperts, B. Mennucci, H. P. Hratchian, 
 J. V. Ortiz, A. F. Izmaylov, J. L. Sonnenberg, D. Williams-Young, 
 F. Ding, F. Lipparini, F. Egidi, J. Goings, B. Peng, A. Petrone, 
 T. Henderson, D. Ranasinghe, V. G. Zakrzewski, J. Gao, N. Rega, 
 G. Zheng, W. Liang, M. Hada, M. Ehara, K. Toyota, R. Fukuda, 
 J. Hasegawa, M. Ishida, T. Nakajima, Y. Honda, O. Kitao, H. Nakai, 
 T. Vreven, K. Throssell, J. A. Montgomery, Jr., J. E. Peralta, 
 F. Ogliaro, M. J. Bearpark, J. J. Heyd, E. N. Brothers, K. N. Kudin, 
 V. N. Staroverov, T. A. Keith, R. Kobayashi, J. Normand, 
 K. Raghavachari, A. P. Rendell, J. C. Burant, S. S. Iyengar, 
 J. Tomasi, M. Cossi, J. M. Millam, M. Klene, C. Adamo, R. Cammi, 
 J. W. Ochterski, R. L. Martin, K. Morokuma, O. Farkas, 
 J. B. Foresman, and D. J. Fox, Gaussian, Inc., Wallingford CT, 2019.
 
 ******************************************
 Gaussian 16:  ES64L-G16RevC.01  3-Jul-2019
                 7-Jun-2022 
 ******************************************
 %mem=8gb
 %nproc=4
 Will use up to    4 processors via shared memory.
 %chk=conf-448.chk
 -------------------------------------------------------------------
 # B3LYP/6-31G* guess=read geom=check nosymm integral(ultrafinegrid)
 -------------------------------------------------------------------
 1/29=2,38=1,172=1/1;
 2/12=2,15=1,40=1/2;
 3/5=1,6=6,7=1,11=2,14=-4,25=1,30=1,74=-5,75=-5,116=-2/1,2,3;
 4/5=1/1;
 5/5=2,38=6/2;
 6/7=2,8=2,9=2,10=2,28=1/1;
 99/5=1,9=1/99;
 ------------------------------------------------------
 Candidate Structure: Conf:448 Charge calc in gas phase
 ------------------------------------------------------
 Structure from the checkpoint file:  "conf-448.chk"
 Charge =  1 Multiplicity = 1
 Redundant internal coordinates found in file.  (old form).
 N,0,-3.8754730821,-2.1511958155,4.1942512868
 H,0,-3.0651985616,-2.7267639995,3.97403481
 H,0,-4.182693208,-2.361998735,5.1403444728
 C,0,-3.5654917851,-0.7502215173,4.0166057157
 H,0,-4.482030511,-0.1699464732,4.1581641604
 C,0,-3.0337806696,-0.5565579669,2.5868528509
 C,0,-2.4778868948,-0.1773216047,5.0300565672
 H,0,-2.990303107,0.1823875336,5.9284536936
 H,0,-1.7954467005,-0.9804357955,5.3193483926
 O,0,-1.9611545614,-1.0589356918,2.2508794215
 C,0,-1.7205649557,0.9479127042,4.3966305648
 N,0,-0.428499163,0.8941120816,4.2110842469
 H,0,0.0647343715,0.0596537231,4.5049218715
 H,0,0.1312776856,1.5833642095,3.646320526
 O,0,-2.4454167924,1.9309808624,3.9496267467
 N,0,-3.7379730528,0.2762627784,1.7830493772
 H,0,-4.6553914629,0.5966902122,2.0647869149
 C,0,-3.2345358524,0.7004017978,0.4879762248
 H,0,-3.0769718571,-0.1796086212,-0.146438644
 C,0,-1.8923522044,1.4367931602,0.6549885011
 C,0,-4.2471624519,1.6630679286,-0.1883148918
 H,0,-4.2640260819,2.5974261238,0.3846963804
 H,0,-3.8531162526,1.9062387952,-1.1817786767
 O,0,-1.6747972445,2.257058959,1.5744342864
 C,0,-5.6454689285,1.0903382155,-0.2931264822
 C,0,-5.9339987376,0.0575076887,-1.196705511
 H,0,-5.1524282483,-0.3218133639,-1.8517892973
 C,0,-6.673283174,1.5727283516,0.5282725024
 H,0,-6.4735002171,2.3950905589,1.2132087203
 C,0,-7.2166281455,-0.4824009204,-1.2722650338
 H,0,-7.4256413155,-1.2786084797,-1.9810787506
 C,0,-7.9600334875,1.0323821118,0.4547062506
 H,0,-8.7471037989,1.4237479281,1.093091648
 C,0,-8.2330293397,0.0022071429,-0.444260853
 H,0,-9.2328485356,-0.4174226745,-0.5065436913
 N,0,-0.979092708,1.2266747611,-0.2924365126
 H,0,-1.1145718892,0.5719483285,-1.0612939332
 C,0,0.3231539972,1.8695971273,-0.2884727428
 H,0,0.1868177676,2.9289683956,-0.0523408947
 C,0,0.8900073681,1.6894246983,-1.7117733417
 C,0,1.2994034506,1.2109571647,0.757871881
 H,0,2.11119399,0.6950912262,0.2347470135
 H,0,0.7402546008,0.4601956489,1.3194827876
 O,0,0.4344916629,0.8192661426,-2.4521530943
 C,0,1.8793547438,2.2123546883,1.7534731671
 N,0,2.9711867891,2.8840390685,1.3525554404
 H,0,3.3625906283,3.5556957515,2.0014745661
 H,0,3.4909206699,2.6930658061,0.4859428075
 O,0,1.3561199469,2.42171495,2.8611822661
 N,0,1.9215848305,2.5081910136,-2.0062832802
 H,0,2.3019620237,3.0807500681,-1.2571893263
 C,0,2.9499291401,2.1811026097,-2.995496478
 H,0,2.7275710295,1.1851951304,-3.3884730178
 C,0,4.3157407984,2.1603411332,-2.2460579011
 C,0,2.9430952722,3.2117358795,-4.1582283391
 H,0,1.8973444599,3.5033131565,-4.3052941232
 H,0,3.4698127458,4.1229928407,-3.8422713848
 O,0,5.2732533529,1.6360284954,-2.8863394958
 C,0,3.4685917155,2.7344670159,-5.5254488008
 H,0,2.9817636859,1.7867262335,-5.789851649
 H,0,3.1366367811,3.4576015367,-6.2849879396
 C,0,4.9781108894,2.5118669065,-5.6876118783
 H,0,5.3281237195,1.7941152114,-4.9489952643
 H,0,5.1804821097,2.1218646043,-6.6927912017
 N,0,5.750770738,3.7600002037,-5.5317716675
 H,0,5.4699398472,4.5352688977,-6.1195020901
 N,0,7.1899429384,3.1686519735,-3.7842391844
 H,0,8.0855787335,3.31036523,-3.3384850728
 H,0,6.4934854889,2.5133726559,-3.3144739007
 N,0,7.5753646576,5.0839582557,-5.0503227922
 H,0,8.3347283607,5.3457803961,-4.4389932222
 H,0,7.6124042308,5.448638123,-5.9913123493
 C,0,6.8394562621,3.9729330519,-4.7762110621
 O,0,4.3688173545,2.7006009582,-1.1172011377
 H,0,-2.1284473702,2.2487485538,3.0171016572
 Recover connectivity data from disk.
                           ----------------------------
                           !    Current Parameters    !
                           ! (Angstroms and Degrees)  !
 --------------------------                            --------------------------
 ! Name  Definition              Value                                          !
 --------------------------------------------------------------------------------
 ! R1    R(1,2)                  1.018                                          !
 ! R2    R(1,3)                  1.0168                                         !
 ! R3    R(1,4)                  1.4458                                         !
 ! R4    R(4,5)                  1.094                                          !
 ! R5    R(4,6)                  1.5377                                         !
 ! R6    R(4,7)                  1.5932                                         !
 ! R7    R(6,10)                 1.2312                                         !
 ! R8    R(6,16)                 1.3548                                         !
 ! R9    R(7,8)                  1.095                                          !
 ! R10   R(7,9)                  1.0929                                         !
 ! R11   R(7,11)                 1.497                                          !
 ! R12   R(11,12)                1.3064                                         !
 ! R13   R(11,15)                1.3006                                         !
 ! R14   R(12,13)                1.0129                                         !
 ! R15   R(12,14)                1.0523                                         !
 ! R16   R(15,75)                1.0349                                         !
 ! R17   R(16,17)                1.0118                                         !
 ! R18   R(16,18)                1.4528                                         !
 ! R19   R(18,19)                1.0962                                         !
 ! R20   R(18,20)                1.54                                           !
 ! R21   R(18,21)                1.5523                                         !
 ! R22   R(20,24)                1.2512                                         !
 ! R23   R(20,36)                1.3326                                         !
 ! R24   R(21,22)                1.0962                                         !
 ! R25   R(21,23)                1.0961                                         !
 ! R26   R(21,25)                1.5147                                         !
 ! R27   R(25,26)                1.4023                                         !
 ! R28   R(25,28)                1.4014                                         !
 ! R29   R(26,27)                1.0881                                         !
 ! R30   R(26,30)                1.3937                                         !
 ! R31   R(28,29)                1.0887                                         !
 ! R32   R(28,32)                1.3975                                         !
 ! R33   R(30,31)                1.0863                                         !
 ! R34   R(30,34)                1.3977                                         !
 ! R35   R(32,33)                1.0864                                         !
 ! R36   R(32,34)                1.3942                                         !
 ! R37   R(34,35)                1.0861                                         !
 ! R38   R(36,37)                1.0189                                         !
 ! R39   R(36,38)                1.4523                                         !
 ! R40   R(38,39)                1.0939                                         !
 ! R41   R(38,40)                1.5426                                         !
 ! R42   R(38,41)                1.5753                                         !
 ! R43   R(40,44)                1.23                                           !
 ! R44   R(40,50)                1.3495                                         !
 ! R45   R(41,42)                1.0949                                         !
 ! R46   R(41,43)                1.0916                                         !
 ! R47   R(41,45)                1.5266                                         !
 ! R48   R(45,46)                1.3431                                         !
 ! R49   R(45,49)                1.2428                                         !
 ! R50   R(46,47)                1.0126                                         !
 ! R51   R(46,48)                1.0284                                         !
 ! R52   R(50,51)                1.0167                                         !
 ! R53   R(50,52)                1.4639                                         !
 ! R54   R(52,53)                1.0935                                         !
 ! R55   R(52,54)                1.5581                                         !
 ! R56   R(52,55)                1.5538                                         !
 ! R57   R(54,58)                1.2656                                         !
 ! R58   R(54,74)                1.2526                                         !
 ! R59   R(55,56)                1.0956                                         !
 ! R60   R(55,57)                1.0989                                         !
 ! R61   R(55,59)                1.5405                                         !
 ! R62   R(59,60)                1.0978                                         !
 ! R63   R(59,61)                1.1                                            !
 ! R64   R(59,62)                1.5344                                         !
 ! R65   R(62,63)                1.0878                                         !
 ! R66   R(62,64)                1.097                                          !
 ! R67   R(62,65)                1.4762                                         !
 ! R68   R(65,66)                1.0126                                         !
 ! R69   R(65,73)                1.3422                                         !
 ! R70   R(67,68)                1.0104                                         !
 ! R71   R(67,69)                1.0654                                         !
 ! R72   R(67,73)                1.3243                                         !
 ! R73   R(70,71)                1.0094                                         !
 ! R74   R(70,72)                1.0099                                         !
 ! R75   R(70,73)                1.3605                                         !
 ! A1    A(2,1,3)              108.9383                                         !
 ! A2    A(2,1,4)              110.5257                                         !
 ! A3    A(3,1,4)              112.333                                          !
 ! A4    A(1,4,5)              108.5693                                         !
 ! A5    A(1,4,6)              108.0848                                         !
 ! A6    A(1,4,7)              114.6233                                         !
 ! A7    A(5,4,6)              110.0728                                         !
 ! A8    A(5,4,7)              107.3908                                         !
 ! A9    A(6,4,7)              108.067                                          !
 ! A10   A(4,6,10)             120.2389                                         !
 ! A11   A(4,6,16)             116.7013                                         !
 ! A12   A(10,6,16)            122.8033                                         !
 ! A13   A(4,7,8)              108.6974                                         !
 ! A14   A(4,7,9)              109.294                                          !
 ! A15   A(4,7,11)             110.2732                                         !
 ! A16   A(8,7,9)              108.447                                          !
 ! A17   A(8,7,11)             109.6927                                         !
 ! A18   A(9,7,11)             110.394                                          !
 ! A19   A(7,11,12)            121.9705                                         !
 ! A20   A(7,11,15)            115.5708                                         !
 ! A21   A(12,11,15)           122.2419                                         !
 ! A22   A(11,12,13)           118.3157                                         !
 ! A23   A(11,12,14)           125.1239                                         !
 ! A24   A(13,12,14)           115.8654                                         !
 ! A25   A(11,15,75)           111.7815                                         !
 ! A26   A(6,16,17)            120.05                                           !
 ! A27   A(6,16,18)            121.8859                                         !
 ! A28   A(17,16,18)           118.0333                                         !
 ! A29   A(16,18,19)           109.3503                                         !
 ! A30   A(16,18,20)           110.1785                                         !
 ! A31   A(16,18,21)           110.0831                                         !
 ! A32   A(19,18,20)           108.7447                                         !
 ! A33   A(19,18,21)           109.8448                                         !
 ! A34   A(20,18,21)           108.618                                          !
 ! A35   A(18,20,24)           123.0049                                         !
 ! A36   A(18,20,36)           116.4099                                         !
 ! A37   A(24,20,36)           120.4411                                         !
 ! A38   A(18,21,22)           108.1137                                         !
 ! A39   A(18,21,23)           107.335                                          !
 ! A40   A(18,21,25)           113.446                                          !
 ! A41   A(22,21,23)           106.8711                                         !
 ! A42   A(22,21,25)           110.1368                                         !
 ! A43   A(23,21,25)           110.6743                                         !
 ! A44   A(21,25,26)           120.8657                                         !
 ! A45   A(21,25,28)           120.4224                                         !
 ! A46   A(26,25,28)           118.7058                                         !
 ! A47   A(25,26,27)           119.7962                                         !
 ! A48   A(25,26,30)           120.6387                                         !
 ! A49   A(27,26,30)           119.5631                                         !
 ! A50   A(25,28,29)           119.6156                                         !
 ! A51   A(25,28,32)           120.7539                                         !
 ! A52   A(29,28,32)           119.6116                                         !
 ! A53   A(26,30,31)           119.7619                                         !
 ! A54   A(26,30,34)           120.1869                                         !
 ! A55   A(31,30,34)           120.0505                                         !
 ! A56   A(28,32,33)           119.7915                                         !
 ! A57   A(28,32,34)           119.9934                                         !
 ! A58   A(33,32,34)           120.2128                                         !
 ! A59   A(30,34,32)           119.7203                                         !
 ! A60   A(30,34,35)           120.0996                                         !
 ! A61   A(32,34,35)           120.1786                                         !
 ! A62   A(20,36,37)           123.1397                                         !
 ! A63   A(20,36,38)           122.8723                                         !
 ! A64   A(37,36,38)           113.9381                                         !
 ! A65   A(36,38,39)           108.5148                                         !
 ! A66   A(36,38,40)           105.9784                                         !
 ! A67   A(36,38,41)           111.8637                                         !
 ! A68   A(39,38,40)           110.9825                                         !
 ! A69   A(39,38,41)           109.8011                                         !
 ! A70   A(40,38,41)           109.6506                                         !
 ! A71   A(38,40,44)           120.1285                                         !
 ! A72   A(38,40,50)           114.2917                                         !
 ! A73   A(44,40,50)           125.5169                                         !
 ! A74   A(38,41,42)           109.8229                                         !
 ! A75   A(38,41,43)           108.1692                                         !
 ! A76   A(38,41,45)           113.2257                                         !
 ! A77   A(42,41,43)           107.5502                                         !
 ! A78   A(42,41,45)           109.8162                                         !
 ! A79   A(43,41,45)           108.0718                                         !
 ! A80   A(41,45,46)           116.2447                                         !
 ! A81   A(41,45,49)           122.1301                                         !
 ! A82   A(46,45,49)           121.6033                                         !
 ! A83   A(45,46,47)           117.0406                                         !
 ! A84   A(45,46,48)           124.715                                          !
 ! A85   A(47,46,48)           117.8942                                         !
 ! A86   A(40,50,51)           117.8308                                         !
 ! A87   A(40,50,52)           123.2892                                         !
 ! A88   A(51,50,52)           111.1552                                         !
 ! A89   A(50,52,53)           107.6678                                         !
 ! A90   A(50,52,54)           107.0816                                         !
 ! A91   A(50,52,55)           110.7552                                         !
 ! A92   A(53,52,54)           109.8152                                         !
 ! A93   A(53,52,55)           109.5295                                         !
 ! A94   A(54,52,55)           111.879                                          !
 ! A95   A(52,54,58)           115.1758                                         !
 ! A96   A(52,54,74)           117.7029                                         !
 ! A97   A(58,54,74)           127.0539                                         !
 ! A98   A(52,55,56)           106.3313                                         !
 ! A99   A(52,55,57)           109.437                                          !
 ! A100  A(52,55,59)           117.203                                          !
 ! A101  A(56,55,57)           105.9866                                         !
 ! A102  A(56,55,59)           106.7936                                         !
 ! A103  A(57,55,59)           110.4                                            !
 ! A104  A(55,59,60)           109.2657                                         !
 ! A105  A(55,59,61)           107.8305                                         !
 ! A106  A(55,59,62)           118.3146                                         !
 ! A107  A(60,59,61)           105.5102                                         !
 ! A108  A(60,59,62)           106.5928                                         !
 ! A109  A(61,59,62)           108.6188                                         !
 ! A110  A(59,62,63)           109.9079                                         !
 ! A111  A(59,62,64)           109.262                                          !
 ! A112  A(59,62,65)           112.4019                                         !
 ! A113  A(63,62,64)           109.1619                                         !
 ! A114  A(63,62,65)           108.5298                                         !
 ! A115  A(64,62,65)           107.5035                                         !
 ! A116  A(62,65,66)           116.162                                          !
 ! A117  A(62,65,73)           128.1794                                         !
 ! A118  A(66,65,73)           115.4825                                         !
 ! A119  A(68,67,69)           118.1109                                         !
 ! A120  A(68,67,73)           118.6771                                         !
 ! A121  A(69,67,73)           122.06                                           !
 ! A122  A(71,70,72)           116.2997                                         !
 ! A123  A(71,70,73)           119.7819                                         !
 ! A124  A(72,70,73)           120.163                                          !
 ! A125  A(65,73,67)           122.6836                                         !
 ! A126  A(65,73,70)           117.0567                                         !
 ! A127  A(67,73,70)           120.246                                          !
 ! D1    D(2,1,4,5)            174.1128                                         !
 ! D2    D(2,1,4,6)             54.7339                                         !
 ! D3    D(2,1,4,7)            -65.8335                                         !
 ! D4    D(3,1,4,5)            -63.986                                          !
 ! D5    D(3,1,4,6)            176.635                                          !
 ! D6    D(3,1,4,7)             56.0677                                         !
 ! D7    D(1,4,6,10)           -66.2006                                         !
 ! D8    D(1,4,6,16)           119.4561                                         !
 ! D9    D(5,4,6,10)           175.3754                                         !
 ! D10   D(5,4,6,16)             1.0321                                         !
 ! D11   D(7,4,6,10)            58.3798                                         !
 ! D12   D(7,4,6,16)          -115.9635                                         !
 ! D13   D(1,4,7,8)            -88.9092                                         !
 ! D14   D(1,4,7,9)             29.2819                                         !
 ! D15   D(1,4,7,11)           150.8091                                         !
 ! D16   D(5,4,7,8)             31.797                                          !
 ! D17   D(5,4,7,9)            149.988                                          !
 ! D18   D(5,4,7,11)           -88.4847                                         !
 ! D19   D(6,4,7,8)            150.5137                                         !
 ! D20   D(6,4,7,9)            -91.2952                                         !
 ! D21   D(6,4,7,11)            30.232                                          !
 ! D22   D(4,6,16,17)          -11.5675                                         !
 ! D23   D(4,6,16,18)          170.4905                                         !
 ! D24   D(10,6,16,17)         174.2472                                         !
 ! D25   D(10,6,16,18)          -3.6949                                         !
 ! D26   D(4,7,11,12)         -119.0616                                         !
 ! D27   D(4,7,11,15)           55.7001                                         !
 ! D28   D(8,7,11,12)          121.2572                                         !
 ! D29   D(8,7,11,15)          -63.9811                                         !
 ! D30   D(9,7,11,12)            1.8101                                         !
 ! D31   D(9,7,11,15)          176.5718                                         !
 ! D32   D(7,11,12,13)           0.2604                                         !
 ! D33   D(7,11,12,14)         170.2872                                         !
 ! D34   D(15,11,12,13)       -174.1518                                         !
 ! D35   D(15,11,12,14)         -4.1251                                         !
 ! D36   D(7,11,15,75)        -136.4253                                         !
 ! D37   D(12,11,15,75)         38.3208                                         !
 ! D38   D(6,16,18,19)          60.0599                                         !
 ! D39   D(6,16,18,20)         -59.4071                                         !
 ! D40   D(6,16,18,21)        -179.1771                                         !
 ! D41   D(17,16,18,19)       -117.9219                                         !
 ! D42   D(17,16,18,20)        122.611                                          !
 ! D43   D(17,16,18,21)          2.8411                                         !
 ! D44   D(16,18,20,24)        -41.3044                                         !
 ! D45   D(16,18,20,36)        143.0486                                         !
 ! D46   D(19,18,20,24)       -161.1388                                         !
 ! D47   D(19,18,20,36)         23.2142                                         !
 ! D48   D(21,18,20,24)         79.3492                                         !
 ! D49   D(21,18,20,36)        -96.2978                                         !
 ! D50   D(16,18,21,22)         68.3573                                         !
 ! D51   D(16,18,21,23)       -176.6827                                         !
 ! D52   D(16,18,21,25)        -54.1005                                         !
 ! D53   D(19,18,21,22)       -171.1772                                         !
 ! D54   D(19,18,21,23)        -56.2172                                         !
 ! D55   D(19,18,21,25)         66.365                                          !
 ! D56   D(20,18,21,22)        -52.3552                                         !
 ! D57   D(20,18,21,23)         62.6048                                         !
 ! D58   D(20,18,21,25)       -174.813                                          !
 ! D59   D(18,20,36,37)         -3.9769                                         !
 ! D60   D(18,20,36,38)        178.7481                                         !
 ! D61   D(24,20,36,37)       -179.7429                                         !
 ! D62   D(24,20,36,38)          2.9821                                         !
 ! D63   D(18,21,25,26)        -71.8019                                         !
 ! D64   D(18,21,25,28)        107.2878                                         !
 ! D65   D(22,21,25,26)        166.8677                                         !
 ! D66   D(22,21,25,28)        -14.0426                                         !
 ! D67   D(23,21,25,26)         48.914                                          !
 ! D68   D(23,21,25,28)       -131.9963                                         !
 ! D69   D(21,25,26,27)         -1.6702                                         !
 ! D70   D(21,25,26,30)        178.8395                                         !
 ! D71   D(28,25,26,27)        179.2248                                         !
 ! D72   D(28,25,26,30)         -0.2656                                         !
 ! D73   D(21,25,28,29)          2.7805                                         !
 ! D74   D(21,25,28,32)       -178.8107                                         !
 ! D75   D(26,25,28,29)       -178.1103                                         !
 ! D76   D(26,25,28,32)          0.2985                                         !
 ! D77   D(25,26,30,31)        179.6814                                         !
 ! D78   D(25,26,30,34)         -0.0084                                         !
 ! D79   D(27,26,30,31)          0.1899                                         !
 ! D80   D(27,26,30,34)       -179.4999                                         !
 ! D81   D(25,28,32,33)       -179.5001                                         !
 ! D82   D(25,28,32,34)         -0.057                                          !
 ! D83   D(29,28,32,33)         -1.0913                                         !
 ! D84   D(29,28,32,34)        178.3518                                         !
 ! D85   D(26,30,34,32)          0.2542                                         !
 ! D86   D(26,30,34,35)        179.8057                                         !
 ! D87   D(31,30,34,32)       -179.4346                                         !
 ! D88   D(31,30,34,35)          0.1169                                         !
 ! D89   D(28,32,34,30)         -0.2214                                         !
 ! D90   D(28,32,34,35)       -179.7726                                         !
 ! D91   D(33,32,34,30)        179.2193                                         !
 ! D92   D(33,32,34,35)         -0.3319                                         !
 ! D93   D(20,36,38,39)        -44.9193                                         !
 ! D94   D(20,36,38,40)       -164.174                                          !
 ! D95   D(20,36,38,41)         76.3667                                         !
 ! D96   D(37,36,38,39)        137.5771                                         !
 ! D97   D(37,36,38,40)         18.3223                                         !
 ! D98   D(37,36,38,41)       -101.137                                          !
 ! D99   D(36,38,40,44)        -19.233                                          !
 ! D100  D(36,38,40,50)        163.4958                                         !
 ! D101  D(39,38,40,44)       -136.8516                                         !
 ! D102  D(39,38,40,50)         45.8771                                         !
 ! D103  D(41,38,40,44)        101.6687                                         !
 ! D104  D(41,38,40,50)        -75.6025                                         !
 ! D105  D(36,38,41,42)        112.1131                                         !
 ! D106  D(36,38,41,43)         -4.9942                                         !
 ! D107  D(36,38,41,45)       -124.7375                                         !
 ! D108  D(39,38,41,42)       -127.3472                                         !
 ! D109  D(39,38,41,43)        115.5455                                         !
 ! D110  D(39,38,41,45)         -4.1978                                         !
 ! D111  D(40,38,41,42)         -5.1602                                         !
 ! D112  D(40,38,41,43)       -122.2675                                         !
 ! D113  D(40,38,41,45)        117.9892                                         !
 ! D114  D(38,40,50,51)          6.9112                                         !
 ! D115  D(38,40,50,52)        153.5116                                         !
 ! D116  D(44,40,50,51)       -170.1891                                         !
 ! D117  D(44,40,50,52)        -23.5887                                         !
 ! D118  D(38,41,45,46)        -84.5718                                         !
 ! D119  D(38,41,45,49)         93.7522                                         !
 ! D120  D(42,41,45,46)         38.5813                                         !
 ! D121  D(42,41,45,49)       -143.0947                                         !
 ! D122  D(43,41,45,46)        155.6291                                         !
 ! D123  D(43,41,45,49)        -26.0469                                         !
 ! D124  D(41,45,46,47)        179.6312                                         !
 ! D125  D(41,45,46,48)         -7.3281                                         !
 ! D126  D(49,45,46,47)          1.2976                                         !
 ! D127  D(49,45,46,48)        174.3384                                         !
 ! D128  D(40,50,52,53)         -1.6541                                         !
 ! D129  D(40,50,52,54)       -119.6926                                         !
 ! D130  D(40,50,52,55)        118.075                                          !
 ! D131  D(51,50,52,53)        146.8808                                         !
 ! D132  D(51,50,52,54)         28.8423                                         !
 ! D133  D(51,50,52,55)        -93.3901                                         !
 ! D134  D(50,52,54,58)        166.4347                                         !
 ! D135  D(50,52,54,74)        -16.3387                                         !
 ! D136  D(53,52,54,58)         49.8059                                         !
 ! D137  D(53,52,54,74)       -132.9676                                         !
 ! D138  D(55,52,54,58)        -72.038                                          !
 ! D139  D(55,52,54,74)        105.1885                                         !
 ! D140  D(50,52,55,56)        -34.5691                                         !
 ! D141  D(50,52,55,57)         79.4936                                         !
 ! D142  D(50,52,55,59)       -153.852                                          !
 ! D143  D(53,52,55,56)         84.0376                                         !
 ! D144  D(53,52,55,57)       -161.8998                                         !
 ! D145  D(53,52,55,59)        -35.2454                                         !
 ! D146  D(54,52,55,56)       -153.9546                                         !
 ! D147  D(54,52,55,57)        -39.892                                          !
 ! D148  D(54,52,55,59)         86.7624                                         !
 ! D149  D(52,55,59,60)         49.8551                                         !
 ! D150  D(52,55,59,61)        164.0593                                         !
 ! D151  D(52,55,59,62)        -72.2812                                         !
 ! D152  D(56,55,59,60)        -69.1814                                         !
 ! D153  D(56,55,59,61)         45.0228                                         !
 ! D154  D(56,55,59,62)        168.6823                                         !
 ! D155  D(57,55,59,60)        176.0365                                         !
 ! D156  D(57,55,59,61)        -69.7593                                         !
 ! D157  D(57,55,59,62)         53.9002                                         !
 ! D158  D(55,59,62,63)         57.0716                                         !
 ! D159  D(55,59,62,64)        176.8308                                         !
 ! D160  D(55,59,62,65)        -63.9171                                         !
 ! D161  D(60,59,62,63)        -66.4065                                         !
 ! D162  D(60,59,62,64)         53.3527                                         !
 ! D163  D(60,59,62,65)        172.6048                                         !
 ! D164  D(61,59,62,63)       -179.6617                                         !
 ! D165  D(61,59,62,64)        -59.9025                                         !
 ! D166  D(61,59,62,65)         59.3496                                         !
 ! D167  D(59,62,65,66)        -53.7569                                         !
 ! D168  D(59,62,65,73)        131.3235                                         !
 ! D169  D(63,62,65,66)       -175.5332                                         !
 ! D170  D(63,62,65,73)          9.5472                                         !
 ! D171  D(64,62,65,66)         66.5171                                         !
 ! D172  D(64,62,65,73)       -108.4024                                         !
 ! D173  D(62,65,73,67)        -17.8718                                         !
 ! D174  D(62,65,73,70)        163.4724                                         !
 ! D175  D(66,65,73,67)        167.1795                                         !
 ! D176  D(66,65,73,70)        -11.4763                                         !
 ! D177  D(68,67,73,65)        171.5728                                         !
 ! D178  D(68,67,73,70)         -9.8129                                         !
 ! D179  D(69,67,73,65)        -20.9321                                         !
 ! D180  D(69,67,73,70)        157.6823                                         !
 ! D181  D(71,70,73,65)        172.5153                                         !
 ! D182  D(71,70,73,67)         -6.1751                                         !
 ! D183  D(72,70,73,65)        -30.1131                                         !
 ! D184  D(72,70,73,67)        151.1965                                         !
 --------------------------------------------------------------------------------
 Symmetry turned off by external request.
 Stoichiometry    C23H36N9O7(1+)
 Framework group  C1[X(C23H36N9O7)]
 Deg. of freedom   219
 Full point group                 C1      NOp   1
                          Input orientation:                          
 ---------------------------------------------------------------------
 Center     Atomic      Atomic             Coordinates (Angstroms)
 Number     Number       Type             X           Y           Z
 ---------------------------------------------------------------------
      1          7           0       -3.875473   -2.151196    4.194251
      2          1           0       -3.065199   -2.726764    3.974035
      3          1           0       -4.182693   -2.361999    5.140344
      4          6           0       -3.565492   -0.750222    4.016606
      5          1           0       -4.482031   -0.169946    4.158164
      6          6           0       -3.033781   -0.556558    2.586853
      7          6           0       -2.477887   -0.177322    5.030057
      8          1           0       -2.990303    0.182388    5.928454
      9          1           0       -1.795447   -0.980436    5.319348
     10          8           0       -1.961155   -1.058936    2.250879
     11          6           0       -1.720565    0.947913    4.396631
     12          7           0       -0.428499    0.894112    4.211084
     13          1           0        0.064734    0.059654    4.504922
     14          1           0        0.131278    1.583364    3.646321
     15          8           0       -2.445417    1.930981    3.949627
     16          7           0       -3.737973    0.276263    1.783049
     17          1           0       -4.655391    0.596690    2.064787
     18          6           0       -3.234536    0.700402    0.487976
     19          1           0       -3.076972   -0.179609   -0.146439
     20          6           0       -1.892352    1.436793    0.654989
     21          6           0       -4.247162    1.663068   -0.188315
     22          1           0       -4.264026    2.597426    0.384696
     23          1           0       -3.853116    1.906239   -1.181779
     24          8           0       -1.674797    2.257059    1.574434
     25          6           0       -5.645469    1.090338   -0.293126
     26          6           0       -5.933999    0.057508   -1.196706
     27          1           0       -5.152428   -0.321813   -1.851789
     28          6           0       -6.673283    1.572728    0.528273
     29          1           0       -6.473500    2.395091    1.213209
     30          6           0       -7.216628   -0.482401   -1.272265
     31          1           0       -7.425641   -1.278608   -1.981079
     32          6           0       -7.960033    1.032382    0.454706
     33          1           0       -8.747104    1.423748    1.093092
     34          6           0       -8.233029    0.002207   -0.444261
     35          1           0       -9.232849   -0.417423   -0.506544
     36          7           0       -0.979093    1.226675   -0.292437
     37          1           0       -1.114572    0.571948   -1.061294
     38          6           0        0.323154    1.869597   -0.288473
     39          1           0        0.186818    2.928968   -0.052341
     40          6           0        0.890007    1.689425   -1.711773
     41          6           0        1.299403    1.210957    0.757872
     42          1           0        2.111194    0.695091    0.234747
     43          1           0        0.740255    0.460196    1.319483
     44          8           0        0.434492    0.819266   -2.452153
     45          6           0        1.879355    2.212355    1.753473
     46          7           0        2.971187    2.884039    1.352555
     47          1           0        3.362591    3.555696    2.001475
     48          1           0        3.490921    2.693066    0.485943
     49          8           0        1.356120    2.421715    2.861182
     50          7           0        1.921585    2.508191   -2.006283
     51          1           0        2.301962    3.080750   -1.257189
     52          6           0        2.949929    2.181103   -2.995496
     53          1           0        2.727571    1.185195   -3.388473
     54          6           0        4.315741    2.160341   -2.246058
     55          6           0        2.943095    3.211736   -4.158228
     56          1           0        1.897344    3.503313   -4.305294
     57          1           0        3.469813    4.122993   -3.842271
     58          8           0        5.273253    1.636028   -2.886339
     59          6           0        3.468592    2.734467   -5.525449
     60          1           0        2.981764    1.786726   -5.789852
     61          1           0        3.136637    3.457602   -6.284988
     62          6           0        4.978111    2.511867   -5.687612
     63          1           0        5.328124    1.794115   -4.948995
     64          1           0        5.180482    2.121865   -6.692791
     65          7           0        5.750771    3.760000   -5.531772
     66          1           0        5.469940    4.535269   -6.119502
     67          7           0        7.189943    3.168652   -3.784239
     68          1           0        8.085579    3.310365   -3.338485
     69          1           0        6.493485    2.513373   -3.314474
     70          7           0        7.575365    5.083958   -5.050323
     71          1           0        8.334728    5.345780   -4.438993
     72          1           0        7.612404    5.448638   -5.991312
     73          6           0        6.839456    3.972933   -4.776211
     74          8           0        4.368817    2.700601   -1.117201
     75          1           0       -2.128447    2.248749    3.017102
 ---------------------------------------------------------------------
 Rotational constants (GHZ):           0.1593547           0.0363438           0.0312935
 Standard basis: 6-31G(d) (6D, 7F)
   657 basis functions,  1236 primitive gaussians,   657 cartesian basis functions
   146 alpha electrons      146 beta electrons
       nuclear repulsion energy      4560.3413852668 Hartrees.
 NAtoms=   75 NActive=   75 NUniq=   75 SFac= 1.00D+00 NAtFMM=   60 NAOKFM=T Big=T
 Integral buffers will be    131072 words long.
 Raffenetti 2 integral format.
 Two-electron integral symmetry is turned off.
 One-electron integrals computed using PRISM.
 NBasis=   657 RedAO= T EigKep=  4.69D-04  NBF=   657
 NBsUse=   657 1.00D-06 EigRej= -1.00D+00 NBFU=   657
 Initial guess from the checkpoint file:  "conf-448.chk"
 B after Tr=     0.000000    0.000000    0.000000
         Rot=    1.000000    0.000000    0.000000    0.000000 Ang=   0.00 deg.
 Requested convergence on RMS density matrix=1.00D-08 within 128 cycles.
 Requested convergence on MAX density matrix=1.00D-06.
 Requested convergence on             energy=1.00D-06.
 No special actions if energy rises.
 SCF Done:  E(RB3LYP) =  -1917.37644754     A.U. after    1 cycles
            NFock=  1  Conv=0.61D-08     -V/T= 2.0094

 **********************************************************************

            Population analysis using the SCF Density.

 **********************************************************************

 Alpha  occ. eigenvalues --  -19.29340 -19.23485 -19.21483 -19.20786 -19.20111
 Alpha  occ. eigenvalues --  -19.16771 -19.16581 -14.48861 -14.48621 -14.48326
 Alpha  occ. eigenvalues --  -14.46439 -14.46014 -14.45856 -14.43170 -14.43143
 Alpha  occ. eigenvalues --  -14.41310 -10.44225 -10.43963 -10.39925 -10.38424
 Alpha  occ. eigenvalues --  -10.38077 -10.37124 -10.34728 -10.33815 -10.33540
 Alpha  occ. eigenvalues --  -10.33315 -10.31474 -10.30944 -10.29240 -10.28949
 Alpha  occ. eigenvalues --  -10.28847 -10.27653 -10.27350 -10.26548 -10.26497
 Alpha  occ. eigenvalues --  -10.26344 -10.26207 -10.26140 -10.25953  -1.20387
 Alpha  occ. eigenvalues --   -1.14847  -1.13285  -1.12524  -1.12025  -1.11859
 Alpha  occ. eigenvalues --   -1.10003  -1.05142  -1.02910  -1.02505  -1.02041
 Alpha  occ. eigenvalues --   -1.01923  -1.00060  -0.99699  -0.98893  -0.98289
 Alpha  occ. eigenvalues --   -0.93118  -0.88966  -0.88013  -0.87629  -0.86440
 Alpha  occ. eigenvalues --   -0.82385  -0.82129  -0.81676  -0.78276  -0.77581
 Alpha  occ. eigenvalues --   -0.76017  -0.74300  -0.73736  -0.72427  -0.70397
 Alpha  occ. eigenvalues --   -0.70052  -0.68912  -0.68378  -0.67982  -0.67718
 Alpha  occ. eigenvalues --   -0.67454  -0.66064  -0.65904  -0.65691  -0.65345
 Alpha  occ. eigenvalues --   -0.63588  -0.62573  -0.62020  -0.61587  -0.60912
 Alpha  occ. eigenvalues --   -0.60332  -0.59798  -0.59422  -0.58232  -0.57537
 Alpha  occ. eigenvalues --   -0.56578  -0.56226  -0.55813  -0.55238  -0.54872
 Alpha  occ. eigenvalues --   -0.54510  -0.54190  -0.53901  -0.53575  -0.53241
 Alpha  occ. eigenvalues --   -0.52628  -0.52522  -0.51918  -0.51618  -0.51211
 Alpha  occ. eigenvalues --   -0.50661  -0.50083  -0.49739  -0.49374  -0.49221
 Alpha  occ. eigenvalues --   -0.48493  -0.48127  -0.47841  -0.47740  -0.47439
 Alpha  occ. eigenvalues --   -0.47113  -0.46904  -0.46624  -0.46162  -0.45872
 Alpha  occ. eigenvalues --   -0.45080  -0.44742  -0.44504  -0.43517  -0.42935
 Alpha  occ. eigenvalues --   -0.42530  -0.42059  -0.41593  -0.41317  -0.41071
 Alpha  occ. eigenvalues --   -0.39178  -0.38177  -0.36614  -0.36491  -0.35676
 Alpha  occ. eigenvalues --   -0.35390  -0.35307  -0.34921  -0.34626  -0.33836
 Alpha  occ. eigenvalues --   -0.32986  -0.32513  -0.32337  -0.31844  -0.30958
 Alpha  occ. eigenvalues --   -0.30423
 Alpha virt. eigenvalues --   -0.13169  -0.09736  -0.08628  -0.08308  -0.07738
 Alpha virt. eigenvalues --   -0.07225  -0.06289  -0.05335  -0.05259  -0.02927
 Alpha virt. eigenvalues --   -0.02527  -0.01247  -0.00803  -0.00155   0.00144
 Alpha virt. eigenvalues --    0.00790   0.01590   0.02169   0.02970   0.03235
 Alpha virt. eigenvalues --    0.03546   0.03658   0.03816   0.04479   0.05031
 Alpha virt. eigenvalues --    0.05514   0.05560   0.06198   0.06282   0.06990
 Alpha virt. eigenvalues --    0.07277   0.07560   0.07868   0.08272   0.08712
 Alpha virt. eigenvalues --    0.08988   0.09192   0.09569   0.09588   0.09820
 Alpha virt. eigenvalues --    0.10700   0.11159   0.11445   0.11909   0.12213
 Alpha virt. eigenvalues --    0.12387   0.12606   0.12932   0.13310   0.13476
 Alpha virt. eigenvalues --    0.14009   0.14565   0.15701   0.16010   0.16226
 Alpha virt. eigenvalues --    0.16570   0.17012   0.17316   0.17582   0.18094
 Alpha virt. eigenvalues --    0.18425   0.19121   0.20608   0.21283   0.22865
 Alpha virt. eigenvalues --    0.23556   0.23670   0.24755   0.25452   0.25890
 Alpha virt. eigenvalues --    0.26607   0.27363   0.27393   0.27634   0.28813
 Alpha virt. eigenvalues --    0.29560   0.30725   0.31845   0.32354   0.32831
 Alpha virt. eigenvalues --    0.33324   0.34641   0.37573   0.38093   0.39985
 Alpha virt. eigenvalues --    0.40285   0.40468   0.41185   0.42841   0.43315
 Alpha virt. eigenvalues --    0.43872   0.44326   0.44437   0.45074   0.45345
 Alpha virt. eigenvalues --    0.45758   0.46047   0.46362   0.46960   0.47088
 Alpha virt. eigenvalues --    0.47451   0.47794   0.48305   0.48572   0.48716
 Alpha virt. eigenvalues --    0.49069   0.49328   0.49784   0.50086   0.50552
 Alpha virt. eigenvalues --    0.50921   0.51386   0.51580   0.51961   0.52345
 Alpha virt. eigenvalues --    0.52869   0.53168   0.53668   0.53801   0.54443
 Alpha virt. eigenvalues --    0.54719   0.54786   0.55254   0.55544   0.55850
 Alpha virt. eigenvalues --    0.56429   0.56551   0.57110   0.57175   0.57818
 Alpha virt. eigenvalues --    0.58130   0.58479   0.58903   0.59112   0.59708
 Alpha virt. eigenvalues --    0.59979   0.60726   0.61777   0.61923   0.62354
 Alpha virt. eigenvalues --    0.62560   0.62885   0.63549   0.64011   0.64527
 Alpha virt. eigenvalues --    0.65285   0.65581   0.66794   0.67418   0.67562
 Alpha virt. eigenvalues --    0.68599   0.69351   0.69625   0.70587   0.70812
 Alpha virt. eigenvalues --    0.71873   0.72100   0.72623   0.73147   0.73528
 Alpha virt. eigenvalues --    0.73735   0.74133   0.75039   0.75323   0.75406
 Alpha virt. eigenvalues --    0.75729   0.76077   0.76565   0.76680   0.77186
 Alpha virt. eigenvalues --    0.77552   0.77671   0.77902   0.78606   0.78848
 Alpha virt. eigenvalues --    0.79055   0.79404   0.79613   0.79902   0.80226
 Alpha virt. eigenvalues --    0.80851   0.80871   0.81288   0.81971   0.82626
 Alpha virt. eigenvalues --    0.82992   0.83264   0.83707   0.84129   0.84794
 Alpha virt. eigenvalues --    0.85257   0.85624   0.85888   0.86623   0.86754
 Alpha virt. eigenvalues --    0.87461   0.87860   0.87895   0.88183   0.88933
 Alpha virt. eigenvalues --    0.89243   0.89693   0.90601   0.90978   0.91596
 Alpha virt. eigenvalues --    0.91711   0.92866   0.93440   0.94255   0.94331
 Alpha virt. eigenvalues --    0.94810   0.94911   0.95872   0.96774   0.97562
 Alpha virt. eigenvalues --    0.97999   0.99063   1.00097   1.00701   1.02439
 Alpha virt. eigenvalues --    1.02793   1.03122   1.04704   1.05300   1.05452
 Alpha virt. eigenvalues --    1.07112   1.07637   1.08853   1.09308   1.10067
 Alpha virt. eigenvalues --    1.10871   1.11217   1.11530   1.12159   1.12894
 Alpha virt. eigenvalues --    1.13203   1.14804   1.16146   1.16736   1.17097
 Alpha virt. eigenvalues --    1.18780   1.19394   1.19677   1.20847   1.21462
 Alpha virt. eigenvalues --    1.21956   1.23185   1.24025   1.25110   1.25440
 Alpha virt. eigenvalues --    1.26279   1.26432   1.27511   1.28337   1.29088
 Alpha virt. eigenvalues --    1.30000   1.31324   1.31655   1.31965   1.33833
 Alpha virt. eigenvalues --    1.34726   1.34828   1.35682   1.35964   1.37097
 Alpha virt. eigenvalues --    1.37799   1.38547   1.39452   1.40759   1.41106
 Alpha virt. eigenvalues --    1.41495   1.41900   1.42470   1.42656   1.43229
 Alpha virt. eigenvalues --    1.43593   1.44130   1.44864   1.46061   1.46364
 Alpha virt. eigenvalues --    1.47220   1.48250   1.48914   1.50148   1.50977
 Alpha virt. eigenvalues --    1.51500   1.52748   1.53371   1.54019   1.55298
 Alpha virt. eigenvalues --    1.57076   1.57468   1.58113   1.58706   1.60765
 Alpha virt. eigenvalues --    1.61234   1.62312   1.62940   1.63902   1.64166
 Alpha virt. eigenvalues --    1.64534   1.65674   1.65982   1.66742   1.67192
 Alpha virt. eigenvalues --    1.67543   1.68139   1.68767   1.70222   1.70747
 Alpha virt. eigenvalues --    1.71577   1.72250   1.72752   1.73510   1.73773
 Alpha virt. eigenvalues --    1.74140   1.74579   1.74651   1.75808   1.76020
 Alpha virt. eigenvalues --    1.76379   1.76983   1.77518   1.78152   1.78975
 Alpha virt. eigenvalues --    1.78979   1.79774   1.80103   1.80584   1.81405
 Alpha virt. eigenvalues --    1.81771   1.82515   1.82599   1.83191   1.83604
 Alpha virt. eigenvalues --    1.83791   1.84828   1.85229   1.85520   1.86039
 Alpha virt. eigenvalues --    1.87188   1.87853   1.88603   1.89129   1.90233
 Alpha virt. eigenvalues --    1.90445   1.91212   1.91278   1.91756   1.92733
 Alpha virt. eigenvalues --    1.92754   1.93484   1.94345   1.94874   1.95538
 Alpha virt. eigenvalues --    1.96915   1.97301   1.97509   1.98266   1.98442
 Alpha virt. eigenvalues --    2.01475   2.01953   2.02543   2.04000   2.04061
 Alpha virt. eigenvalues --    2.04571   2.05570   2.05930   2.06126   2.06862
 Alpha virt. eigenvalues --    2.07225   2.08878   2.09130   2.10220   2.11121
 Alpha virt. eigenvalues --    2.11735   2.13273   2.14478   2.14831   2.15757
 Alpha virt. eigenvalues --    2.16557   2.17619   2.18168   2.19624   2.20238
 Alpha virt. eigenvalues --    2.20512   2.20927   2.22286   2.22606   2.22897
 Alpha virt. eigenvalues --    2.23245   2.24429   2.24649   2.26562   2.27206
 Alpha virt. eigenvalues --    2.27664   2.29134   2.29660   2.30339   2.31032
 Alpha virt. eigenvalues --    2.31497   2.32028   2.33131   2.33946   2.34304
 Alpha virt. eigenvalues --    2.35038   2.36888   2.37209   2.38903   2.40484
 Alpha virt. eigenvalues --    2.40740   2.41068   2.42082   2.43833   2.45099
 Alpha virt. eigenvalues --    2.45645   2.46954   2.47910   2.48521   2.48806
 Alpha virt. eigenvalues --    2.49187   2.50305   2.51204   2.51389   2.53532
 Alpha virt. eigenvalues --    2.53922   2.55117   2.56130   2.57700   2.57941
 Alpha virt. eigenvalues --    2.58029   2.58984   2.59208   2.60460   2.61277
 Alpha virt. eigenvalues --    2.61943   2.62329   2.63184   2.64544   2.65271
 Alpha virt. eigenvalues --    2.66281   2.67784   2.68228   2.68481   2.69465
 Alpha virt. eigenvalues --    2.70274   2.71657   2.75218   2.75489   2.76920
 Alpha virt. eigenvalues --    2.78451   2.81400   2.82772   2.85100   2.86285
 Alpha virt. eigenvalues --    2.86812   2.89327   2.91216   2.91641   2.92068
 Alpha virt. eigenvalues --    2.93279   2.94697   2.96125   2.97238   2.98322
 Alpha virt. eigenvalues --    2.99721   3.00642   3.04645   3.08594   3.11979
 Alpha virt. eigenvalues --    3.13414   3.33522   3.67651   3.69747   3.78129
 Alpha virt. eigenvalues --    3.80558   3.82401   3.87207   3.87610   3.92684
 Alpha virt. eigenvalues --    3.94203   4.01759   4.02041   4.04698   4.05503
 Alpha virt. eigenvalues --    4.06149   4.06584   4.06826   4.11613   4.14466
 Alpha virt. eigenvalues --    4.15699   4.15971   4.18597   4.22994   4.23481
 Alpha virt. eigenvalues --    4.26468   4.28134   4.30214   4.33397   4.33861
 Alpha virt. eigenvalues --    4.33961   4.35514   4.36916   4.41347   4.46887
 Alpha virt. eigenvalues --    4.51949   4.56721   4.59079   4.62661   4.63055
 Alpha virt. eigenvalues --    4.63931
          Condensed to atoms (all electrons):
 Mulliken charges:
               1
     1  N   -0.703120
     2  H    0.326532
     3  H    0.320823
     4  C   -0.034699
     5  H    0.164684
     6  C    0.614807
     7  C   -0.354123
     8  H    0.209539
     9  H    0.170779
    10  O   -0.544335
    11  C    0.597373
    12  N   -0.708515
    13  H    0.373549
    14  H    0.447671
    15  O   -0.579494
    16  N   -0.601996
    17  H    0.352503
    18  C   -0.021273
    19  H    0.182074
    20  C    0.674926
    21  C   -0.403719
    22  H    0.175283
    23  H    0.180439
    24  O   -0.613881
    25  C    0.167846
    26  C   -0.175477
    27  H    0.133825
    28  C   -0.209582
    29  H    0.133762
    30  C   -0.124893
    31  H    0.150675
    32  C   -0.124277
    33  H    0.148490
    34  C   -0.125533
    35  H    0.151329
    36  N   -0.599938
    37  H    0.371528
    38  C   -0.039518
    39  H    0.201250
    40  C    0.589225
    41  C   -0.381843
    42  H    0.195877
    43  H    0.193342
    44  O   -0.525598
    45  C    0.594471
    46  N   -0.763312
    47  H    0.349569
    48  H    0.419522
    49  O   -0.554966
    50  N   -0.590162
    51  H    0.337170
    52  C   -0.072107
    53  H    0.183099
    54  C    0.600235
    55  C   -0.264088
    56  H    0.165111
    57  H    0.138253
    58  O   -0.600167
    59  C   -0.285891
    60  H    0.170264
    61  H    0.138863
    62  C   -0.165977
    63  H    0.233417
    64  H    0.167755
    65  N   -0.599681
    66  H    0.346191
    67  N   -0.768927
    68  H    0.352679
    69  H    0.447959
    70  N   -0.763932
    71  H    0.367832
    72  H    0.366146
    73  C    0.782145
    74  O   -0.578060
    75  H    0.490269
 Sum of Mulliken charges =   1.00000
 Mulliken charges with hydrogens summed into heavy atoms:
               1
     1  N   -0.055765
     4  C    0.129984
     6  C    0.614807
     7  C    0.026195
    10  O   -0.544335
    11  C    0.597373
    12  N    0.112705
    15  O   -0.089224
    16  N   -0.249493
    18  C    0.160802
    20  C    0.674926
    21  C   -0.047997
    24  O   -0.613881
    25  C    0.167846
    26  C   -0.041651
    28  C   -0.075820
    30  C    0.025781
    32  C    0.024213
    34  C    0.025796
    36  N   -0.228410
    38  C    0.161732
    40  C    0.589225
    41  C    0.007376
    44  O   -0.525598
    45  C    0.594471
    46  N    0.005780
    49  O   -0.554966
    50  N   -0.252992
    52  C    0.110993
    54  C    0.600235
    55  C    0.039276
    58  O   -0.600167
    59  C    0.023235
    62  C    0.235196
    65  N   -0.253489
    67  N    0.031711
    70  N   -0.029953
    73  C    0.782145
    74  O   -0.578060
 Electronic spatial extent (au):  <R**2>=          34982.6266
 Charge=              1.0000 electrons
 Dipole moment (field-independent basis, Debye):
    X=              7.2293    Y=             12.5483    Z=             -3.6970  Tot=             14.9462
 Quadrupole moment (field-independent basis, Debye-Ang):
   XX=            -47.4856   YY=           -164.4161   ZZ=            -93.1028
   XY=             86.4156   XZ=           -109.3687   YZ=            -72.2566
 Traceless Quadrupole moment (field-independent basis, Debye-Ang):
   XX=             54.1826   YY=            -62.7479   ZZ=              8.5654
   XY=             86.4156   XZ=           -109.3687   YZ=            -72.2566
 Octapole moment (field-independent basis, Debye-Ang**2):
  XXX=            845.0763  YYY=           -734.7317  ZZZ=              0.3283  XYY=            494.2145
  XXY=            353.8020  XXZ=           -519.6840  XZZ=            463.0694  YZZ=             -8.6718
  YYZ=           -247.0962  XYZ=           -471.7356
 Hexadecapole moment (field-independent basis, Debye-Ang**3):
 XXXX=         -14134.5232 YYYY=          -4938.9471 ZZZZ=          -8606.7793 XXXY=           2387.2357
 XXXZ=           -198.4213 YYYX=           -836.6791 YYYZ=            717.0466 ZZZX=           1411.1030
 ZZZY=           -260.9648 XXYY=          -1913.6180 XXZZ=          -2362.9869 YYZZ=          -1307.6667
 XXYZ=          -2474.7487 YYXZ=           -584.5086 ZZXY=           1766.7777
 N-N= 4.560341385267D+03 E-N=-1.356542636390D+04  KE= 1.899593128169D+03
 Unable to Open any file for archive entry.
 1\1\GINC-NAL-002\SP\RB3LYP\6-31G(d)\C23H36N9O7(1+)\KENGMITH\07-Jun-202
 2\0\\# B3LYP/6-31G* guess=read geom=check nosymm integral(ultrafinegri
 d)\\Candidate Structure: Conf:448 Charge calc in gas phase\\1,1\N,0,-3
 .8754730821,-2.1511958155,4.1942512868\H,0,-3.0651985616,-2.7267639995
 ,3.97403481\H,0,-4.182693208,-2.361998735,5.1403444728\C,0,-3.56549178
 51,-0.7502215173,4.0166057157\H,0,-4.482030511,-0.1699464732,4.1581641
 604\C,0,-3.0337806696,-0.5565579669,2.5868528509\C,0,-2.4778868948,-0.
 1773216047,5.0300565672\H,0,-2.990303107,0.1823875336,5.9284536936\H,0
 ,-1.7954467005,-0.9804357955,5.3193483926\O,0,-1.9611545614,-1.0589356
 918,2.2508794215\C,0,-1.7205649557,0.9479127042,4.3966305648\N,0,-0.42
 8499163,0.8941120816,4.2110842469\H,0,0.0647343715,0.0596537231,4.5049
 218715\H,0,0.1312776856,1.5833642095,3.646320526\O,0,-2.4454167924,1.9
 309808624,3.9496267467\N,0,-3.7379730528,0.2762627784,1.7830493772\H,0
 ,-4.6553914629,0.5966902122,2.0647869149\C,0,-3.2345358524,0.700401797
 8,0.4879762248\H,0,-3.0769718571,-0.1796086212,-0.146438644\C,0,-1.892
 3522044,1.4367931602,0.6549885011\C,0,-4.2471624519,1.6630679286,-0.18
 83148918\H,0,-4.2640260819,2.5974261238,0.3846963804\H,0,-3.8531162526
 ,1.9062387952,-1.1817786767\O,0,-1.6747972445,2.257058959,1.5744342864
 \C,0,-5.6454689285,1.0903382155,-0.2931264822\C,0,-5.9339987376,0.0575
 076887,-1.196705511\H,0,-5.1524282483,-0.3218133639,-1.8517892973\C,0,
 -6.673283174,1.5727283516,0.5282725024\H,0,-6.4735002171,2.3950905589,
 1.2132087203\C,0,-7.2166281455,-0.4824009204,-1.2722650338\H,0,-7.4256
 413155,-1.2786084797,-1.9810787506\C,0,-7.9600334875,1.0323821118,0.45
 47062506\H,0,-8.7471037989,1.4237479281,1.093091648\C,0,-8.2330293397,
 0.0022071429,-0.444260853\H,0,-9.2328485356,-0.4174226745,-0.506543691
 3\N,0,-0.979092708,1.2266747611,-0.2924365126\H,0,-1.1145718892,0.5719
 483285,-1.0612939332\C,0,0.3231539972,1.8695971273,-0.2884727428\H,0,0
 .1868177676,2.9289683956,-0.0523408947\C,0,0.8900073681,1.6894246983,-
 1.7117733417\C,0,1.2994034506,1.2109571647,0.757871881\H,0,2.11119399,
 0.6950912262,0.2347470135\H,0,0.7402546008,0.4601956489,1.3194827876\O
 ,0,0.4344916629,0.8192661426,-2.4521530943\C,0,1.8793547438,2.21235468
 83,1.7534731671\N,0,2.9711867891,2.8840390685,1.3525554404\H,0,3.36259
 06283,3.5556957515,2.0014745661\H,0,3.4909206699,2.6930658061,0.485942
 8075\O,0,1.3561199469,2.42171495,2.8611822661\N,0,1.9215848305,2.50819
 10136,-2.0062832802\H,0,2.3019620237,3.0807500681,-1.2571893263\C,0,2.
 9499291401,2.1811026097,-2.995496478\H,0,2.7275710295,1.1851951304,-3.
 3884730178\C,0,4.3157407984,2.1603411332,-2.2460579011\C,0,2.943095272
 2,3.2117358795,-4.1582283391\H,0,1.8973444599,3.5033131565,-4.30529412
 32\H,0,3.4698127458,4.1229928407,-3.8422713848\O,0,5.2732533529,1.6360
 284954,-2.8863394958\C,0,3.4685917155,2.7344670159,-5.5254488008\H,0,2
 .9817636859,1.7867262335,-5.789851649\H,0,3.1366367811,3.4576015367,-6
 .2849879396\C,0,4.9781108894,2.5118669065,-5.6876118783\H,0,5.32812371
 95,1.7941152114,-4.9489952643\H,0,5.1804821097,2.1218646043,-6.6927912
 017\N,0,5.750770738,3.7600002037,-5.5317716675\H,0,5.4699398472,4.5352
 688977,-6.1195020901\N,0,7.1899429384,3.1686519735,-3.7842391844\H,0,8
 .0855787335,3.31036523,-3.3384850728\H,0,6.4934854889,2.5133726559,-3.
 3144739007\N,0,7.5753646576,5.0839582557,-5.0503227922\H,0,8.334728360
 7,5.3457803961,-4.4389932222\H,0,7.6124042308,5.448638123,-5.991312349
 3\C,0,6.8394562621,3.9729330519,-4.7762110621\O,0,4.3688173545,2.70060
 09582,-1.1172011377\H,0,-2.1284473702,2.2487485538,3.0171016572\\Versi
 on=ES64L-G16RevC.01\HF=-1917.3764475\RMSD=6.115e-09\Dipole=3.0615002,2
 .0434268,-0.9054341\Quadrupole=40.2834134,-46.6515532,6.3681398,64.247
 8541,-81.3129243,-53.7209761\PG=C01 [X(C23H36N9O7)]\\@
 The archive entry for this job was punched.


 KNOWLEDGE IS CHIMERA - FOR BEYOND IT LIES OTHER KNOWLEDGE,
 AND THE INCOMPLETENESS OF WHAT IS KNOWN RENDERS THE KNOWING FALSE.
     -- THE THOMAS COVENANT CHRONICLES
 Job cpu time:       0 days  0 hours  1 minutes 18.5 seconds.
 Elapsed time:       0 days  0 hours  0 minutes 20.8 seconds.
 File lengths (MBytes):  RWF=    344 Int=      0 D2E=      0 Chk=     48 Scr=     16
 Normal termination of Gaussian 16 at Tue Jun  7 03:34:24 2022.
