 Entering Gaussian System, Link 0=/opt/software/Gaussian/g16-AVX2-C.01/g16/g16
 Input=charge-conf-234.com
 Output=charge-conf-234.log
 Initial command:
 /opt/software/Gaussian/g16-AVX2-C.01/g16/l1.exe "/mnt/gs18/scratch/users/kengmith/Gau-68116.inp" -scrdir="/mnt/gs18/scratch/users/kengmith/"
 Entering Link 1 = /opt/software/Gaussian/g16-AVX2-C.01/g16/l1.exe PID=     68142.
  
 Copyright (c) 1988-2019, Gaussian, Inc.  All Rights Reserved.
  
 This is part of the Gaussian(R) 16 program.  It is based on
 the Gaussian(R) 09 system (copyright 2009, Gaussian, Inc.),
 the Gaussian(R) 03 system (copyright 2003, Gaussian, Inc.),
 the Gaussian(R) 98 system (copyright 1998, Gaussian, Inc.),
 the Gaussian(R) 94 system (copyright 1995, Gaussian, Inc.),
 the Gaussian 92(TM) system (copyright 1992, Gaussian, Inc.),
 the Gaussian 90(TM) system (copyright 1990, Gaussian, Inc.),
 the Gaussian 88(TM) system (copyright 1988, Gaussian, Inc.),
 the Gaussian 86(TM) system (copyright 1986, Carnegie Mellon
 University), and the Gaussian 82(TM) system (copyright 1983,
 Carnegie Mellon University). Gaussian is a federally registered
 trademark of Gaussian, Inc.
  
 This software contains proprietary and confidential information,
 including trade secrets, belonging to Gaussian, Inc.
  
 This software is provided under written license and may be
 used, copied, transmitted, or stored only in accord with that
 written license.
  
 The following legend is applicable only to US Government
 contracts under FAR:
  
                    RESTRICTED RIGHTS LEGEND
  
 Use, reproduction and disclosure by the US Government is
 subject to restrictions as set forth in subparagraphs (a)
 and (c) of the Commercial Computer Software - Restricted
 Rights clause in FAR 52.227-19.
  
 Gaussian, Inc.
 340 Quinnipiac St., Bldg. 40, Wallingford CT 06492
  
  
 ---------------------------------------------------------------
 Warning -- This program may not be used in any manner that
 competes with the business of Gaussian, Inc. or will provide
 assistance to any competitor of Gaussian, Inc.  The licensee
 of this program is prohibited from giving any competitor of
 Gaussian, Inc. access to this program.  By using this program,
 the user acknowledges that Gaussian, Inc. is engaged in the
 business of creating and licensing software in the field of
 computational chemistry and represents and warrants to the
 licensee that it is not a competitor of Gaussian, Inc. and that
 it will not use this program in any manner prohibited above.
 ---------------------------------------------------------------
  

 Cite this work as:
 Gaussian 16, Revision C.01,
 M. J. Frisch, G. W. Trucks, H. B. Schlegel, G. E. Scuseria, 
 M. A. Robb, J. R. Cheeseman, G. Scalmani, V. Barone, 
 G. A. Petersson, H. Nakatsuji, X. Li, M. Caricato, A. V. Marenich, 
 J. Bloino, B. G. Janesko, R. Gomperts, B. Mennucci, H. P. Hratchian, 
 J. V. Ortiz, A. F. Izmaylov, J. L. Sonnenberg, D. Williams-Young, 
 F. Ding, F. Lipparini, F. Egidi, J. Goings, B. Peng, A. Petrone, 
 T. Henderson, D. Ranasinghe, V. G. Zakrzewski, J. Gao, N. Rega, 
 G. Zheng, W. Liang, M. Hada, M. Ehara, K. Toyota, R. Fukuda, 
 J. Hasegawa, M. Ishida, T. Nakajima, Y. Honda, O. Kitao, H. Nakai, 
 T. Vreven, K. Throssell, J. A. Montgomery, Jr., J. E. Peralta, 
 F. Ogliaro, M. J. Bearpark, J. J. Heyd, E. N. Brothers, K. N. Kudin, 
 V. N. Staroverov, T. A. Keith, R. Kobayashi, J. Normand, 
 K. Raghavachari, A. P. Rendell, J. C. Burant, S. S. Iyengar, 
 J. Tomasi, M. Cossi, J. M. Millam, M. Klene, C. Adamo, R. Cammi, 
 J. W. Ochterski, R. L. Martin, K. Morokuma, O. Farkas, 
 J. B. Foresman, and D. J. Fox, Gaussian, Inc., Wallingford CT, 2019.
 
 ******************************************
 Gaussian 16:  ES64L-G16RevC.01  3-Jul-2019
                 7-Jun-2022 
 ******************************************
 %mem=8gb
 %nproc=4
 Will use up to    4 processors via shared memory.
 %chk=conf-234.chk
 -------------------------------------------------------------------
 # B3LYP/6-31G* guess=read geom=check nosymm integral(ultrafinegrid)
 -------------------------------------------------------------------
 1/29=2,38=1,172=1/1;
 2/12=2,15=1,40=1/2;
 3/5=1,6=6,7=1,11=2,14=-4,25=1,30=1,74=-5,75=-5,116=-2/1,2,3;
 4/5=1/1;
 5/5=2,38=6/2;
 6/7=2,8=2,9=2,10=2,28=1/1;
 99/5=1,9=1/99;
 ------------------------------------------------------
 Candidate Structure: Conf:234 Charge calc in gas phase
 ------------------------------------------------------
 Structure from the checkpoint file:  "conf-234.chk"
 Charge =  1 Multiplicity = 1
 Redundant internal coordinates found in file.  (old form).
 N,0,-4.0090200288,-2.1207178353,3.6404338295
 H,0,-3.1918072891,-2.7031942622,3.4675475346
 H,0,-4.4698491082,-2.4587382774,4.4819677047
 C,0,-3.6071630209,-0.7301074206,3.7780987086
 H,0,-4.5146289339,-0.1219139726,3.8769262932
 C,0,-2.8616886743,-0.3638567418,2.4933169596
 C,0,-2.6709120442,-0.4415887916,4.9939719232
 H,0,-3.1152410643,-0.8932517484,5.8874407436
 H,0,-1.7143397245,-0.9459840212,4.809322586
 O,0,-1.8651490778,-0.9959463517,2.1433190525
 C,0,-2.3893164958,1.0353862336,5.218849367
 N,0,-2.5781279476,1.5055542479,6.4666070485
 H,0,-2.8392378659,0.9098621443,7.2384297808
 H,0,-2.3494236303,2.472348019,6.6619344949
 O,0,-2.0243653538,1.7992496446,4.3097741548
 N,0,-3.2980409557,0.7215075181,1.8065126111
 H,0,-4.1561420605,1.1877995964,2.0733674838
 C,0,-2.5991297226,1.2161809416,0.6366181003
 H,0,-2.7102740426,0.5130594415,-0.1975598725
 C,0,-1.108535099,1.3406347894,0.9299486575
 C,0,-3.1599862912,2.6089624023,0.2248022137
 H,0,-2.887497231,3.3360559838,0.9982892413
 H,0,-2.6457329388,2.909578981,-0.694771859
 O,0,-0.6585182737,1.7066706799,2.0935954411
 C,0,-4.661311856,2.6011149822,0.0238384663
 C,0,-5.2321546364,1.9827672903,-1.098026516
 H,0,-4.5909627044,1.5272165435,-1.8499081093
 C,0,-5.50663463,3.194764578,0.9714598975
 H,0,-5.0769652751,3.704251982,1.8320667379
 C,0,-6.6155024285,1.955858498,-1.2654725618
 H,0,-7.0436278337,1.4776451409,-2.1417488611
 C,0,-6.894009765,3.1685964781,0.8044514741
 H,0,-7.5352955365,3.6419092563,1.5424295781
 C,0,-7.4502316623,2.5470351971,-0.3129131979
 H,0,-8.5277839291,2.5281051397,-0.4467328089
 N,0,-0.2538934909,1.1783865085,-0.0337194162
 H,0,-0.5229040014,0.9795919211,-1.0127828275
 C,0,1.2081631696,1.2663457111,0.0565060955
 H,0,1.4816904911,2.1668367589,0.6132526628
 C,0,1.6767977459,1.3682961106,-1.4213006764
 C,0,1.8096486653,0.0265374884,0.7636230066
 H,0,1.4716490012,0.0040622331,1.8042114338
 H,0,2.8994802258,0.1399432653,0.7581633426
 O,0,0.8394008492,1.1636308189,-2.3202072482
 C,0,1.4865362181,-1.2752602357,0.0199566949
 N,0,0.5966737085,-2.1044902353,0.6401535821
 H,0,0.318669308,-2.9307005879,0.126799285
 H,0,-0.011892114,-1.7928859154,1.3856390869
 O,0,2.0065057703,-1.5425891511,-1.0535360469
 N,0,2.9619499102,1.6656037167,-1.5361454062
 H,0,3.5779601038,1.695285108,-0.6836289875
 C,0,3.8949696105,1.2409328004,-2.5806510849
 H,0,3.6344856474,0.2194461716,-2.8867732341
 C,0,5.3065700583,1.1624048262,-1.8228618109
 C,0,3.9990561299,2.1406276991,-3.8082823734
 H,0,3.9668641432,3.1933770056,-3.4961508081
 H,0,5.0000546928,1.9436715362,-4.212121585
 O,0,6.2876360002,0.9933649871,-2.5571014105
 C,0,2.9370041717,1.8684772934,-4.8804566919
 H,0,2.9599236654,0.7986225659,-5.1331716231
 H,0,1.9321605727,2.0879184476,-4.5003125566
 C,0,3.2259556561,2.6751063819,-6.1448872182
 H,0,3.1264564257,3.7510903066,-5.95642084
 H,0,4.2510844973,2.4687632219,-6.4794538395
 N,0,2.2859065726,2.298876559,-7.2261986904
 H,0,1.6424639629,1.5454221134,-7.0159362438
 N,0,3.2486037584,3.6532439177,-8.8384758398
 H,0,3.1590080189,4.1930987323,-9.6868906149
 H,0,4.0145638763,3.8802924347,-8.2208152293
 N,0,1.3240817682,2.4679507976,-9.3396258851
 H,0,1.4792958474,2.5826882308,-10.3314459349
 H,0,0.5831351998,1.8350258051,-9.0736704688
 C,0,2.2913568771,2.7944686153,-8.456472212
 O,0,5.2115472613,1.2853269223,-0.565930289
 H,0,-1.3188455033,1.6813770259,2.860576915
 Recover connectivity data from disk.
                           ----------------------------
                           !    Current Parameters    !
                           ! (Angstroms and Degrees)  !
 --------------------------                            --------------------------
 ! Name  Definition              Value                                          !
 --------------------------------------------------------------------------------
 ! R1    R(1,2)                  1.0183                                         !
 ! R2    R(1,3)                  1.0173                                         !
 ! R3    R(1,4)                  1.454                                          !
 ! R4    R(4,5)                  1.0969                                         !
 ! R5    R(4,6)                  1.5299                                         !
 ! R6    R(4,7)                  1.5615                                         !
 ! R7    R(6,10)                 1.2309                                         !
 ! R8    R(6,16)                 1.3565                                         !
 ! R9    R(7,8)                  1.0953                                         !
 ! R10   R(7,9)                  1.0971                                         !
 ! R11   R(7,11)                 1.5203                                         !
 ! R12   R(11,12)                1.3467                                         !
 ! R13   R(11,15)                1.2422                                         !
 ! R14   R(12,13)                1.0093                                         !
 ! R15   R(12,14)                1.0125                                         !
 ! R16   R(15,75)                1.6161                                         !
 ! R17   R(16,17)                1.0124                                         !
 ! R18   R(16,18)                1.4498                                         !
 ! R19   R(18,19)                1.0966                                         !
 ! R20   R(18,20)                1.5243                                         !
 ! R21   R(18,21)                1.5569                                         !
 ! R22   R(20,24)                1.3002                                         !
 ! R23   R(20,36)                1.2982                                         !
 ! R24   R(21,22)                1.096                                          !
 ! R25   R(21,23)                1.0956                                         !
 ! R26   R(21,25)                1.5147                                         !
 ! R27   R(25,26)                1.4024                                         !
 ! R28   R(25,28)                1.4018                                         !
 ! R29   R(26,27)                1.0881                                         !
 ! R30   R(26,30)                1.3937                                         !
 ! R31   R(28,29)                1.0885                                         !
 ! R32   R(28,32)                1.3976                                         !
 ! R33   R(30,31)                1.0862                                         !
 ! R34   R(30,34)                1.3977                                         !
 ! R35   R(32,33)                1.0862                                         !
 ! R36   R(32,34)                1.3944                                         !
 ! R37   R(34,35)                1.086                                          !
 ! R38   R(36,37)                1.0346                                         !
 ! R39   R(36,38)                1.4675                                         !
 ! R40   R(38,39)                1.0935                                         !
 ! R41   R(38,40)                1.5537                                         !
 ! R42   R(38,41)                1.5488                                         !
 ! R43   R(40,44)                1.2455                                         !
 ! R44   R(40,50)                1.3241                                         !
 ! R45   R(41,42)                1.0943                                         !
 ! R46   R(41,43)                1.0957                                         !
 ! R47   R(41,45)                1.5337                                         !
 ! R48   R(45,46)                1.3653                                         !
 ! R49   R(45,49)                1.2224                                         !
 ! R50   R(46,47)                1.0117                                         !
 ! R51   R(46,48)                1.0115                                         !
 ! R52   R(50,51)                1.0522                                         !
 ! R53   R(50,52)                1.4635                                         !
 ! R54   R(52,53)                1.0977                                         !
 ! R55   R(52,54)                1.6041                                         !
 ! R56   R(52,55)                1.5256                                         !
 ! R57   R(54,58)                1.237                                          !
 ! R58   R(54,74)                1.2665                                         !
 ! R59   R(55,56)                1.0985                                         !
 ! R60   R(55,57)                1.0972                                         !
 ! R61   R(55,59)                1.5335                                         !
 ! R62   R(59,60)                1.0995                                         !
 ! R63   R(59,61)                1.0965                                         !
 ! R64   R(59,62)                1.5274                                         !
 ! R65   R(62,63)                1.0969                                         !
 ! R66   R(62,64)                1.0979                                         !
 ! R67   R(62,65)                1.4814                                         !
 ! R68   R(65,66)                1.0129                                         !
 ! R69   R(65,73)                1.3264                                         !
 ! R70   R(67,68)                1.0096                                         !
 ! R71   R(67,69)                1.0098                                         !
 ! R72   R(67,73)                1.3415                                         !
 ! R73   R(70,71)                1.0104                                         !
 ! R74   R(70,72)                1.0101                                         !
 ! R75   R(70,73)                1.3499                                         !
 ! A1    A(2,1,3)              108.296                                          !
 ! A2    A(2,1,4)              109.9574                                         !
 ! A3    A(3,1,4)              111.3873                                         !
 ! A4    A(1,4,5)              108.0694                                         !
 ! A5    A(1,4,6)              106.506                                          !
 ! A6    A(1,4,7)              114.5918                                         !
 ! A7    A(5,4,6)              110.2461                                         !
 ! A8    A(5,4,7)              108.8714                                         !
 ! A9    A(6,4,7)              108.5131                                         !
 ! A10   A(4,6,10)             120.6872                                         !
 ! A11   A(4,6,16)             117.3866                                         !
 ! A12   A(10,6,16)            121.8256                                         !
 ! A13   A(4,7,8)              108.4062                                         !
 ! A14   A(4,7,9)              107.8665                                         !
 ! A15   A(4,7,11)             113.938                                          !
 ! A16   A(8,7,9)              107.5429                                         !
 ! A17   A(8,7,11)             110.7988                                         !
 ! A18   A(9,7,11)             108.0628                                         !
 ! A19   A(7,11,12)            116.7601                                         !
 ! A20   A(7,11,15)            122.9267                                         !
 ! A21   A(12,11,15)           120.3019                                         !
 ! A22   A(11,12,13)           122.5971                                         !
 ! A23   A(11,12,14)           118.7141                                         !
 ! A24   A(13,12,14)           118.3243                                         !
 ! A25   A(11,15,75)           137.7008                                         !
 ! A26   A(6,16,17)            120.511                                          !
 ! A27   A(6,16,18)            121.7689                                         !
 ! A28   A(17,16,18)           117.6554                                         !
 ! A29   A(16,18,19)           110.255                                          !
 ! A30   A(16,18,20)           110.1209                                         !
 ! A31   A(16,18,21)           110.1829                                         !
 ! A32   A(19,18,20)           107.3283                                         !
 ! A33   A(19,18,21)           109.6248                                         !
 ! A34   A(20,18,21)           109.2771                                         !
 ! A35   A(18,20,24)           122.254                                          !
 ! A36   A(18,20,36)           119.3878                                         !
 ! A37   A(24,20,36)           118.1422                                         !
 ! A38   A(18,21,22)           108.4958                                         !
 ! A39   A(18,21,23)           107.3596                                         !
 ! A40   A(18,21,25)           112.7993                                         !
 ! A41   A(22,21,23)           107.0743                                         !
 ! A42   A(22,21,25)           110.0897                                         !
 ! A43   A(23,21,25)           110.8103                                         !
 ! A44   A(21,25,26)           120.7872                                         !
 ! A45   A(21,25,28)           120.3855                                         !
 ! A46   A(26,25,28)           118.8188                                         !
 ! A47   A(25,26,27)           119.8347                                         !
 ! A48   A(25,26,30)           120.5731                                         !
 ! A49   A(27,26,30)           119.59                                           !
 ! A50   A(25,28,29)           119.6476                                         !
 ! A51   A(25,28,32)           120.6572                                         !
 ! A52   A(29,28,32)           119.6747                                         !
 ! A53   A(26,30,31)           119.7782                                         !
 ! A54   A(26,30,34)           120.1803                                         !
 ! A55   A(31,30,34)           120.0409                                         !
 ! A56   A(28,32,33)           119.7822                                         !
 ! A57   A(28,32,34)           120.0055                                         !
 ! A58   A(33,32,34)           120.2097                                         !
 ! A59   A(30,34,32)           119.7644                                         !
 ! A60   A(30,34,35)           120.0803                                         !
 ! A61   A(32,34,35)           120.1539                                         !
 ! A62   A(20,36,37)           123.7299                                         !
 ! A63   A(20,36,38)           127.0673                                         !
 ! A64   A(37,36,38)           109.1927                                         !
 ! A65   A(36,38,39)           109.262                                          !
 ! A66   A(36,38,40)           104.239                                          !
 ! A67   A(36,38,41)           111.5307                                         !
 ! A68   A(39,38,40)           110.7814                                         !
 ! A69   A(39,38,41)           109.245                                          !
 ! A70   A(40,38,41)           111.6934                                         !
 ! A71   A(38,40,44)           118.2238                                         !
 ! A72   A(38,40,50)           112.9541                                         !
 ! A73   A(44,40,50)           128.8211                                         !
 ! A74   A(38,41,42)           109.3062                                         !
 ! A75   A(38,41,43)           107.5256                                         !
 ! A76   A(38,41,45)           112.1023                                         !
 ! A77   A(42,41,43)           108.3043                                         !
 ! A78   A(42,41,45)           112.2455                                         !
 ! A79   A(43,41,45)           107.1564                                         !
 ! A80   A(41,45,46)           115.6312                                         !
 ! A81   A(41,45,49)           121.4563                                         !
 ! A82   A(46,45,49)           122.911                                          !
 ! A83   A(45,46,47)           116.3989                                         !
 ! A84   A(45,46,48)           122.6696                                         !
 ! A85   A(47,46,48)           117.4021                                         !
 ! A86   A(40,50,51)           120.2844                                         !
 ! A87   A(40,50,52)           127.9901                                         !
 ! A88   A(51,50,52)           102.3101                                         !
 ! A89   A(50,52,53)           108.528                                          !
 ! A90   A(50,52,54)           103.7726                                         !
 ! A91   A(50,52,55)           116.5312                                         !
 ! A92   A(53,52,54)           107.1581                                         !
 ! A93   A(53,52,55)           109.9115                                         !
 ! A94   A(54,52,55)           110.4253                                         !
 ! A95   A(52,54,58)           115.1012                                         !
 ! A96   A(52,54,74)           113.4577                                         !
 ! A97   A(58,54,74)           131.441                                          !
 ! A98   A(52,55,56)           109.5437                                         !
 ! A99   A(52,55,57)           104.6291                                         !
 ! A100  A(52,55,59)           114.2496                                         !
 ! A101  A(56,55,57)           107.6584                                         !
 ! A102  A(56,55,59)           110.3922                                         !
 ! A103  A(57,55,59)           110.0382                                         !
 ! A104  A(55,59,60)           108.5989                                         !
 ! A105  A(55,59,61)           110.9013                                         !
 ! A106  A(55,59,62)           110.7356                                         !
 ! A107  A(60,59,61)           107.0678                                         !
 ! A108  A(60,59,62)           108.6412                                         !
 ! A109  A(61,59,62)           110.7731                                         !
 ! A110  A(59,62,63)           111.017                                          !
 ! A111  A(59,62,64)           109.2477                                         !
 ! A112  A(59,62,65)           110.493                                          !
 ! A113  A(63,62,64)           108.7486                                         !
 ! A114  A(63,62,65)           108.4808                                         !
 ! A115  A(64,62,65)           108.8049                                         !
 ! A116  A(62,65,66)           116.1371                                         !
 ! A117  A(62,65,73)           125.4193                                         !
 ! A118  A(66,65,73)           118.2364                                         !
 ! A119  A(68,67,69)           117.4573                                         !
 ! A120  A(68,67,73)           121.216                                          !
 ! A121  A(69,67,73)           120.7296                                         !
 ! A122  A(71,70,72)           116.2491                                         !
 ! A123  A(71,70,73)           120.3085                                         !
 ! A124  A(72,70,73)           120.3262                                         !
 ! A125  A(65,73,67)           120.4138                                         !
 ! A126  A(65,73,70)           120.8989                                         !
 ! A127  A(67,73,70)           118.6749                                         !
 ! D1    D(2,1,4,5)            175.2319                                         !
 ! D2    D(2,1,4,6)             56.786                                          !
 ! D3    D(2,1,4,7)            -63.2022                                         !
 ! D4    D(3,1,4,5)            -64.7087                                         !
 ! D5    D(3,1,4,6)            176.8454                                         !
 ! D6    D(3,1,4,7)             56.8572                                         !
 ! D7    D(1,4,6,10)           -57.8072                                         !
 ! D8    D(1,4,6,16)           125.7743                                         !
 ! D9    D(5,4,6,10)          -174.8143                                         !
 ! D10   D(5,4,6,16)             8.7672                                         !
 ! D11   D(7,4,6,10)            66.0378                                         !
 ! D12   D(7,4,6,16)          -110.3807                                         !
 ! D13   D(1,4,7,8)            -49.4716                                         !
 ! D14   D(1,4,7,9)             66.6985                                         !
 ! D15   D(1,4,7,11)          -173.3327                                         !
 ! D16   D(5,4,7,8)             71.6545                                         !
 ! D17   D(5,4,7,9)           -172.1754                                         !
 ! D18   D(5,4,7,11)           -52.2066                                         !
 ! D19   D(6,4,7,8)           -168.3371                                         !
 ! D20   D(6,4,7,9)            -52.167                                          !
 ! D21   D(6,4,7,11)            67.8018                                         !
 ! D22   D(4,6,16,17)           -7.9401                                         !
 ! D23   D(4,6,16,18)          175.0533                                         !
 ! D24   D(10,6,16,17)         175.6849                                         !
 ! D25   D(10,6,16,18)          -1.3217                                         !
 ! D26   D(4,7,11,12)          129.5108                                         !
 ! D27   D(4,7,11,15)          -49.2653                                         !
 ! D28   D(8,7,11,12)            6.9514                                         !
 ! D29   D(8,7,11,15)         -171.8247                                         !
 ! D30   D(9,7,11,12)         -110.631                                          !
 ! D31   D(9,7,11,15)           70.5929                                         !
 ! D32   D(7,11,12,13)           3.6303                                         !
 ! D33   D(7,11,12,14)         176.5784                                         !
 ! D34   D(15,11,12,13)       -177.5596                                         !
 ! D35   D(15,11,12,14)         -4.6115                                         !
 ! D36   D(7,11,15,75)         -21.7505                                         !
 ! D37   D(12,11,15,75)        159.5153                                         !
 ! D38   D(6,16,18,19)          69.6366                                         !
 ! D39   D(6,16,18,20)         -48.6128                                         !
 ! D40   D(6,16,18,21)        -169.2279                                         !
 ! D41   D(17,16,18,19)       -107.452                                          !
 ! D42   D(17,16,18,20)        134.2987                                         !
 ! D43   D(17,16,18,21)         13.6836                                         !
 ! D44   D(16,18,20,24)        -35.9454                                         !
 ! D45   D(16,18,20,36)        149.4965                                         !
 ! D46   D(19,18,20,24)       -155.981                                          !
 ! D47   D(19,18,20,36)         29.4609                                         !
 ! D48   D(21,18,20,24)         85.2127                                         !
 ! D49   D(21,18,20,36)        -89.3453                                         !
 ! D50   D(16,18,21,22)         68.0493                                         !
 ! D51   D(16,18,21,23)       -176.5498                                         !
 ! D52   D(16,18,21,25)        -54.1936                                         !
 ! D53   D(19,18,21,22)       -170.4395                                         !
 ! D54   D(19,18,21,23)        -55.0386                                         !
 ! D55   D(19,18,21,25)         67.3176                                         !
 ! D56   D(20,18,21,22)        -53.0712                                         !
 ! D57   D(20,18,21,23)         62.3297                                         !
 ! D58   D(20,18,21,25)       -175.3142                                         !
 ! D59   D(18,20,36,37)          0.965                                          !
 ! D60   D(18,20,36,38)        179.6817                                         !
 ! D61   D(24,20,36,37)       -173.8164                                         !
 ! D62   D(24,20,36,38)          4.9003                                         !
 ! D63   D(18,21,25,26)        -72.7723                                         !
 ! D64   D(18,21,25,28)        106.1553                                         !
 ! D65   D(22,21,25,26)        165.885                                          !
 ! D66   D(22,21,25,28)        -15.1874                                         !
 ! D67   D(23,21,25,26)         47.6258                                         !
 ! D68   D(23,21,25,28)       -133.4466                                         !
 ! D69   D(21,25,26,27)         -1.7848                                         !
 ! D70   D(21,25,26,30)        178.7633                                         !
 ! D71   D(28,25,26,27)        179.271                                          !
 ! D72   D(28,25,26,30)         -0.1808                                         !
 ! D73   D(21,25,28,29)          2.8688                                         !
 ! D74   D(21,25,28,32)       -178.7792                                         !
 ! D75   D(26,25,28,29)       -178.1827                                         !
 ! D76   D(26,25,28,32)          0.1693                                         !
 ! D77   D(25,26,30,31)        179.702                                          !
 ! D78   D(25,26,30,34)         -0.0127                                         !
 ! D79   D(27,26,30,31)          0.2489                                         !
 ! D80   D(27,26,30,34)       -179.4659                                         !
 ! D81   D(25,28,32,33)       -179.377                                          !
 ! D82   D(25,28,32,34)          0.036                                          !
 ! D83   D(29,28,32,33)         -1.0255                                         !
 ! D84   D(29,28,32,34)        178.3875                                         !
 ! D85   D(26,30,34,32)          0.2205                                         !
 ! D86   D(26,30,34,35)        179.7898                                         !
 ! D87   D(31,30,34,32)       -179.4935                                         !
 ! D88   D(31,30,34,35)          0.0758                                         !
 ! D89   D(28,32,34,30)         -0.2317                                         !
 ! D90   D(28,32,34,35)       -179.8007                                         !
 ! D91   D(33,32,34,30)        179.1788                                         !
 ! D92   D(33,32,34,35)         -0.3902                                         !
 ! D93   D(20,36,38,39)        -46.8635                                         !
 ! D94   D(20,36,38,40)       -165.3162                                         !
 ! D95   D(20,36,38,41)         74.0147                                         !
 ! D96   D(37,36,38,39)        132.0064                                         !
 ! D97   D(37,36,38,40)         13.5537                                         !
 ! D98   D(37,36,38,41)       -107.1154                                         !
 ! D99   D(36,38,40,44)        -10.2429                                         !
 ! D100  D(36,38,40,50)        170.0907                                         !
 ! D101  D(39,38,40,44)       -127.6513                                         !
 ! D102  D(39,38,40,50)         52.6823                                         !
 ! D103  D(41,38,40,44)        110.3173                                         !
 ! D104  D(41,38,40,50)        -69.3491                                         !
 ! D105  D(36,38,41,42)        -64.9421                                         !
 ! D106  D(36,38,41,43)        177.6965                                         !
 ! D107  D(36,38,41,45)         60.1726                                         !
 ! D108  D(39,38,41,42)         55.9461                                         !
 ! D109  D(39,38,41,43)        -61.4153                                         !
 ! D110  D(39,38,41,45)       -178.9392                                         !
 ! D111  D(40,38,41,42)        178.8569                                         !
 ! D112  D(40,38,41,43)         61.4955                                         !
 ! D113  D(40,38,41,45)        -56.0284                                         !
 ! D114  D(38,40,50,51)          7.2008                                         !
 ! D115  D(38,40,50,52)        147.4984                                         !
 ! D116  D(44,40,50,51)       -172.4219                                         !
 ! D117  D(44,40,50,52)        -32.1244                                         !
 ! D118  D(38,41,45,46)       -109.4155                                         !
 ! D119  D(38,41,45,49)         71.0212                                         !
 ! D120  D(42,41,45,46)         14.064                                          !
 ! D121  D(42,41,45,49)       -165.4993                                         !
 ! D122  D(43,41,45,46)        132.8404                                         !
 ! D123  D(43,41,45,49)        -46.7229                                         !
 ! D124  D(41,45,46,47)        175.2822                                         !
 ! D125  D(41,45,46,48)         17.0531                                         !
 ! D126  D(49,45,46,47)         -5.1616                                         !
 ! D127  D(49,45,46,48)       -163.3907                                         !
 ! D128  D(40,50,52,53)        -35.1944                                         !
 ! D129  D(40,50,52,54)       -148.9287                                         !
 ! D130  D(40,50,52,55)         89.4712                                         !
 ! D131  D(51,50,52,53)        110.4306                                         !
 ! D132  D(51,50,52,54)         -3.3037                                         !
 ! D133  D(51,50,52,55)       -124.9038                                         !
 ! D134  D(50,52,54,58)       -170.6764                                         !
 ! D135  D(50,52,54,74)          9.3772                                         !
 ! D136  D(53,52,54,58)         74.6092                                         !
 ! D137  D(53,52,54,74)       -105.3372                                         !
 ! D138  D(55,52,54,58)        -45.0819                                         !
 ! D139  D(55,52,54,74)        134.9717                                         !
 ! D140  D(50,52,55,56)         39.6716                                         !
 ! D141  D(50,52,55,57)        154.8431                                         !
 ! D142  D(50,52,55,59)        -84.7606                                         !
 ! D143  D(53,52,55,56)        163.6305                                         !
 ! D144  D(53,52,55,57)        -81.1981                                         !
 ! D145  D(53,52,55,59)         39.1983                                         !
 ! D146  D(54,52,55,56)        -78.3541                                         !
 ! D147  D(54,52,55,57)         36.8174                                         !
 ! D148  D(54,52,55,59)        157.2137                                         !
 ! D149  D(52,55,59,60)        -53.1338                                         !
 ! D150  D(52,55,59,61)         64.2534                                         !
 ! D151  D(52,55,59,62)       -172.3438                                         !
 ! D152  D(56,55,59,60)       -177.1125                                         !
 ! D153  D(56,55,59,61)        -59.7253                                         !
 ! D154  D(56,55,59,62)         63.6775                                         !
 ! D155  D(57,55,59,60)         64.1982                                         !
 ! D156  D(57,55,59,61)       -178.4146                                         !
 ! D157  D(57,55,59,62)        -55.0118                                         !
 ! D158  D(55,59,62,63)        -65.7631                                         !
 ! D159  D(55,59,62,64)         54.1617                                         !
 ! D160  D(55,59,62,65)        173.8315                                         !
 ! D161  D(60,59,62,63)        175.0524                                         !
 ! D162  D(60,59,62,64)        -65.0228                                         !
 ! D163  D(60,59,62,65)         54.647                                          !
 ! D164  D(61,59,62,63)         57.7136                                         !
 ! D165  D(61,59,62,64)        177.6384                                         !
 ! D166  D(61,59,62,65)        -62.6919                                         !
 ! D167  D(59,62,65,66)         -3.7812                                         !
 ! D168  D(59,62,65,73)       -178.4351                                         !
 ! D169  D(63,62,65,66)       -125.6928                                         !
 ! D170  D(63,62,65,73)         59.6533                                         !
 ! D171  D(64,62,65,66)        116.1551                                         !
 ! D172  D(64,62,65,73)        -58.4988                                         !
 ! D173  D(62,65,73,67)          4.1788                                         !
 ! D174  D(62,65,73,70)       -174.5271                                         !
 ! D175  D(66,65,73,67)       -170.3732                                         !
 ! D176  D(66,65,73,70)         10.9209                                         !
 ! D177  D(68,67,73,65)       -166.2985                                         !
 ! D178  D(68,67,73,70)         12.4359                                         !
 ! D179  D(69,67,73,65)          4.6163                                         !
 ! D180  D(69,67,73,70)       -176.6494                                         !
 ! D181  D(71,70,73,65)       -159.612                                          !
 ! D182  D(71,70,73,67)         21.66                                           !
 ! D183  D(72,70,73,65)         -0.3111                                         !
 ! D184  D(72,70,73,67)       -179.0391                                         !
 --------------------------------------------------------------------------------
 Symmetry turned off by external request.
 Stoichiometry    C23H36N9O7(1+)
 Framework group  C1[X(C23H36N9O7)]
 Deg. of freedom   219
 Full point group                 C1      NOp   1
                          Input orientation:                          
 ---------------------------------------------------------------------
 Center     Atomic      Atomic             Coordinates (Angstroms)
 Number     Number       Type             X           Y           Z
 ---------------------------------------------------------------------
      1          7           0       -4.009020   -2.120718    3.640434
      2          1           0       -3.191807   -2.703194    3.467548
      3          1           0       -4.469849   -2.458738    4.481968
      4          6           0       -3.607163   -0.730107    3.778099
      5          1           0       -4.514629   -0.121914    3.876926
      6          6           0       -2.861689   -0.363857    2.493317
      7          6           0       -2.670912   -0.441589    4.993972
      8          1           0       -3.115241   -0.893252    5.887441
      9          1           0       -1.714340   -0.945984    4.809323
     10          8           0       -1.865149   -0.995946    2.143319
     11          6           0       -2.389316    1.035386    5.218849
     12          7           0       -2.578128    1.505554    6.466607
     13          1           0       -2.839238    0.909862    7.238430
     14          1           0       -2.349424    2.472348    6.661934
     15          8           0       -2.024365    1.799250    4.309774
     16          7           0       -3.298041    0.721508    1.806513
     17          1           0       -4.156142    1.187800    2.073367
     18          6           0       -2.599130    1.216181    0.636618
     19          1           0       -2.710274    0.513059   -0.197560
     20          6           0       -1.108535    1.340635    0.929949
     21          6           0       -3.159986    2.608962    0.224802
     22          1           0       -2.887497    3.336056    0.998289
     23          1           0       -2.645733    2.909579   -0.694772
     24          8           0       -0.658518    1.706671    2.093595
     25          6           0       -4.661312    2.601115    0.023838
     26          6           0       -5.232155    1.982767   -1.098027
     27          1           0       -4.590963    1.527217   -1.849908
     28          6           0       -5.506635    3.194765    0.971460
     29          1           0       -5.076965    3.704252    1.832067
     30          6           0       -6.615502    1.955858   -1.265473
     31          1           0       -7.043628    1.477645   -2.141749
     32          6           0       -6.894010    3.168596    0.804451
     33          1           0       -7.535296    3.641909    1.542430
     34          6           0       -7.450232    2.547035   -0.312913
     35          1           0       -8.527784    2.528105   -0.446733
     36          7           0       -0.253893    1.178387   -0.033719
     37          1           0       -0.522904    0.979592   -1.012783
     38          6           0        1.208163    1.266346    0.056506
     39          1           0        1.481690    2.166837    0.613253
     40          6           0        1.676798    1.368296   -1.421301
     41          6           0        1.809649    0.026537    0.763623
     42          1           0        1.471649    0.004062    1.804211
     43          1           0        2.899480    0.139943    0.758163
     44          8           0        0.839401    1.163631   -2.320207
     45          6           0        1.486536   -1.275260    0.019957
     46          7           0        0.596674   -2.104490    0.640154
     47          1           0        0.318669   -2.930701    0.126799
     48          1           0       -0.011892   -1.792886    1.385639
     49          8           0        2.006506   -1.542589   -1.053536
     50          7           0        2.961950    1.665604   -1.536145
     51          1           0        3.577960    1.695285   -0.683629
     52          6           0        3.894970    1.240933   -2.580651
     53          1           0        3.634486    0.219446   -2.886773
     54          6           0        5.306570    1.162405   -1.822862
     55          6           0        3.999056    2.140628   -3.808282
     56          1           0        3.966864    3.193377   -3.496151
     57          1           0        5.000055    1.943672   -4.212122
     58          8           0        6.287636    0.993365   -2.557101
     59          6           0        2.937004    1.868477   -4.880457
     60          1           0        2.959924    0.798623   -5.133172
     61          1           0        1.932161    2.087918   -4.500313
     62          6           0        3.225956    2.675106   -6.144887
     63          1           0        3.126456    3.751090   -5.956421
     64          1           0        4.251084    2.468763   -6.479454
     65          7           0        2.285907    2.298877   -7.226199
     66          1           0        1.642464    1.545422   -7.015936
     67          7           0        3.248604    3.653244   -8.838476
     68          1           0        3.159008    4.193099   -9.686891
     69          1           0        4.014564    3.880292   -8.220815
     70          7           0        1.324082    2.467951   -9.339626
     71          1           0        1.479296    2.582688  -10.331446
     72          1           0        0.583135    1.835026   -9.073670
     73          6           0        2.291357    2.794469   -8.456472
     74          8           0        5.211547    1.285327   -0.565930
     75          1           0       -1.318846    1.681377    2.860577
 ---------------------------------------------------------------------
 Rotational constants (GHZ):           0.1107460           0.0406624           0.0325606
 Standard basis: 6-31G(d) (6D, 7F)
   657 basis functions,  1236 primitive gaussians,   657 cartesian basis functions
   146 alpha electrons      146 beta electrons
       nuclear repulsion energy      4484.7196884875 Hartrees.
 NAtoms=   75 NActive=   75 NUniq=   75 SFac= 1.00D+00 NAtFMM=   60 NAOKFM=T Big=T
 Integral buffers will be    131072 words long.
 Raffenetti 2 integral format.
 Two-electron integral symmetry is turned off.
 One-electron integrals computed using PRISM.
 NBasis=   657 RedAO= T EigKep=  4.69D-04  NBF=   657
 NBsUse=   657 1.00D-06 EigRej= -1.00D+00 NBFU=   657
 Initial guess from the checkpoint file:  "conf-234.chk"
 B after Tr=     0.000000    0.000000    0.000000
         Rot=    1.000000    0.000000    0.000000    0.000000 Ang=   0.00 deg.
 Requested convergence on RMS density matrix=1.00D-08 within 128 cycles.
 Requested convergence on MAX density matrix=1.00D-06.
 Requested convergence on             energy=1.00D-06.
 No special actions if energy rises.
 SCF Done:  E(RB3LYP) =  -1917.30895158     A.U. after    2 cycles
            NFock=  2  Conv=0.91D-08     -V/T= 2.0093

 **********************************************************************

            Population analysis using the SCF Density.

 **********************************************************************

 Alpha  occ. eigenvalues --  -19.30899 -19.24366 -19.23549 -19.18116 -19.16348
 Alpha  occ. eigenvalues --  -19.08557 -19.07329 -14.52474 -14.52472 -14.52044
 Alpha  occ. eigenvalues --  -14.49425 -14.48125 -14.47742 -14.41586 -14.40754
 Alpha  occ. eigenvalues --  -14.38403 -10.48653 -10.44088 -10.41665 -10.40325
 Alpha  occ. eigenvalues --  -10.36846 -10.34534 -10.34345 -10.34114 -10.34045
 Alpha  occ. eigenvalues --  -10.32431 -10.31303 -10.30926 -10.29611 -10.28391
 Alpha  occ. eigenvalues --  -10.28245 -10.27970 -10.27939 -10.27724 -10.26531
 Alpha  occ. eigenvalues --  -10.26476 -10.26269 -10.23826 -10.22781  -1.21572
 Alpha  occ. eigenvalues --   -1.17142  -1.15759  -1.15357  -1.09877  -1.08174
 Alpha  occ. eigenvalues --   -1.06181  -1.06090  -1.05450  -1.04783  -1.02486
 Alpha  occ. eigenvalues --   -1.01589  -0.99369  -0.96193  -0.95453  -0.95029
 Alpha  occ. eigenvalues --   -0.92789  -0.90835  -0.88693  -0.87097  -0.86929
 Alpha  occ. eigenvalues --   -0.83801  -0.83488  -0.81467  -0.78716  -0.78624
 Alpha  occ. eigenvalues --   -0.78344  -0.75679  -0.75402  -0.74342  -0.72578
 Alpha  occ. eigenvalues --   -0.71497  -0.70401  -0.69941  -0.69691  -0.67797
 Alpha  occ. eigenvalues --   -0.67009  -0.66403  -0.65435  -0.65339  -0.64900
 Alpha  occ. eigenvalues --   -0.64432  -0.64017  -0.63006  -0.61558  -0.60854
 Alpha  occ. eigenvalues --   -0.60501  -0.60277  -0.59904  -0.59390  -0.58074
 Alpha  occ. eigenvalues --   -0.57884  -0.57566  -0.56540  -0.55817  -0.55642
 Alpha  occ. eigenvalues --   -0.55194  -0.54887  -0.54669  -0.53912  -0.53593
 Alpha  occ. eigenvalues --   -0.52166  -0.51980  -0.51193  -0.51071  -0.50851
 Alpha  occ. eigenvalues --   -0.50431  -0.50290  -0.49962  -0.49859  -0.48735
 Alpha  occ. eigenvalues --   -0.48452  -0.48340  -0.47432  -0.47324  -0.46600
 Alpha  occ. eigenvalues --   -0.45729  -0.45388  -0.44880  -0.44807  -0.44306
 Alpha  occ. eigenvalues --   -0.43608  -0.43516  -0.43226  -0.43130  -0.42888
 Alpha  occ. eigenvalues --   -0.40754  -0.40390  -0.40125  -0.39554  -0.39331
 Alpha  occ. eigenvalues --   -0.39013  -0.38301  -0.37641  -0.37472  -0.37338
 Alpha  occ. eigenvalues --   -0.35774  -0.34177  -0.33744  -0.33601  -0.32674
 Alpha  occ. eigenvalues --   -0.31937  -0.30403  -0.29663  -0.23546  -0.23434
 Alpha  occ. eigenvalues --   -0.21601
 Alpha virt. eigenvalues --   -0.13034  -0.12330  -0.10460  -0.09576  -0.09447
 Alpha virt. eigenvalues --   -0.08743  -0.08710  -0.04598  -0.04090  -0.03829
 Alpha virt. eigenvalues --   -0.03375  -0.03191  -0.02738  -0.01362  -0.01225
 Alpha virt. eigenvalues --   -0.00101   0.00727   0.00959   0.01401   0.02020
 Alpha virt. eigenvalues --    0.02245   0.02728   0.03911   0.04188   0.04678
 Alpha virt. eigenvalues --    0.05143   0.05619   0.05694   0.05856   0.06292
 Alpha virt. eigenvalues --    0.06485   0.07098   0.07149   0.07338   0.07768
 Alpha virt. eigenvalues --    0.08297   0.08434   0.09010   0.09461   0.09914
 Alpha virt. eigenvalues --    0.10466   0.10728   0.10795   0.11113   0.11272
 Alpha virt. eigenvalues --    0.12072   0.12458   0.12644   0.12920   0.13404
 Alpha virt. eigenvalues --    0.13674   0.13994   0.14365   0.14738   0.15076
 Alpha virt. eigenvalues --    0.15603   0.16093   0.17211   0.18002   0.18165
 Alpha virt. eigenvalues --    0.19682   0.20678   0.21772   0.22271   0.22875
 Alpha virt. eigenvalues --    0.23136   0.23522   0.23611   0.24252   0.25354
 Alpha virt. eigenvalues --    0.25696   0.26731   0.26895   0.27496   0.28128
 Alpha virt. eigenvalues --    0.28372   0.30272   0.30493   0.31555   0.33894
 Alpha virt. eigenvalues --    0.35990   0.36231   0.37294   0.38885   0.39454
 Alpha virt. eigenvalues --    0.40106   0.40559   0.41363   0.41499   0.42005
 Alpha virt. eigenvalues --    0.42080   0.42461   0.43294   0.44002   0.44539
 Alpha virt. eigenvalues --    0.44905   0.45149   0.45593   0.46437   0.46614
 Alpha virt. eigenvalues --    0.47260   0.47453   0.47688   0.48370   0.48593
 Alpha virt. eigenvalues --    0.48958   0.49615   0.49954   0.50352   0.50456
 Alpha virt. eigenvalues --    0.50580   0.51065   0.51235   0.51798   0.52398
 Alpha virt. eigenvalues --    0.52625   0.52944   0.53106   0.53287   0.53983
 Alpha virt. eigenvalues --    0.54085   0.54597   0.55240   0.55655   0.55726
 Alpha virt. eigenvalues --    0.56287   0.56995   0.57427   0.58136   0.58403
 Alpha virt. eigenvalues --    0.58839   0.59204   0.59741   0.60371   0.60975
 Alpha virt. eigenvalues --    0.61526   0.61637   0.61945   0.62509   0.63109
 Alpha virt. eigenvalues --    0.63702   0.64302   0.65011   0.65280   0.65556
 Alpha virt. eigenvalues --    0.65897   0.66003   0.67337   0.67799   0.68965
 Alpha virt. eigenvalues --    0.69331   0.70354   0.70590   0.70711   0.70994
 Alpha virt. eigenvalues --    0.71273   0.72070   0.72485   0.72576   0.72929
 Alpha virt. eigenvalues --    0.73232   0.73526   0.73901   0.74032   0.74592
 Alpha virt. eigenvalues --    0.75089   0.75260   0.75672   0.75870   0.76100
 Alpha virt. eigenvalues --    0.76730   0.77068   0.77221   0.77477   0.77869
 Alpha virt. eigenvalues --    0.78012   0.78607   0.78760   0.79750   0.80241
 Alpha virt. eigenvalues --    0.80530   0.81086   0.81408   0.81587   0.82028
 Alpha virt. eigenvalues --    0.82514   0.82736   0.82951   0.83333   0.83861
 Alpha virt. eigenvalues --    0.84086   0.84410   0.85135   0.85431   0.85622
 Alpha virt. eigenvalues --    0.85838   0.86081   0.87258   0.87499   0.88002
 Alpha virt. eigenvalues --    0.89055   0.89528   0.90537   0.91099   0.91333
 Alpha virt. eigenvalues --    0.92376   0.93093   0.93828   0.93950   0.95066
 Alpha virt. eigenvalues --    0.95244   0.95981   0.97293   0.98313   0.99075
 Alpha virt. eigenvalues --    0.99917   1.00018   1.00984   1.01672   1.01808
 Alpha virt. eigenvalues --    1.02482   1.03109   1.03563   1.04046   1.04626
 Alpha virt. eigenvalues --    1.06481   1.06651   1.08160   1.08474   1.08981
 Alpha virt. eigenvalues --    1.09884   1.10956   1.11301   1.11355   1.12232
 Alpha virt. eigenvalues --    1.13312   1.13621   1.14450   1.14634   1.15707
 Alpha virt. eigenvalues --    1.16219   1.16740   1.18001   1.18318   1.19312
 Alpha virt. eigenvalues --    1.19730   1.21395   1.21767   1.22294   1.23007
 Alpha virt. eigenvalues --    1.23706   1.24208   1.25025   1.26373   1.27075
 Alpha virt. eigenvalues --    1.27474   1.28841   1.30460   1.31701   1.32876
 Alpha virt. eigenvalues --    1.33285   1.33895   1.34802   1.35308   1.35854
 Alpha virt. eigenvalues --    1.36314   1.37239   1.38700   1.38744   1.39192
 Alpha virt. eigenvalues --    1.39713   1.40173   1.40463   1.41876   1.42225
 Alpha virt. eigenvalues --    1.42592   1.43956   1.44588   1.45821   1.46757
 Alpha virt. eigenvalues --    1.47381   1.49209   1.49670   1.50478   1.50940
 Alpha virt. eigenvalues --    1.51237   1.52535   1.52609   1.53456   1.54830
 Alpha virt. eigenvalues --    1.55792   1.56983   1.58643   1.59774   1.60593
 Alpha virt. eigenvalues --    1.61584   1.61993   1.62953   1.63297   1.64436
 Alpha virt. eigenvalues --    1.65373   1.66449   1.66723   1.67716   1.68513
 Alpha virt. eigenvalues --    1.68939   1.69280   1.69758   1.69956   1.70450
 Alpha virt. eigenvalues --    1.71458   1.72403   1.72506   1.73344   1.73676
 Alpha virt. eigenvalues --    1.74334   1.74677   1.75272   1.75378   1.76612
 Alpha virt. eigenvalues --    1.77152   1.77731   1.78062   1.79288   1.79631
 Alpha virt. eigenvalues --    1.80095   1.80252   1.81260   1.81508   1.81818
 Alpha virt. eigenvalues --    1.82576   1.83404   1.84595   1.84897   1.85739
 Alpha virt. eigenvalues --    1.85924   1.86045   1.87011   1.87839   1.88022
 Alpha virt. eigenvalues --    1.88429   1.88857   1.89186   1.89742   1.89881
 Alpha virt. eigenvalues --    1.90585   1.90966   1.91366   1.92147   1.92703
 Alpha virt. eigenvalues --    1.93821   1.94579   1.94623   1.95143   1.95861
 Alpha virt. eigenvalues --    1.96458   1.96662   1.97234   1.98719   1.99058
 Alpha virt. eigenvalues --    2.00002   2.00444   2.01379   2.01952   2.03161
 Alpha virt. eigenvalues --    2.04965   2.05168   2.05367   2.05750   2.06160
 Alpha virt. eigenvalues --    2.06961   2.08113   2.09133   2.09514   2.09909
 Alpha virt. eigenvalues --    2.10852   2.11323   2.11523   2.12559   2.13166
 Alpha virt. eigenvalues --    2.14063   2.14767   2.16045   2.16967   2.17667
 Alpha virt. eigenvalues --    2.18961   2.19175   2.19969   2.20687   2.21246
 Alpha virt. eigenvalues --    2.21521   2.22736   2.23365   2.24044   2.24525
 Alpha virt. eigenvalues --    2.24792   2.27013   2.29315   2.29568   2.30576
 Alpha virt. eigenvalues --    2.31745   2.32658   2.33267   2.33474   2.34002
 Alpha virt. eigenvalues --    2.35065   2.36101   2.37388   2.39257   2.39727
 Alpha virt. eigenvalues --    2.41266   2.41742   2.43538   2.44077   2.44317
 Alpha virt. eigenvalues --    2.45598   2.46004   2.46882   2.47663   2.48468
 Alpha virt. eigenvalues --    2.49305   2.50390   2.50982   2.51558   2.52162
 Alpha virt. eigenvalues --    2.53033   2.53362   2.54435   2.55349   2.55426
 Alpha virt. eigenvalues --    2.56151   2.57973   2.58486   2.60403   2.61872
 Alpha virt. eigenvalues --    2.63255   2.63875   2.65068   2.65154   2.66027
 Alpha virt. eigenvalues --    2.66913   2.67817   2.68740   2.70338   2.72408
 Alpha virt. eigenvalues --    2.74336   2.75368   2.76693   2.77617   2.78040
 Alpha virt. eigenvalues --    2.79998   2.80516   2.83984   2.85641   2.87776
 Alpha virt. eigenvalues --    2.89734   2.90714   2.90927   2.93426   2.94328
 Alpha virt. eigenvalues --    2.94961   2.95660   2.96212   2.98873   2.99041
 Alpha virt. eigenvalues --    3.01641   3.03848   3.05822   3.09985   3.14265
 Alpha virt. eigenvalues --    3.19982   3.31668   3.64167   3.67599   3.70095
 Alpha virt. eigenvalues --    3.72314   3.79263   3.86978   3.88416   3.92860
 Alpha virt. eigenvalues --    3.95707   3.99218   4.00407   4.02312   4.03667
 Alpha virt. eigenvalues --    4.05519   4.06343   4.06958   4.10312   4.13619
 Alpha virt. eigenvalues --    4.13946   4.16990   4.23506   4.25149   4.26101
 Alpha virt. eigenvalues --    4.28590   4.29056   4.31670   4.32462   4.33370
 Alpha virt. eigenvalues --    4.36421   4.39103   4.41917   4.43700   4.49558
 Alpha virt. eigenvalues --    4.53226   4.56297   4.58822   4.61452   4.61849
 Alpha virt. eigenvalues --    4.63743
          Condensed to atoms (all electrons):
 Mulliken charges:
               1
     1  N   -0.704169
     2  H    0.326021
     3  H    0.317574
     4  C   -0.057548
     5  H    0.156568
     6  C    0.644218
     7  C   -0.387093
     8  H    0.157431
     9  H    0.210024
    10  O   -0.541262
    11  C    0.632969
    12  N   -0.725635
    13  H    0.365347
    14  H    0.369365
    15  O   -0.565916
    16  N   -0.621009
    17  H    0.357610
    18  C   -0.016858
    19  H    0.199501
    20  C    0.660411
    21  C   -0.398928
    22  H    0.181122
    23  H    0.187954
    24  O   -0.596896
    25  C    0.156817
    26  C   -0.175196
    27  H    0.134791
    28  C   -0.209709
    29  H    0.140828
    30  C   -0.124391
    31  H    0.153599
    32  C   -0.124259
    33  H    0.153750
    34  C   -0.124392
    35  H    0.156701
    36  N   -0.574200
    37  H    0.385986
    38  C   -0.091542
    39  H    0.205462
    40  C    0.650286
    41  C   -0.373598
    42  H    0.162394
    43  H    0.240713
    44  O   -0.589199
    45  C    0.582392
    46  N   -0.765408
    47  H    0.338907
    48  H    0.368960
    49  O   -0.488324
    50  N   -0.621308
    51  H    0.371684
    52  C   -0.081855
    53  H    0.169000
    54  C    0.597078
    55  C   -0.267560
    56  H    0.133702
    57  H    0.182689
    58  O   -0.569453
    59  C   -0.322922
    60  H    0.155484
    61  H    0.179640
    62  C   -0.148884
    63  H    0.184524
    64  H    0.185889
    65  N   -0.606270
    66  H    0.368895
    67  N   -0.757563
    68  H    0.384265
    69  H    0.400301
    70  N   -0.762594
    71  H    0.381988
    72  H    0.381164
    73  C    0.834389
    74  O   -0.615751
    75  H    0.501297
 Sum of Mulliken charges =   1.00000
 Mulliken charges with hydrogens summed into heavy atoms:
               1
     1  N   -0.060574
     4  C    0.099021
     6  C    0.644218
     7  C   -0.019638
    10  O   -0.541262
    11  C    0.632969
    12  N    0.009077
    15  O   -0.565916
    16  N   -0.263399
    18  C    0.182643
    20  C    0.660411
    21  C   -0.029853
    24  O   -0.095599
    25  C    0.156817
    26  C   -0.040405
    28  C   -0.068881
    30  C    0.029208
    32  C    0.029491
    34  C    0.032309
    36  N   -0.188214
    38  C    0.113920
    40  C    0.650286
    41  C    0.029508
    44  O   -0.589199
    45  C    0.582392
    46  N   -0.057541
    49  O   -0.488324
    50  N   -0.249624
    52  C    0.087145
    54  C    0.597078
    55  C    0.048831
    58  O   -0.569453
    59  C    0.012203
    62  C    0.221530
    65  N   -0.237375
    67  N    0.027003
    70  N    0.000559
    73  C    0.834389
    74  O   -0.615751
 Electronic spatial extent (au):  <R**2>=          33690.3588
 Charge=              1.0000 electrons
 Dipole moment (field-independent basis, Debye):
    X=            -18.9996    Y=             12.7908    Z=            -15.0585  Tot=             27.4107
 Quadrupole moment (field-independent basis, Debye-Ang):
   XX=           -241.8117   YY=           -178.3779   ZZ=            156.3327
   XY=              4.8116   XZ=            -89.7284   YZ=            -88.8835
 Traceless Quadrupole moment (field-independent basis, Debye-Ang):
   XX=           -153.8594   YY=            -90.4256   ZZ=            244.2850
   XY=              4.8116   XZ=            -89.7284   YZ=            -88.8835
 Octapole moment (field-independent basis, Debye-Ang**2):
  XXX=           -577.3026  YYY=           -692.5942  ZZZ=          -1779.1514  XYY=            156.4351
  XXY=           -148.9148  XXZ=            186.8020  XZZ=            445.2188  YZZ=            654.7649
  YYZ=           -118.5810  XYZ=           -290.5706
 Hexadecapole moment (field-independent basis, Debye-Ang**3):
 XXXX=         -19382.5028 YYYY=          -4578.1922 ZZZZ=          10098.9048 XXXY=           -593.2477
 XXXZ=           4798.1005 YYYX=            880.3389 YYYZ=           1264.5270 ZZZX=          -2857.9298
 ZZZY=          -5510.3837 XXYY=          -3329.0954 XXZZ=          -3849.0936 YYZZ=           -992.8764
 XXYZ=             84.1492 YYXZ=            321.9177 ZZXY=           2506.8403
 N-N= 4.484719688488D+03 E-N=-1.341475397221D+04  KE= 1.899584057311D+03
 Unable to Open any file for archive entry.
 1\1\GINC-AMR-243\SP\RB3LYP\6-31G(d)\C23H36N9O7(1+)\KENGMITH\07-Jun-202
 2\0\\# B3LYP/6-31G* guess=read geom=check nosymm integral(ultrafinegri
 d)\\Candidate Structure: Conf:234 Charge calc in gas phase\\1,1\N,0,-4
 .0090200288,-2.1207178353,3.6404338295\H,0,-3.1918072891,-2.7031942622
 ,3.4675475346\H,0,-4.4698491082,-2.4587382774,4.4819677047\C,0,-3.6071
 630209,-0.7301074206,3.7780987086\H,0,-4.5146289339,-0.1219139726,3.87
 69262932\C,0,-2.8616886743,-0.3638567418,2.4933169596\C,0,-2.670912044
 2,-0.4415887916,4.9939719232\H,0,-3.1152410643,-0.8932517484,5.8874407
 436\H,0,-1.7143397245,-0.9459840212,4.809322586\O,0,-1.8651490778,-0.9
 959463517,2.1433190525\C,0,-2.3893164958,1.0353862336,5.218849367\N,0,
 -2.5781279476,1.5055542479,6.4666070485\H,0,-2.8392378659,0.9098621443
 ,7.2384297808\H,0,-2.3494236303,2.472348019,6.6619344949\O,0,-2.024365
 3538,1.7992496446,4.3097741548\N,0,-3.2980409557,0.7215075181,1.806512
 6111\H,0,-4.1561420605,1.1877995964,2.0733674838\C,0,-2.5991297226,1.2
 161809416,0.6366181003\H,0,-2.7102740426,0.5130594415,-0.1975598725\C,
 0,-1.108535099,1.3406347894,0.9299486575\C,0,-3.1599862912,2.608962402
 3,0.2248022137\H,0,-2.887497231,3.3360559838,0.9982892413\H,0,-2.64573
 29388,2.909578981,-0.694771859\O,0,-0.6585182737,1.7066706799,2.093595
 4411\C,0,-4.661311856,2.6011149822,0.0238384663\C,0,-5.2321546364,1.98
 27672903,-1.098026516\H,0,-4.5909627044,1.5272165435,-1.8499081093\C,0
 ,-5.50663463,3.194764578,0.9714598975\H,0,-5.0769652751,3.704251982,1.
 8320667379\C,0,-6.6155024285,1.955858498,-1.2654725618\H,0,-7.04362783
 37,1.4776451409,-2.1417488611\C,0,-6.894009765,3.1685964781,0.80445147
 41\H,0,-7.5352955365,3.6419092563,1.5424295781\C,0,-7.4502316623,2.547
 0351971,-0.3129131979\H,0,-8.5277839291,2.5281051397,-0.4467328089\N,0
 ,-0.2538934909,1.1783865085,-0.0337194162\H,0,-0.5229040014,0.97959192
 11,-1.0127828275\C,0,1.2081631696,1.2663457111,0.0565060955\H,0,1.4816
 904911,2.1668367589,0.6132526628\C,0,1.6767977459,1.3682961106,-1.4213
 006764\C,0,1.8096486653,0.0265374884,0.7636230066\H,0,1.4716490012,0.0
 040622331,1.8042114338\H,0,2.8994802258,0.1399432653,0.7581633426\O,0,
 0.8394008492,1.1636308189,-2.3202072482\C,0,1.4865362181,-1.2752602357
 ,0.0199566949\N,0,0.5966737085,-2.1044902353,0.6401535821\H,0,0.318669
 308,-2.9307005879,0.126799285\H,0,-0.011892114,-1.7928859154,1.3856390
 869\O,0,2.0065057703,-1.5425891511,-1.0535360469\N,0,2.9619499102,1.66
 56037167,-1.5361454062\H,0,3.5779601038,1.695285108,-0.6836289875\C,0,
 3.8949696105,1.2409328004,-2.5806510849\H,0,3.6344856474,0.2194461716,
 -2.8867732341\C,0,5.3065700583,1.1624048262,-1.8228618109\C,0,3.999056
 1299,2.1406276991,-3.8082823734\H,0,3.9668641432,3.1933770056,-3.49615
 08081\H,0,5.0000546928,1.9436715362,-4.212121585\O,0,6.2876360002,0.99
 33649871,-2.5571014105\C,0,2.9370041717,1.8684772934,-4.8804566919\H,0
 ,2.9599236654,0.7986225659,-5.1331716231\H,0,1.9321605727,2.0879184476
 ,-4.5003125566\C,0,3.2259556561,2.6751063819,-6.1448872182\H,0,3.12645
 64257,3.7510903066,-5.95642084\H,0,4.2510844973,2.4687632219,-6.479453
 8395\N,0,2.2859065726,2.298876559,-7.2261986904\H,0,1.6424639629,1.545
 4221134,-7.0159362438\N,0,3.2486037584,3.6532439177,-8.8384758398\H,0,
 3.1590080189,4.1930987323,-9.6868906149\H,0,4.0145638763,3.8802924347,
 -8.2208152293\N,0,1.3240817682,2.4679507976,-9.3396258851\H,0,1.479295
 8474,2.5826882308,-10.3314459349\H,0,0.5831351998,1.8350258051,-9.0736
 704688\C,0,2.2913568771,2.7944686153,-8.456472212\O,0,5.2115472613,1.2
 853269223,-0.565930289\H,0,-1.3188455033,1.6813770259,2.860576915\\Ver
 sion=ES64L-G16RevC.01\HF=-1917.3089516\RMSD=9.058e-09\Dipole=-6.798297
 1,2.7880332,-4.7416137\Quadrupole=-114.3906814,-67.2292117,181.6198931
 ,3.5773149,-66.7108387,-66.0827167\PG=C01 [X(C23H36N9O7)]\\@
 The archive entry for this job was punched.


 Change starts when someone sees the next step.
                            -- William Drayton
 Job cpu time:       0 days  0 hours  2 minutes 22.6 seconds.
 Elapsed time:       0 days  0 hours  0 minutes 36.5 seconds.
 File lengths (MBytes):  RWF=    344 Int=      0 D2E=      0 Chk=     48 Scr=     16
 Normal termination of Gaussian 16 at Tue Jun  7 03:34:37 2022.
