 Entering Gaussian System, Link 0=/opt/software/Gaussian/g16-AVX2-C.01/g16/g16
 Input=charge-conf-669.com
 Output=charge-conf-669.log
 Initial command:
 /opt/software/Gaussian/g16-AVX2-C.01/g16/l1.exe "/mnt/gs21/scratch/kengmith/Gau-20099.inp" -scrdir="/mnt/gs21/scratch/kengmith/"
 Entering Link 1 = /opt/software/Gaussian/g16-AVX2-C.01/g16/l1.exe PID=     20122.
  
 Copyright (c) 1988-2019, Gaussian, Inc.  All Rights Reserved.
  
 This is part of the Gaussian(R) 16 program.  It is based on
 the Gaussian(R) 09 system (copyright 2009, Gaussian, Inc.),
 the Gaussian(R) 03 system (copyright 2003, Gaussian, Inc.),
 the Gaussian(R) 98 system (copyright 1998, Gaussian, Inc.),
 the Gaussian(R) 94 system (copyright 1995, Gaussian, Inc.),
 the Gaussian 92(TM) system (copyright 1992, Gaussian, Inc.),
 the Gaussian 90(TM) system (copyright 1990, Gaussian, Inc.),
 the Gaussian 88(TM) system (copyright 1988, Gaussian, Inc.),
 the Gaussian 86(TM) system (copyright 1986, Carnegie Mellon
 University), and the Gaussian 82(TM) system (copyright 1983,
 Carnegie Mellon University). Gaussian is a federally registered
 trademark of Gaussian, Inc.
  
 This software contains proprietary and confidential information,
 including trade secrets, belonging to Gaussian, Inc.
  
 This software is provided under written license and may be
 used, copied, transmitted, or stored only in accord with that
 written license.
  
 The following legend is applicable only to US Government
 contracts under FAR:
  
                    RESTRICTED RIGHTS LEGEND
  
 Use, reproduction and disclosure by the US Government is
 subject to restrictions as set forth in subparagraphs (a)
 and (c) of the Commercial Computer Software - Restricted
 Rights clause in FAR 52.227-19.
  
 Gaussian, Inc.
 340 Quinnipiac St., Bldg. 40, Wallingford CT 06492
  
  
 ---------------------------------------------------------------
 Warning -- This program may not be used in any manner that
 competes with the business of Gaussian, Inc. or will provide
 assistance to any competitor of Gaussian, Inc.  The licensee
 of this program is prohibited from giving any competitor of
 Gaussian, Inc. access to this program.  By using this program,
 the user acknowledges that Gaussian, Inc. is engaged in the
 business of creating and licensing software in the field of
 computational chemistry and represents and warrants to the
 licensee that it is not a competitor of Gaussian, Inc. and that
 it will not use this program in any manner prohibited above.
 ---------------------------------------------------------------
  

 Cite this work as:
 Gaussian 16, Revision C.01,
 M. J. Frisch, G. W. Trucks, H. B. Schlegel, G. E. Scuseria, 
 M. A. Robb, J. R. Cheeseman, G. Scalmani, V. Barone, 
 G. A. Petersson, H. Nakatsuji, X. Li, M. Caricato, A. V. Marenich, 
 J. Bloino, B. G. Janesko, R. Gomperts, B. Mennucci, H. P. Hratchian, 
 J. V. Ortiz, A. F. Izmaylov, J. L. Sonnenberg, D. Williams-Young, 
 F. Ding, F. Lipparini, F. Egidi, J. Goings, B. Peng, A. Petrone, 
 T. Henderson, D. Ranasinghe, V. G. Zakrzewski, J. Gao, N. Rega, 
 G. Zheng, W. Liang, M. Hada, M. Ehara, K. Toyota, R. Fukuda, 
 J. Hasegawa, M. Ishida, T. Nakajima, Y. Honda, O. Kitao, H. Nakai, 
 T. Vreven, K. Throssell, J. A. Montgomery, Jr., J. E. Peralta, 
 F. Ogliaro, M. J. Bearpark, J. J. Heyd, E. N. Brothers, K. N. Kudin, 
 V. N. Staroverov, T. A. Keith, R. Kobayashi, J. Normand, 
 K. Raghavachari, A. P. Rendell, J. C. Burant, S. S. Iyengar, 
 J. Tomasi, M. Cossi, J. M. Millam, M. Klene, C. Adamo, R. Cammi, 
 J. W. Ochterski, R. L. Martin, K. Morokuma, O. Farkas, 
 J. B. Foresman, and D. J. Fox, Gaussian, Inc., Wallingford CT, 2019.
 
 ******************************************
 Gaussian 16:  ES64L-G16RevC.01  3-Jul-2019
                 7-Aug-2022 
 ******************************************
 %mem=8gb
 %nproc=4
 Will use up to    4 processors via shared memory.
 %chk=conf-669.chk
 ----------------------------------------------------------------------
 # B3LYP/6-31G* empiricaldispersion=gd3 guess=read geom=check nosymm in
 tegral(ultrafinegrid)
 ----------------------------------------------------------------------
 1/29=2,38=1,172=1/1;
 2/12=2,15=1,40=1/2;
 3/5=1,6=6,7=1,11=2,14=-4,25=1,30=1,74=-5,75=-5,116=-2,124=31/1,2,3;
 4/5=1/1;
 5/5=2,38=6/2;
 6/7=2,8=2,9=2,10=2,28=1/1;
 99/5=1,9=1/99;
 ------------------------------------------------------
 Candidate Structure: Conf:669 Charge calc in gas phase
 ------------------------------------------------------
 Structure from the checkpoint file:  "conf-669.chk"
 Charge =  1 Multiplicity = 1
 Redundant internal coordinates found in file.  (old form).
 N,0,-2.8418746496,-4.7570258471,9.0591630718
 H,0,-3.2140462094,-5.6770964372,9.3040399096
 H,0,-2.5973745325,-4.2408180233,9.9123202856
 H,0,-2.0183560376,-4.9037447743,8.4495998483
 C,0,-3.7911178053,-3.9672638971,8.2218151797
 H,0,-4.8134518121,-4.2030309845,8.5278748334
 C,0,-3.5029645033,-4.3700030582,6.7779327882
 C,0,-3.5309208325,-2.46074961,8.4344251054
 H,0,-4.2100862704,-1.9105635173,7.7762069443
 H,0,-2.5086925201,-2.240817331,8.1084358556
 O,0,-2.4019845099,-4.8436665284,6.4864903659
 C,0,-3.7212239618,-2.0681164593,9.8775444242
 C,0,-5.0014752163,-2.0492152393,10.4427122122
 H,0,-5.863477285,-2.2646993879,9.8179884654
 C,0,-2.6196625464,-1.7916111174,10.6925081932
 H,0,-1.6198411981,-1.7975834069,10.2648420342
 C,0,-5.1761108783,-1.7414543044,11.7896682981
 H,0,-6.1764655972,-1.7186760564,12.2094214993
 C,0,-2.790855586,-1.4903805001,12.0438616068
 H,0,-1.925473244,-1.2705044529,12.6598698466
 C,0,-4.0712491797,-1.4640064304,12.5948057
 H,0,-4.2083136867,-1.2236429287,13.6437360777
 N,0,-4.4998108303,-4.1261510955,5.8970478265
 H,0,-5.2539694117,-3.5169474054,6.1940029437
 C,0,-4.2659481785,-4.0168062215,4.4620385193
 H,0,-3.2207877304,-4.2786643108,4.2878191781
 C,0,-4.5377804368,-2.5439150812,4.0963237467
 C,0,-5.2003661713,-4.9317410984,3.6710148475
 H,0,-5.0151982573,-4.8296443719,2.5967768492
 H,0,-6.2430595588,-4.6623775508,3.860705814
 H,0,-5.0512629947,-5.9740984815,3.9628004707
 O,0,-5.3759635582,-1.8988212758,4.7172579434
 N,0,-3.8326930099,-2.0517334083,3.0624994184
 H,0,-3.1610625003,-2.5995611244,2.5410434578
 C,0,-4.0044163282,-0.6939938888,2.583083834
 H,0,-5.0723577597,-0.5068041684,2.4289482357
 C,0,-3.2553171033,-0.6080362209,1.2445309729
 C,0,-3.4597712054,0.3335346065,3.5846320842
 H,0,-3.6122588077,1.350767631,3.2146908689
 H,0,-2.3874595059,0.1849255853,3.7459372732
 H,0,-3.9807902937,0.2234445659,4.5353294371
 O,0,-2.4988261695,-1.5187225743,0.8788411507
 N,0,-3.4457398404,0.5338043871,0.5751646747
 H,0,-4.1909564266,1.1485517142,0.8718777617
 C,0,-2.7720152441,0.9112675765,-0.6684672482
 H,0,-2.831461159,0.0561676761,-1.3466376988
 C,0,-1.3065857587,1.2457201135,-0.3455442836
 C,0,-3.5306575591,2.1042996323,-1.2813243841
 H,0,-3.4006477602,2.9634417626,-0.619445913
 H,0,-3.0491897412,2.3591318967,-2.2301394167
 O,0,-0.9324593783,2.366804026,-0.0187624395
 C,0,-4.9757947253,1.7705738573,-1.4337407612
 C,0,-5.4057980911,0.8408600341,-2.4018890833
 H,0,-4.6698181745,0.429677322,-3.0925314386
 C,0,-5.9338868908,2.2934544499,-0.5410594065
 H,0,-5.6137800022,3.0234583931,0.2031004659
 C,0,-6.7154699989,0.4379143405,-2.4867946588
 H,0,-7.0428067182,-0.2777139244,-3.2338202758
 C,0,-7.2529438636,1.9094709268,-0.5833712724
 H,0,-7.985593844,2.3126243237,0.1075711928
 O,0,-8.9098267076,0.5697330436,-1.6123417974
 C,0,-7.7268459947,0.9426351151,-1.5644416799
 N,0,-0.476655437,0.1738678904,-0.4370984245
 H,0,-0.8864328928,-0.7400980703,-0.5717289926
 C,0,0.9148258071,0.1951632019,-0.0571762121
 H,0,1.1877340591,1.2289921272,0.1588071092
 C,0,1.7732754397,-0.3385642956,-1.2099908868
 C,0,1.158932063,-0.6948513964,1.1747396182
 H,0,0.9695435778,-1.7247003444,0.8655078373
 H,0,2.2189246872,-0.6319403251,1.4516056486
 O,0,1.4202674608,-1.3162203576,-1.8688446844
 C,0,0.2986935628,-0.3714387749,2.4034244295
 H,0,-0.7454534723,-0.49824119,2.111864448
 C,0,0.5852082509,-1.3772164054,3.5215727004
 H,0,1.6315307779,-1.3317972282,3.8379102728
 H,0,-0.0398915071,-1.1764107735,4.398011849
 H,0,0.3720050014,-2.4060065079,3.1994901364
 C,0,0.509121868,1.0615450899,2.8919337658
 H,0,1.5360618695,1.1983443718,3.2491778378
 H,0,0.3148989315,1.7924112123,2.1043351508
 H,0,-0.1678981598,1.2898014175,3.7224779059
 N,0,2.9617580755,0.2936680572,-1.4028890379
 H,0,3.3066793715,0.8414062461,-0.6274488366
 C,0,3.9778329335,-0.2517149419,-2.2960541412
 H,0,3.4611478362,-0.5082092477,-3.22345944
 C,0,4.5939920986,-1.5223735083,-1.6840375773
 C,0,5.0670486951,0.7942884969,-2.53926747
 H,0,5.5831316746,0.9778743589,-1.5927388883
 H,0,5.804209757,0.3719260041,-3.2275181194
 O,0,5.1140104942,-1.5272691775,-0.5752414201
 C,0,4.5360027443,2.1134102961,-3.1177866064
 H,0,5.3766022261,2.790452544,-3.2975836742
 H,0,3.8415889417,2.5988412665,-2.4291322792
 C,0,3.8065099313,1.8897096444,-4.4182137064
 O,0,2.6281332163,2.0705871262,-4.6100338399
 O,0,4.6391964667,1.411397616,-5.3769934201
 N,0,4.4595792745,-2.6260024598,-2.4621294745
 H,0,3.9701752275,-2.5352295763,-3.339559309
 C,0,4.7504219819,-3.9756252654,-2.02041585
 H,0,5.4841157519,-3.927797171,-1.2133695184
 C,0,5.3566990875,-4.801001227,-3.1447276106
 C,0,3.4653376839,-4.6756064079,-1.5340458177
 H,0,3.6620952272,-5.7313697115,-1.3253981749
 H,0,2.7590743465,-4.6329557261,-2.3724153665
 O,0,6.1310904306,-5.7082860185,-2.9835624499
 C,0,2.919157822,-3.9864744246,-0.2917459005
 H,0,2.7122491982,-2.940901258,-0.5122396019
 H,0,3.6835572264,-4.0120668924,0.4881873904
 C,0,1.6084537341,-4.5613718351,0.2293712405
 H,0,1.4016116529,-4.1023940345,1.19864712
 H,0,1.631687198,-5.6496996903,0.3587636301
 N,0,0.5347282637,-4.141319303,-0.6865806475
 H,0,0.8010394231,-4.0568080693,-1.657199619
 N,0,-1.1916775752,-4.7092339401,0.7597876115
 H,0,-2.1332385689,-4.4932296163,1.0536391442
 H,0,-0.5163875002,-4.7902557452,1.5056167051
 N,0,-1.6581549878,-3.9575148457,-1.4063287472
 H,0,-2.6290948162,-3.8547978952,-1.1492653178
 H,0,-1.3568480379,-3.3409039676,-2.1508188694
 C,0,-0.765708031,-4.2626884341,-0.4387264309
 O,0,4.8621989351,-4.4458214991,-4.3558628571
 H,0,4.1014668859,1.2981299105,-6.176737765
 H,0,5.2731117583,-5.0309709242,-5.0126375407
 Recover connectivity data from disk.
                           ----------------------------
                           !    Current Parameters    !
                           ! (Angstroms and Degrees)  !
 --------------------------                            --------------------------
 ! Name  Definition              Value                                          !
 --------------------------------------------------------------------------------
 ! R1    R(1,2)                  1.0223                                         !
 ! R2    R(1,3)                  1.0267                                         !
 ! R3    R(1,4)                  1.035                                          !
 ! R4    R(1,5)                  1.492                                          !
 ! R5    R(5,6)                  1.0929                                         !
 ! R6    R(5,7)                  1.5264                                         !
 ! R7    R(5,8)                  1.5435                                         !
 ! R8    R(7,11)                 1.2335                                         !
 ! R9    R(7,23)                 1.3525                                         !
 ! R10   R(8,9)                  1.0942                                         !
 ! R11   R(8,10)                 1.0953                                         !
 ! R12   R(8,12)                 1.5076                                         !
 ! R13   R(12,13)                1.3996                                         !
 ! R14   R(12,15)                1.3979                                         !
 ! R15   R(13,14)                1.0862                                         !
 ! R16   R(13,17)                1.3927                                         !
 ! R17   R(15,16)                1.0875                                         !
 ! R18   R(15,19)                1.3951                                         !
 ! R19   R(17,18)                1.0851                                         !
 ! R20   R(17,21)                1.395                                          !
 ! R21   R(19,20)                1.0848                                         !
 ! R22   R(19,21)                1.3941                                         !
 ! R23   R(21,22)                1.0848                                         !
 ! R24   R(23,24)                1.0139                                         !
 ! R25   R(23,25)                1.458                                          !
 ! R26   R(25,26)                1.0915                                         !
 ! R27   R(25,27)                1.5418                                         !
 ! R28   R(25,28)                1.5284                                         !
 ! R29   R(27,32)                1.2265                                         !
 ! R30   R(27,33)                1.3447                                         !
 ! R31   R(28,29)                1.0949                                         !
 ! R32   R(28,30)                1.0935                                         !
 ! R33   R(28,31)                1.0926                                         !
 ! R34   R(33,34)                1.0115                                         !
 ! R35   R(33,35)                1.4501                                         !
 ! R36   R(35,36)                1.0951                                         !
 ! R37   R(35,37)                1.5363                                         !
 ! R38   R(35,38)                1.5348                                         !
 ! R39   R(37,42)                1.2391                                         !
 ! R40   R(37,43)                1.3372                                         !
 ! R41   R(38,39)                1.0931                                         !
 ! R42   R(38,40)                1.0945                                         !
 ! R43   R(38,41)                1.0897                                         !
 ! R44   R(43,44)                1.0106                                         !
 ! R45   R(43,45)                1.4639                                         !
 ! R46   R(45,46)                1.093                                          !
 ! R47   R(45,47)                1.5374                                         !
 ! R48   R(45,48)                1.5409                                         !
 ! R49   R(47,51)                1.2262                                         !
 ! R50   R(47,63)                1.3587                                         !
 ! R51   R(48,49)                1.0923                                         !
 ! R52   R(48,50)                1.0941                                         !
 ! R53   R(48,52)                1.491                                          !
 ! R54   R(52,53)                1.4095                                         !
 ! R55   R(52,55)                1.41                                           !
 ! R56   R(53,54)                1.0898                                         !
 ! R57   R(53,57)                1.3729                                         !
 ! R58   R(55,56)                1.0905                                         !
 ! R59   R(55,59)                1.3745                                         !
 ! R60   R(57,58)                1.085                                          !
 ! R61   R(57,62)                1.4589                                         !
 ! R62   R(59,60)                1.0848                                         !
 ! R63   R(59,62)                1.4567                                         !
 ! R64   R(61,62)                1.2413                                         !
 ! R65   R(63,64)                1.0106                                         !
 ! R66   R(63,65)                1.4426                                         !
 ! R67   R(65,66)                1.0908                                         !
 ! R68   R(65,67)                1.5332                                         !
 ! R69   R(65,68)                1.5393                                         !
 ! R70   R(67,71)                1.2307                                         !
 ! R71   R(67,82)                1.3599                                         !
 ! R72   R(68,69)                1.0918                                         !
 ! R73   R(68,70)                1.0974                                         !
 ! R74   R(68,72)                1.5344                                         !
 ! R75   R(72,73)                1.0915                                         !
 ! R76   R(72,74)                1.531                                          !
 ! R77   R(72,78)                1.5285                                         !
 ! R78   R(74,75)                1.094                                          !
 ! R79   R(74,76)                1.0951                                         !
 ! R80   R(74,77)                1.0989                                         !
 ! R81   R(78,79)                1.0959                                         !
 ! R82   R(78,80)                1.0919                                         !
 ! R83   R(78,81)                1.0956                                         !
 ! R84   R(82,83)                1.0101                                         !
 ! R85   R(82,84)                1.4586                                         !
 ! R86   R(84,85)                1.0922                                         !
 ! R87   R(84,86)                1.5391                                         !
 ! R88   R(84,87)                1.5296                                         !
 ! R89   R(86,90)                1.2247                                         !
 ! R90   R(86,97)                1.357                                          !
 ! R91   R(87,88)                1.0936                                         !
 ! R92   R(87,89)                1.0934                                         !
 ! R93   R(87,91)                1.5352                                         !
 ! R94   R(91,92)                1.0942                                         !
 ! R95   R(91,93)                1.0918                                         !
 ! R96   R(91,94)                1.5078                                         !
 ! R97   R(94,95)                1.2075                                         !
 ! R98   R(94,96)                1.357                                          !
 ! R99   R(96,122)               0.9703                                         !
 ! R100  R(97,98)                1.0088                                         !
 ! R101  R(97,99)                1.4495                                         !
 ! R102  R(99,100)               1.0917                                         !
 ! R103  R(99,101)               1.5208                                         !
 ! R104  R(99,102)               1.5421                                         !
 ! R105  R(101,105)              1.2037                                         !
 ! R106  R(101,121)              1.3556                                         !
 ! R107  R(102,103)              1.094                                          !
 ! R108  R(102,104)              1.097                                          !
 ! R109  R(102,106)              1.522                                          !
 ! R110  R(106,107)              1.0884                                         !
 ! R111  R(106,108)              1.0924                                         !
 ! R112  R(106,109)              1.5232                                         !
 ! R113  R(109,110)              1.0922                                         !
 ! R114  R(109,111)              1.0962                                         !
 ! R115  R(109,112)              1.4725                                         !
 ! R116  R(112,113)              1.01                                           !
 ! R117  R(112,120)              1.3294                                         !
 ! R118  R(114,115)              1.0097                                         !
 ! R119  R(114,116)              1.0094                                         !
 ! R120  R(114,120)              1.3481                                         !
 ! R121  R(117,118)              1.0096                                         !
 ! R122  R(117,119)              1.0126                                         !
 ! R123  R(117,120)              1.3512                                         !
 ! R124  R(121,123)              0.9709                                         !
 ! A1    A(2,1,3)              109.8871                                         !
 ! A2    A(2,1,4)              107.6478                                         !
 ! A3    A(2,1,5)              112.2866                                         !
 ! A4    A(3,1,4)              111.7884                                         !
 ! A5    A(3,1,5)              110.5938                                         !
 ! A6    A(4,1,5)              104.5205                                         !
 ! A7    A(1,5,6)              108.8925                                         !
 ! A8    A(1,5,7)              105.7307                                         !
 ! A9    A(1,5,8)              109.3958                                         !
 ! A10   A(6,5,7)              112.6168                                         !
 ! A11   A(6,5,8)              109.2486                                         !
 ! A12   A(7,5,8)              110.8538                                         !
 ! A13   A(5,7,11)             119.5586                                         !
 ! A14   A(5,7,23)             115.4286                                         !
 ! A15   A(11,7,23)            124.9764                                         !
 ! A16   A(5,8,9)              107.6545                                         !
 ! A17   A(5,8,10)             108.1993                                         !
 ! A18   A(5,8,12)             111.3924                                         !
 ! A19   A(9,8,10)             107.4158                                         !
 ! A20   A(9,8,12)             111.5011                                         !
 ! A21   A(10,8,12)            110.5127                                         !
 ! A22   A(8,12,13)            120.3655                                         !
 ! A23   A(8,12,15)            120.6703                                         !
 ! A24   A(13,12,15)           118.8648                                         !
 ! A25   A(12,13,14)           119.4075                                         !
 ! A26   A(12,13,17)           120.5474                                         !
 ! A27   A(14,13,17)           120.0405                                         !
 ! A28   A(12,15,16)           119.6139                                         !
 ! A29   A(12,15,19)           120.7134                                         !
 ! A30   A(16,15,19)           119.6669                                         !
 ! A31   A(13,17,18)           119.6292                                         !
 ! A32   A(13,17,21)           120.1896                                         !
 ! A33   A(18,17,21)           120.1811                                         !
 ! A34   A(15,19,20)           119.7327                                         !
 ! A35   A(15,19,21)           119.9727                                         !
 ! A36   A(20,19,21)           120.2931                                         !
 ! A37   A(17,21,19)           119.7065                                         !
 ! A38   A(17,21,22)           120.1375                                         !
 ! A39   A(19,21,22)           120.1552                                         !
 ! A40   A(7,23,24)            117.7621                                         !
 ! A41   A(7,23,25)            122.4344                                         !
 ! A42   A(24,23,25)           111.2531                                         !
 ! A43   A(23,25,26)           107.0195                                         !
 ! A44   A(23,25,27)           106.0706                                         !
 ! A45   A(23,25,28)           111.4952                                         !
 ! A46   A(26,25,27)           111.1105                                         !
 ! A47   A(26,25,28)           111.0516                                         !
 ! A48   A(27,25,28)           109.9577                                         !
 ! A49   A(25,27,32)           120.1905                                         !
 ! A50   A(25,27,33)           116.0775                                         !
 ! A51   A(32,27,33)           123.7149                                         !
 ! A52   A(25,28,29)           110.401                                          !
 ! A53   A(25,28,30)           110.2262                                         !
 ! A54   A(25,28,31)           110.4529                                         !
 ! A55   A(29,28,30)           107.969                                          !
 ! A56   A(29,28,31)           109.1412                                         !
 ! A57   A(30,28,31)           108.5897                                         !
 ! A58   A(27,33,34)           123.1123                                         !
 ! A59   A(27,33,35)           122.3298                                         !
 ! A60   A(34,33,35)           114.5382                                         !
 ! A61   A(33,35,36)           108.7874                                         !
 ! A62   A(33,35,37)           106.4212                                         !
 ! A63   A(33,35,38)           111.6592                                         !
 ! A64   A(36,35,37)           110.078                                          !
 ! A65   A(36,35,38)           108.8729                                         !
 ! A66   A(37,35,38)           110.982                                          !
 ! A67   A(35,37,42)           120.9107                                         !
 ! A68   A(35,37,43)           114.4864                                         !
 ! A69   A(42,37,43)           124.5269                                         !
 ! A70   A(35,38,39)           110.6509                                         !
 ! A71   A(35,38,40)           110.6674                                         !
 ! A72   A(35,38,41)           109.3914                                         !
 ! A73   A(39,38,40)           108.2341                                         !
 ! A74   A(39,38,41)           108.8193                                         !
 ! A75   A(40,38,41)           109.0349                                         !
 ! A76   A(37,43,44)           118.5204                                         !
 ! A77   A(37,43,45)           125.4429                                         !
 ! A78   A(44,43,45)           115.5913                                         !
 ! A79   A(43,45,46)           107.4788                                         !
 ! A80   A(43,45,47)           108.4413                                         !
 ! A81   A(43,45,48)           108.1151                                         !
 ! A82   A(46,45,47)           110.6318                                         !
 ! A83   A(46,45,48)           109.4002                                         !
 ! A84   A(47,45,48)           112.6058                                         !
 ! A85   A(45,47,51)           123.072                                          !
 ! A86   A(45,47,63)           113.3573                                         !
 ! A87   A(51,47,63)           123.5623                                         !
 ! A88   A(45,48,49)           108.0213                                         !
 ! A89   A(45,48,50)           107.9743                                         !
 ! A90   A(45,48,52)           110.1544                                         !
 ! A91   A(49,48,50)           106.853                                          !
 ! A92   A(49,48,52)           110.693                                          !
 ! A93   A(50,48,52)           112.9557                                         !
 ! A94   A(48,52,53)           120.9015                                         !
 ! A95   A(48,52,55)           120.7215                                         !
 ! A96   A(53,52,55)           118.1753                                         !
 ! A97   A(52,53,54)           118.5638                                         !
 ! A98   A(52,53,57)           121.8109                                         !
 ! A99   A(54,53,57)           119.6233                                         !
 ! A100  A(52,55,56)           118.7385                                         !
 ! A101  A(52,55,59)           121.9379                                         !
 ! A102  A(56,55,59)           119.3236                                         !
 ! A103  A(53,57,58)           121.5972                                         !
 ! A104  A(53,57,62)           121.3785                                         !
 ! A105  A(58,57,62)           117.0205                                         !
 ! A106  A(55,59,60)           121.6507                                         !
 ! A107  A(55,59,62)           121.2238                                         !
 ! A108  A(60,59,62)           117.1254                                         !
 ! A109  A(57,62,59)           115.4612                                         !
 ! A110  A(57,62,61)           122.1649                                         !
 ! A111  A(59,62,61)           122.3737                                         !
 ! A112  A(47,63,64)           118.3422                                         !
 ! A113  A(47,63,65)           124.0424                                         !
 ! A114  A(64,63,65)           116.0746                                         !
 ! A115  A(63,65,66)           107.9061                                         !
 ! A116  A(63,65,67)           109.6886                                         !
 ! A117  A(63,65,68)           110.8065                                         !
 ! A118  A(66,65,67)           109.7983                                         !
 ! A119  A(66,65,68)           110.4782                                         !
 ! A120  A(67,65,68)           108.1609                                         !
 ! A121  A(65,67,71)           121.2301                                         !
 ! A122  A(65,67,82)           115.7297                                         !
 ! A123  A(71,67,82)           122.961                                          !
 ! A124  A(65,68,69)           106.9302                                         !
 ! A125  A(65,68,70)           108.7817                                         !
 ! A126  A(65,68,72)           115.4739                                         !
 ! A127  A(69,68,70)           107.0429                                         !
 ! A128  A(69,68,72)           109.1696                                         !
 ! A129  A(70,68,72)           109.1132                                         !
 ! A130  A(68,72,73)           107.334                                          !
 ! A131  A(68,72,74)           109.9652                                         !
 ! A132  A(68,72,78)           112.1077                                         !
 ! A133  A(73,72,74)           107.3254                                         !
 ! A134  A(73,72,78)           109.0252                                         !
 ! A135  A(74,72,78)           110.8981                                         !
 ! A136  A(72,74,75)           111.2774                                         !
 ! A137  A(72,74,76)           110.9302                                         !
 ! A138  A(72,74,77)           111.3867                                         !
 ! A139  A(75,74,76)           107.8724                                         !
 ! A140  A(75,74,77)           108.0089                                         !
 ! A141  A(76,74,77)           107.1872                                         !
 ! A142  A(72,78,79)           110.5009                                         !
 ! A143  A(72,78,80)           111.8704                                         !
 ! A144  A(72,78,81)           110.6425                                         !
 ! A145  A(79,78,80)           108.5587                                         !
 ! A146  A(79,78,81)           107.8155                                         !
 ! A147  A(80,78,81)           107.3046                                         !
 ! A148  A(67,82,83)           116.2079                                         !
 ! A149  A(67,82,84)           121.4533                                         !
 ! A150  A(83,82,84)           115.783                                          !
 ! A151  A(82,84,85)           106.154                                          !
 ! A152  A(82,84,86)           110.1252                                         !
 ! A153  A(82,84,87)           109.7378                                         !
 ! A154  A(85,84,86)           109.461                                          !
 ! A155  A(85,84,87)           111.2514                                         !
 ! A156  A(86,84,87)           110.0429                                         !
 ! A157  A(84,86,90)           122.2292                                         !
 ! A158  A(84,86,97)           113.8144                                         !
 ! A159  A(90,86,97)           123.9128                                         !
 ! A160  A(84,87,88)           108.2536                                         !
 ! A161  A(84,87,89)           108.4225                                         !
 ! A162  A(84,87,91)           113.6528                                         !
 ! A163  A(88,87,89)           106.9477                                         !
 ! A164  A(88,87,91)           110.1914                                         !
 ! A165  A(89,87,91)           109.1433                                         !
 ! A166  A(87,91,92)           109.1379                                         !
 ! A167  A(87,91,93)           111.3676                                         !
 ! A168  A(87,91,94)           111.4016                                         !
 ! A169  A(92,91,93)           108.4898                                         !
 ! A170  A(92,91,94)           108.7697                                         !
 ! A171  A(93,91,94)           107.5927                                         !
 ! A172  A(91,94,95)           125.9403                                         !
 ! A173  A(91,94,96)           111.3954                                         !
 ! A174  A(95,94,96)           122.6417                                         !
 ! A175  A(94,96,122)          106.4646                                         !
 ! A176  A(86,97,98)           118.2681                                         !
 ! A177  A(86,97,99)           124.2369                                         !
 ! A178  A(98,97,99)           116.4982                                         !
 ! A179  A(97,99,100)          108.6213                                         !
 ! A180  A(97,99,101)          111.1012                                         !
 ! A181  A(97,99,102)          110.5814                                         !
 ! A182  A(100,99,101)         107.5994                                         !
 ! A183  A(100,99,102)         110.2902                                         !
 ! A184  A(101,99,102)         108.6045                                         !
 ! A185  A(99,101,105)         124.5115                                         !
 ! A186  A(99,101,121)         111.8939                                         !
 ! A187  A(105,101,121)        123.4922                                         !
 ! A188  A(99,102,103)         110.3849                                         !
 ! A189  A(99,102,104)         106.1303                                         !
 ! A190  A(99,102,106)         110.5462                                         !
 ! A191  A(103,102,104)        107.4006                                         !
 ! A192  A(103,102,106)        110.2316                                         !
 ! A193  A(104,102,106)        112.0328                                         !
 ! A194  A(102,106,107)        109.7441                                         !
 ! A195  A(102,106,108)        108.7264                                         !
 ! A196  A(102,106,109)        114.6553                                         !
 ! A197  A(107,106,108)        107.468                                          !
 ! A198  A(107,106,109)        105.5634                                         !
 ! A199  A(108,106,109)        110.4287                                         !
 ! A200  A(106,109,110)        107.9371                                         !
 ! A201  A(106,109,111)        113.3819                                         !
 ! A202  A(106,109,112)        107.8777                                         !
 ! A203  A(110,109,111)        108.4489                                         !
 ! A204  A(110,109,112)        107.1006                                         !
 ! A205  A(111,109,112)        111.8438                                         !
 ! A206  A(109,112,113)        115.4275                                         !
 ! A207  A(109,112,120)        124.8393                                         !
 ! A208  A(113,112,120)        116.4059                                         !
 ! A209  A(115,114,116)        115.2133                                         !
 ! A210  A(115,114,120)        118.8506                                         !
 ! A211  A(116,114,120)        118.1718                                         !
 ! A212  A(118,117,119)        114.294                                          !
 ! A213  A(118,117,120)        118.412                                          !
 ! A214  A(119,117,120)        117.8726                                         !
 ! A215  A(112,120,114)        120.338                                          !
 ! A216  A(112,120,117)        119.4689                                         !
 ! A217  A(114,120,117)        120.1826                                         !
 ! A218  A(101,121,123)        106.9831                                         !
 ! D1    D(2,1,5,6)             34.1375                                         !
 ! D2    D(2,1,5,7)            -87.1058                                         !
 ! D3    D(2,1,5,8)            153.4711                                         !
 ! D4    D(3,1,5,6)            -89.0056                                         !
 ! D5    D(3,1,5,7)            149.7511                                         !
 ! D6    D(3,1,5,8)             30.328                                          !
 ! D7    D(4,1,5,6)            150.5355                                         !
 ! D8    D(4,1,5,7)             29.2922                                         !
 ! D9    D(4,1,5,8)            -90.1309                                         !
 ! D10   D(1,5,7,11)           -22.7191                                         !
 ! D11   D(1,5,7,23)           159.3659                                         !
 ! D12   D(6,5,7,11)          -141.5195                                         !
 ! D13   D(6,5,7,23)            40.5654                                         !
 ! D14   D(8,5,7,11)            95.7378                                         !
 ! D15   D(8,5,7,23)           -82.1773                                         !
 ! D16   D(1,5,8,9)            177.5474                                         !
 ! D17   D(1,5,8,10)            61.7448                                         !
 ! D18   D(1,5,8,12)           -59.9204                                         !
 ! D19   D(6,5,8,9)            -63.339                                          !
 ! D20   D(6,5,8,10)          -179.1417                                         !
 ! D21   D(6,5,8,12)            59.1932                                         !
 ! D22   D(7,5,8,9)             61.3353                                         !
 ! D23   D(7,5,8,10)           -54.4673                                         !
 ! D24   D(7,5,8,12)          -176.1325                                         !
 ! D25   D(5,7,23,24)           13.8359                                         !
 ! D26   D(5,7,23,25)          158.9065                                         !
 ! D27   D(11,7,23,24)        -163.9506                                         !
 ! D28   D(11,7,23,25)         -18.88                                           !
 ! D29   D(5,8,12,13)          -70.3779                                         !
 ! D30   D(5,8,12,15)          105.9551                                         !
 ! D31   D(9,8,12,13)           49.9136                                         !
 ! D32   D(9,8,12,15)         -133.7533                                         !
 ! D33   D(10,8,12,13)         169.3102                                         !
 ! D34   D(10,8,12,15)         -14.3567                                         !
 ! D35   D(8,12,13,14)          -3.4814                                         !
 ! D36   D(8,12,13,17)         177.3033                                         !
 ! D37   D(15,12,13,14)       -179.88                                           !
 ! D38   D(15,12,13,17)          0.9047                                         !
 ! D39   D(8,12,15,16)           3.9489                                         !
 ! D40   D(8,12,15,19)        -176.9291                                         !
 ! D41   D(13,12,15,16)       -179.6638                                         !
 ! D42   D(13,12,15,19)         -0.5418                                         !
 ! D43   D(12,13,17,18)        179.2198                                         !
 ! D44   D(12,13,17,21)         -0.7803                                         !
 ! D45   D(14,13,17,18)          0.0094                                         !
 ! D46   D(14,13,17,21)       -179.9906                                         !
 ! D47   D(12,15,19,20)       -179.51                                           !
 ! D48   D(12,15,19,21)          0.0525                                         !
 ! D49   D(16,15,19,20)         -0.3884                                         !
 ! D50   D(16,15,19,21)        179.174                                          !
 ! D51   D(13,17,21,19)          0.2775                                         !
 ! D52   D(13,17,21,22)        179.9538                                         !
 ! D53   D(18,17,21,19)       -179.7226                                         !
 ! D54   D(18,17,21,22)         -0.0463                                         !
 ! D55   D(15,19,21,17)          0.0843                                         !
 ! D56   D(15,19,21,22)       -179.592                                          !
 ! D57   D(20,19,21,17)        179.6442                                         !
 ! D58   D(20,19,21,22)         -0.032                                          !
 ! D59   D(7,23,25,26)           6.3592                                         !
 ! D60   D(7,23,25,27)        -112.3369                                         !
 ! D61   D(7,23,25,28)         127.9796                                         !
 ! D62   D(24,23,25,26)        153.428                                          !
 ! D63   D(24,23,25,27)         34.7319                                         !
 ! D64   D(24,23,25,28)        -84.9516                                         !
 ! D65   D(23,25,27,32)        -31.5707                                         !
 ! D66   D(23,25,27,33)        149.8771                                         !
 ! D67   D(26,25,27,32)       -147.5302                                         !
 ! D68   D(26,25,27,33)         33.9177                                         !
 ! D69   D(28,25,27,32)         89.113                                          !
 ! D70   D(28,25,27,33)        -89.4391                                         !
 ! D71   D(23,25,28,29)        179.5489                                         !
 ! D72   D(23,25,28,30)         60.3522                                         !
 ! D73   D(23,25,28,31)        -59.6484                                         !
 ! D74   D(26,25,28,29)        -61.1991                                         !
 ! D75   D(26,25,28,30)        179.6042                                         !
 ! D76   D(26,25,28,31)         59.6036                                         !
 ! D77   D(27,25,28,29)         62.1921                                         !
 ! D78   D(27,25,28,30)        -57.0046                                         !
 ! D79   D(27,25,28,31)       -177.0051                                         !
 ! D80   D(25,27,33,34)          0.1713                                         !
 ! D81   D(25,27,33,35)        178.4698                                         !
 ! D82   D(32,27,33,34)       -178.3241                                         !
 ! D83   D(32,27,33,35)         -0.0256                                         !
 ! D84   D(27,33,35,36)        -50.1317                                         !
 ! D85   D(27,33,35,37)       -168.706                                          !
 ! D86   D(27,33,35,38)         70.0488                                         !
 ! D87   D(34,33,35,36)        128.3017                                         !
 ! D88   D(34,33,35,37)          9.7274                                         !
 ! D89   D(34,33,35,38)       -111.5178                                         !
 ! D90   D(33,35,37,42)        -10.9096                                         !
 ! D91   D(33,35,37,43)        172.1234                                         !
 ! D92   D(36,35,37,42)       -128.6329                                         !
 ! D93   D(36,35,37,43)         54.4                                            !
 ! D94   D(38,35,37,42)        110.7676                                         !
 ! D95   D(38,35,37,43)        -66.1995                                         !
 ! D96   D(33,35,38,39)       -179.0713                                         !
 ! D97   D(33,35,38,40)         60.9582                                         !
 ! D98   D(33,35,38,41)        -59.1952                                         !
 ! D99   D(36,35,38,39)        -58.941                                          !
 ! D100  D(36,35,38,40)       -178.9115                                         !
 ! D101  D(36,35,38,41)         60.9352                                         !
 ! D102  D(37,35,38,39)         62.3691                                         !
 ! D103  D(37,35,38,40)        -57.6014                                         !
 ! D104  D(37,35,38,41)       -177.7548                                         !
 ! D105  D(35,37,43,44)        -12.9676                                         !
 ! D106  D(35,37,43,45)        175.0513                                         !
 ! D107  D(42,37,43,44)        170.191                                          !
 ! D108  D(42,37,43,45)         -1.7901                                         !
 ! D109  D(37,43,45,46)         47.6103                                         !
 ! D110  D(37,43,45,47)        -72.021                                          !
 ! D111  D(37,43,45,48)        165.6069                                         !
 ! D112  D(44,43,45,46)       -124.5789                                         !
 ! D113  D(44,43,45,47)        115.7898                                         !
 ! D114  D(44,43,45,48)         -6.5823                                         !
 ! D115  D(43,45,47,51)        -88.3522                                         !
 ! D116  D(43,45,47,63)         90.6275                                         !
 ! D117  D(46,45,47,51)        154.0115                                         !
 ! D118  D(46,45,47,63)        -27.0088                                         !
 ! D119  D(48,45,47,51)         31.2436                                         !
 ! D120  D(48,45,47,63)       -149.7766                                         !
 ! D121  D(43,45,48,49)         66.9838                                         !
 ! D122  D(43,45,48,50)       -177.7983                                         !
 ! D123  D(43,45,48,52)        -54.0292                                         !
 ! D124  D(46,45,48,49)       -176.2567                                         !
 ! D125  D(46,45,48,50)        -61.0388                                         !
 ! D126  D(46,45,48,52)         62.7302                                         !
 ! D127  D(47,45,48,49)        -52.801                                          !
 ! D128  D(47,45,48,50)         62.4169                                         !
 ! D129  D(47,45,48,52)       -173.814                                          !
 ! D130  D(45,47,63,64)         -8.3606                                         !
 ! D131  D(45,47,63,65)       -173.6225                                         !
 ! D132  D(51,47,63,64)        170.6135                                         !
 ! D133  D(51,47,63,65)          5.3515                                         !
 ! D134  D(45,48,52,53)        -70.8488                                         !
 ! D135  D(45,48,52,55)        103.8963                                         !
 ! D136  D(49,48,52,53)        169.7507                                         !
 ! D137  D(49,48,52,55)        -15.5042                                         !
 ! D138  D(50,48,52,53)         49.9782                                         !
 ! D139  D(50,48,52,55)       -135.2767                                         !
 ! D140  D(48,52,53,54)         -4.8848                                         !
 ! D141  D(48,52,53,57)        174.6021                                         !
 ! D142  D(55,52,53,54)       -179.7605                                         !
 ! D143  D(55,52,53,57)         -0.2736                                         !
 ! D144  D(48,52,55,56)          5.9202                                         !
 ! D145  D(48,52,55,59)       -174.0618                                         !
 ! D146  D(53,52,55,56)       -179.1945                                         !
 ! D147  D(53,52,55,59)          0.8235                                         !
 ! D148  D(52,53,57,58)        179.9714                                         !
 ! D149  D(52,53,57,62)         -0.7557                                         !
 ! D150  D(54,53,57,58)         -0.5469                                         !
 ! D151  D(54,53,57,62)        178.726                                          !
 ! D152  D(52,55,59,60)        179.8204                                         !
 ! D153  D(52,55,59,62)         -0.3327                                         !
 ! D154  D(56,55,59,60)         -0.1615                                         !
 ! D155  D(56,55,59,62)        179.6854                                         !
 ! D156  D(53,57,62,59)          1.1924                                         !
 ! D157  D(53,57,62,61)       -178.6502                                         !
 ! D158  D(58,57,62,59)       -179.5028                                         !
 ! D159  D(58,57,62,61)          0.6547                                         !
 ! D160  D(55,59,62,57)         -0.6552                                         !
 ! D161  D(55,59,62,61)        179.187                                          !
 ! D162  D(60,59,62,57)        179.1984                                         !
 ! D163  D(60,59,62,61)         -0.9594                                         !
 ! D164  D(47,63,65,66)         -8.2648                                         !
 ! D165  D(47,63,65,67)       -127.847                                          !
 ! D166  D(47,63,65,68)        112.8054                                         !
 ! D167  D(64,63,65,66)       -173.8302                                         !
 ! D168  D(64,63,65,67)         66.5877                                         !
 ! D169  D(64,63,65,68)        -52.7599                                         !
 ! D170  D(63,65,67,71)        -41.3813                                         !
 ! D171  D(63,65,67,82)        141.7638                                         !
 ! D172  D(66,65,67,71)       -159.7977                                         !
 ! D173  D(66,65,67,82)         23.3473                                         !
 ! D174  D(68,65,67,71)         79.5777                                         !
 ! D175  D(68,65,67,82)        -97.2772                                         !
 ! D176  D(63,65,68,69)         66.3125                                         !
 ! D177  D(63,65,68,70)       -178.4031                                         !
 ! D178  D(63,65,68,72)        -55.3708                                         !
 ! D179  D(66,65,68,69)       -174.1494                                         !
 ! D180  D(66,65,68,70)        -58.8649                                         !
 ! D181  D(66,65,68,72)         64.1673                                         !
 ! D182  D(67,65,68,69)        -53.9496                                         !
 ! D183  D(67,65,68,70)         61.3349                                         !
 ! D184  D(67,65,68,72)       -175.6329                                         !
 ! D185  D(65,67,82,83)         18.4914                                         !
 ! D186  D(65,67,82,84)        168.8799                                         !
 ! D187  D(71,67,82,83)       -158.3033                                         !
 ! D188  D(71,67,82,84)         -7.9148                                         !
 ! D189  D(65,68,72,73)         60.339                                          !
 ! D190  D(65,68,72,74)        176.7817                                         !
 ! D191  D(65,68,72,78)        -59.3557                                         !
 ! D192  D(69,68,72,73)        -60.1334                                         !
 ! D193  D(69,68,72,74)         56.3093                                         !
 ! D194  D(69,68,72,78)       -179.8281                                         !
 ! D195  D(70,68,72,73)       -176.8044                                         !
 ! D196  D(70,68,72,74)        -60.3618                                         !
 ! D197  D(70,68,72,78)         63.5009                                         !
 ! D198  D(68,72,74,75)         61.3586                                         !
 ! D199  D(68,72,74,76)       -178.5383                                         !
 ! D200  D(68,72,74,77)        -59.2272                                         !
 ! D201  D(73,72,74,75)        177.8066                                         !
 ! D202  D(73,72,74,76)        -62.0902                                         !
 ! D203  D(73,72,74,77)         57.2208                                         !
 ! D204  D(78,72,74,75)        -63.205                                          !
 ! D205  D(78,72,74,76)         56.8982                                         !
 ! D206  D(78,72,74,77)        176.2093                                         !
 ! D207  D(68,72,78,79)        -64.7753                                         !
 ! D208  D(68,72,78,80)         56.3046                                         !
 ! D209  D(68,72,78,81)        175.8902                                         !
 ! D210  D(73,72,78,79)        176.5238                                         !
 ! D211  D(73,72,78,80)        -62.3963                                         !
 ! D212  D(73,72,78,81)         57.1894                                         !
 ! D213  D(74,72,78,79)         58.5643                                         !
 ! D214  D(74,72,78,80)        179.6442                                         !
 ! D215  D(74,72,78,81)        -60.7702                                         !
 ! D216  D(67,82,84,85)         48.087                                          !
 ! D217  D(67,82,84,86)        -70.3088                                         !
 ! D218  D(67,82,84,87)        168.4078                                         !
 ! D219  D(83,82,84,85)       -161.4071                                         !
 ! D220  D(83,82,84,86)         80.1972                                         !
 ! D221  D(83,82,84,87)        -41.0863                                         !
 ! D222  D(82,84,86,90)        -56.308                                          !
 ! D223  D(82,84,86,97)        121.3777                                         !
 ! D224  D(85,84,86,90)       -172.6515                                         !
 ! D225  D(85,84,86,97)          5.0342                                         !
 ! D226  D(87,84,86,90)         64.7931                                         !
 ! D227  D(87,84,86,97)       -117.5212                                         !
 ! D228  D(82,84,87,88)         65.5625                                         !
 ! D229  D(82,84,87,89)       -178.7549                                         !
 ! D230  D(82,84,87,91)        -57.2053                                         !
 ! D231  D(85,84,87,88)       -177.2637                                         !
 ! D232  D(85,84,87,89)        -61.5811                                         !
 ! D233  D(85,84,87,91)         59.9685                                         !
 ! D234  D(86,84,87,88)        -55.7704                                         !
 ! D235  D(86,84,87,89)         59.9122                                         !
 ! D236  D(86,84,87,91)       -178.5382                                         !
 ! D237  D(84,86,97,98)         -1.0753                                         !
 ! D238  D(84,86,97,99)       -169.2312                                         !
 ! D239  D(90,86,97,98)        176.5657                                         !
 ! D240  D(90,86,97,99)          8.4098                                         !
 ! D241  D(84,87,91,92)       -177.8576                                         !
 ! D242  D(84,87,91,93)         62.391                                          !
 ! D243  D(84,87,91,94)        -57.737                                          !
 ! D244  D(88,87,91,92)         60.4463                                         !
 ! D245  D(88,87,91,93)        -59.305                                          !
 ! D246  D(88,87,91,94)       -179.4331                                         !
 ! D247  D(89,87,91,92)        -56.7104                                         !
 ! D248  D(89,87,91,93)       -176.4618                                         !
 ! D249  D(89,87,91,94)         63.4101                                         !
 ! D250  D(87,91,94,95)        114.4477                                         !
 ! D251  D(87,91,94,96)        -63.8541                                         !
 ! D252  D(92,91,94,95)       -125.2147                                         !
 ! D253  D(92,91,94,96)         56.4834                                         !
 ! D254  D(93,91,94,95)         -7.8831                                         !
 ! D255  D(93,91,94,96)        173.815                                          !
 ! D256  D(91,94,96,122)      -179.7735                                         !
 ! D257  D(95,94,96,122)         1.8592                                         !
 ! D258  D(86,97,99,100)       -25.74                                           !
 ! D259  D(86,97,99,101)      -143.9056                                         !
 ! D260  D(86,97,99,102)        95.4184                                         !
 ! D261  D(98,97,99,100)       165.9134                                         !
 ! D262  D(98,97,99,101)        47.7478                                         !
 ! D263  D(98,97,99,102)       -72.9282                                         !
 ! D264  D(97,99,101,105)      150.2924                                         !
 ! D265  D(97,99,101,121)      -33.284                                          !
 ! D266  D(100,99,101,105)      31.5106                                         !
 ! D267  D(100,99,101,121)    -152.0658                                         !
 ! D268  D(102,99,101,105)     -87.8723                                         !
 ! D269  D(102,99,101,121)      88.5513                                         !
 ! D270  D(97,99,102,103)      172.6115                                         !
 ! D271  D(97,99,102,104)       56.5348                                         !
 ! D272  D(97,99,102,106)      -65.1627                                         !
 ! D273  D(100,99,102,103)     -67.2245                                         !
 ! D274  D(100,99,102,104)     176.6988                                         !
 ! D275  D(100,99,102,106)      55.0012                                         !
 ! D276  D(101,99,102,103)      50.4594                                         !
 ! D277  D(101,99,102,104)     -65.6173                                         !
 ! D278  D(101,99,102,106)     172.6852                                         !
 ! D279  D(99,101,121,123)    -178.2739                                         !
 ! D280  D(105,101,121,123)     -1.8075                                         !
 ! D281  D(99,102,106,107)      58.531                                          !
 ! D282  D(99,102,106,108)     -58.7543                                         !
 ! D283  D(99,102,106,109)     177.1122                                         !
 ! D284  D(103,102,106,107)   -179.1534                                         !
 ! D285  D(103,102,106,108)     63.5613                                         !
 ! D286  D(103,102,106,109)    -60.5721                                         !
 ! D287  D(104,102,106,107)    -59.617                                          !
 ! D288  D(104,102,106,108)   -176.9024                                         !
 ! D289  D(104,102,106,109)     58.9642                                         !
 ! D290  D(102,106,109,110)    171.0361                                         !
 ! D291  D(102,106,109,111)     50.8809                                         !
 ! D292  D(102,106,109,112)    -73.549                                          !
 ! D293  D(107,106,109,110)    -68.0536                                         !
 ! D294  D(107,106,109,111)    171.7911                                         !
 ! D295  D(107,106,109,112)     47.3613                                         !
 ! D296  D(108,106,109,110)     47.8112                                         !
 ! D297  D(108,106,109,111)    -72.344                                          !
 ! D298  D(108,106,109,112)    163.2261                                         !
 ! D299  D(106,109,112,113)     33.2192                                         !
 ! D300  D(106,109,112,120)   -168.2082                                         !
 ! D301  D(110,109,112,113)    149.183                                          !
 ! D302  D(110,109,112,120)    -52.2445                                         !
 ! D303  D(111,109,112,113)    -92.1294                                         !
 ! D304  D(111,109,112,120)     66.4431                                         !
 ! D305  D(109,112,120,114)      5.007                                          !
 ! D306  D(109,112,120,117)   -173.8152                                         !
 ! D307  D(113,112,120,114)    163.3921                                         !
 ! D308  D(113,112,120,117)    -15.4301                                         !
 ! D309  D(115,114,120,112)    158.4676                                         !
 ! D310  D(115,114,120,117)    -22.7186                                         !
 ! D311  D(116,114,120,112)     10.607                                          !
 ! D312  D(116,114,120,117)   -170.5792                                         !
 ! D313  D(118,117,120,112)   -166.5761                                         !
 ! D314  D(118,117,120,114)     14.5999                                         !
 ! D315  D(119,117,120,112)    -21.9644                                         !
 ! D316  D(119,117,120,114)    159.2116                                         !
 --------------------------------------------------------------------------------
 Symmetry turned off by external request.
 Stoichiometry    C41H61N10O11(1+)
 Framework group  C1[X(C41H61N10O11)]
 Deg. of freedom   363
 Full point group                 C1      NOp   1
                          Input orientation:                          
 ---------------------------------------------------------------------
 Center     Atomic      Atomic             Coordinates (Angstroms)
 Number     Number       Type             X           Y           Z
 ---------------------------------------------------------------------
      1          7           0       -2.841875   -4.757026    9.059163
      2          1           0       -3.214046   -5.677096    9.304040
      3          1           0       -2.597375   -4.240818    9.912320
      4          1           0       -2.018356   -4.903745    8.449600
      5          6           0       -3.791118   -3.967264    8.221815
      6          1           0       -4.813452   -4.203031    8.527875
      7          6           0       -3.502965   -4.370003    6.777933
      8          6           0       -3.530921   -2.460750    8.434425
      9          1           0       -4.210086   -1.910564    7.776207
     10          1           0       -2.508693   -2.240817    8.108436
     11          8           0       -2.401985   -4.843667    6.486490
     12          6           0       -3.721224   -2.068116    9.877544
     13          6           0       -5.001475   -2.049215   10.442712
     14          1           0       -5.863477   -2.264699    9.817988
     15          6           0       -2.619663   -1.791611   10.692508
     16          1           0       -1.619841   -1.797583   10.264842
     17          6           0       -5.176111   -1.741454   11.789668
     18          1           0       -6.176466   -1.718676   12.209421
     19          6           0       -2.790856   -1.490381   12.043862
     20          1           0       -1.925473   -1.270504   12.659870
     21          6           0       -4.071249   -1.464006   12.594806
     22          1           0       -4.208314   -1.223643   13.643736
     23          7           0       -4.499811   -4.126151    5.897048
     24          1           0       -5.253969   -3.516947    6.194003
     25          6           0       -4.265948   -4.016806    4.462039
     26          1           0       -3.220788   -4.278664    4.287819
     27          6           0       -4.537780   -2.543915    4.096324
     28          6           0       -5.200366   -4.931741    3.671015
     29          1           0       -5.015198   -4.829644    2.596777
     30          1           0       -6.243060   -4.662378    3.860706
     31          1           0       -5.051263   -5.974098    3.962800
     32          8           0       -5.375964   -1.898821    4.717258
     33          7           0       -3.832693   -2.051733    3.062499
     34          1           0       -3.161063   -2.599561    2.541043
     35          6           0       -4.004416   -0.693994    2.583084
     36          1           0       -5.072358   -0.506804    2.428948
     37          6           0       -3.255317   -0.608036    1.244531
     38          6           0       -3.459771    0.333535    3.584632
     39          1           0       -3.612259    1.350768    3.214691
     40          1           0       -2.387460    0.184926    3.745937
     41          1           0       -3.980790    0.223445    4.535329
     42          8           0       -2.498826   -1.518723    0.878841
     43          7           0       -3.445740    0.533804    0.575165
     44          1           0       -4.190956    1.148552    0.871878
     45          6           0       -2.772015    0.911268   -0.668467
     46          1           0       -2.831461    0.056168   -1.346638
     47          6           0       -1.306586    1.245720   -0.345544
     48          6           0       -3.530658    2.104300   -1.281324
     49          1           0       -3.400648    2.963442   -0.619446
     50          1           0       -3.049190    2.359132   -2.230139
     51          8           0       -0.932459    2.366804   -0.018762
     52          6           0       -4.975795    1.770574   -1.433741
     53          6           0       -5.405798    0.840860   -2.401889
     54          1           0       -4.669818    0.429677   -3.092531
     55          6           0       -5.933887    2.293454   -0.541059
     56          1           0       -5.613780    3.023458    0.203100
     57          6           0       -6.715470    0.437914   -2.486795
     58          1           0       -7.042807   -0.277714   -3.233820
     59          6           0       -7.252944    1.909471   -0.583371
     60          1           0       -7.985594    2.312624    0.107571
     61          8           0       -8.909827    0.569733   -1.612342
     62          6           0       -7.726846    0.942635   -1.564442
     63          7           0       -0.476655    0.173868   -0.437098
     64          1           0       -0.886433   -0.740098   -0.571729
     65          6           0        0.914826    0.195163   -0.057176
     66          1           0        1.187734    1.228992    0.158807
     67          6           0        1.773275   -0.338564   -1.209991
     68          6           0        1.158932   -0.694851    1.174740
     69          1           0        0.969544   -1.724700    0.865508
     70          1           0        2.218925   -0.631940    1.451606
     71          8           0        1.420267   -1.316220   -1.868845
     72          6           0        0.298694   -0.371439    2.403424
     73          1           0       -0.745453   -0.498241    2.111864
     74          6           0        0.585208   -1.377216    3.521573
     75          1           0        1.631531   -1.331797    3.837910
     76          1           0       -0.039892   -1.176411    4.398012
     77          1           0        0.372005   -2.406007    3.199490
     78          6           0        0.509122    1.061545    2.891934
     79          1           0        1.536062    1.198344    3.249178
     80          1           0        0.314899    1.792411    2.104335
     81          1           0       -0.167898    1.289801    3.722478
     82          7           0        2.961758    0.293668   -1.402889
     83          1           0        3.306679    0.841406   -0.627449
     84          6           0        3.977833   -0.251715   -2.296054
     85          1           0        3.461148   -0.508209   -3.223459
     86          6           0        4.593992   -1.522374   -1.684038
     87          6           0        5.067049    0.794288   -2.539267
     88          1           0        5.583132    0.977874   -1.592739
     89          1           0        5.804210    0.371926   -3.227518
     90          8           0        5.114010   -1.527269   -0.575241
     91          6           0        4.536003    2.113410   -3.117787
     92          1           0        5.376602    2.790453   -3.297584
     93          1           0        3.841589    2.598841   -2.429132
     94          6           0        3.806510    1.889710   -4.418214
     95          8           0        2.628133    2.070587   -4.610034
     96          8           0        4.639196    1.411398   -5.376993
     97          7           0        4.459579   -2.626002   -2.462129
     98          1           0        3.970175   -2.535230   -3.339559
     99          6           0        4.750422   -3.975625   -2.020416
    100          1           0        5.484116   -3.927797   -1.213370
    101          6           0        5.356699   -4.801001   -3.144728
    102          6           0        3.465338   -4.675606   -1.534046
    103          1           0        3.662095   -5.731370   -1.325398
    104          1           0        2.759074   -4.632956   -2.372415
    105          8           0        6.131090   -5.708286   -2.983562
    106          6           0        2.919158   -3.986474   -0.291746
    107          1           0        2.712249   -2.940901   -0.512240
    108          1           0        3.683557   -4.012067    0.488187
    109          6           0        1.608454   -4.561372    0.229371
    110          1           0        1.401612   -4.102394    1.198647
    111          1           0        1.631687   -5.649700    0.358764
    112          7           0        0.534728   -4.141319   -0.686581
    113          1           0        0.801039   -4.056808   -1.657200
    114          7           0       -1.191678   -4.709234    0.759788
    115          1           0       -2.133239   -4.493230    1.053639
    116          1           0       -0.516388   -4.790256    1.505617
    117          7           0       -1.658155   -3.957515   -1.406329
    118          1           0       -2.629095   -3.854798   -1.149265
    119          1           0       -1.356848   -3.340904   -2.150819
    120          6           0       -0.765708   -4.262688   -0.438726
    121          8           0        4.862199   -4.445821   -4.355863
    122          1           0        4.101467    1.298130   -6.176738
    123          1           0        5.273112   -5.030971   -5.012638
 ---------------------------------------------------------------------
 Rotational constants (GHZ):           0.0413941           0.0186140           0.0154042
 Standard basis: 6-31G(d) (6D, 7F)
  1052 basis functions,  1980 primitive gaussians,  1052 cartesian basis functions
   232 alpha electrons      232 beta electrons
       nuclear repulsion energy      9491.7669101154 Hartrees.
 NAtoms=  123 NActive=  123 NUniq=  123 SFac= 1.00D+00 NAtFMM=   60 NAOKFM=T Big=T
 Integral buffers will be    131072 words long.
 Raffenetti 2 integral format.
 Two-electron integral symmetry is turned off.
 Nuclear repulsion after empirical dispersion term =     9491.5991162702 Hartrees.
 One-electron integrals computed using PRISM.
 NBasis=  1052 RedAO= T EigKep=  4.63D-04  NBF=  1052
 NBsUse=  1052 1.00D-06 EigRej= -1.00D+00 NBFU=  1052
 Initial guess from the checkpoint file:  "conf-669.chk"
 B after Tr=     0.000000    0.000000    0.000000
         Rot=    1.000000    0.000000    0.000000    0.000000 Ang=   0.00 deg.
 Requested convergence on RMS density matrix=1.00D-08 within 128 cycles.
 Requested convergence on MAX density matrix=1.00D-06.
 Requested convergence on             energy=1.00D-06.
 No special actions if energy rises.
 SCF Done:  E(RB3LYP) =  -2974.07498842     A.U. after    3 cycles
            NFock=  3  Conv=0.34D-08     -V/T= 2.0091
 Hyperfine terms turned off by default for NAtoms > 100.

 **********************************************************************

            Population analysis using the SCF Density.

 **********************************************************************

 Alpha  occ. eigenvalues --  -19.28902 -19.26463 -19.25789 -19.22870 -19.22135
 Alpha  occ. eigenvalues --  -19.21743 -19.21150 -19.20145 -19.20049 -19.17473
 Alpha  occ. eigenvalues --  -19.04190 -14.61167 -14.52457 -14.52004 -14.51403
 Alpha  occ. eigenvalues --  -14.49155 -14.46178 -14.45308 -14.45223 -14.43971
 Alpha  occ. eigenvalues --  -14.42576 -10.47958 -10.43072 -10.41082 -10.40824
 Alpha  occ. eigenvalues --  -10.39216 -10.38200 -10.37779 -10.37677 -10.37361
 Alpha  occ. eigenvalues --  -10.36284 -10.35145 -10.34626 -10.34079 -10.33513
 Alpha  occ. eigenvalues --  -10.32360 -10.32058 -10.31841 -10.31035 -10.30742
 Alpha  occ. eigenvalues --  -10.30277 -10.30263 -10.29940 -10.29924 -10.29914
 Alpha  occ. eigenvalues --  -10.29586 -10.29273 -10.28878 -10.27708 -10.27273
 Alpha  occ. eigenvalues --  -10.26965 -10.26669 -10.26396 -10.26395 -10.24021
 Alpha  occ. eigenvalues --  -10.21714 -10.19914 -10.17630 -10.17514 -10.17191
 Alpha  occ. eigenvalues --  -10.15147 -10.14885  -1.19804  -1.19244  -1.16919
 Alpha  occ. eigenvalues --   -1.16785  -1.15437  -1.14503  -1.13174  -1.13089
 Alpha  occ. eigenvalues --   -1.12084  -1.10818  -1.09432  -1.07712  -1.06360
 Alpha  occ. eigenvalues --   -1.06036  -1.05144  -1.02814  -1.02367  -1.01844
 Alpha  occ. eigenvalues --   -1.00871  -0.99635  -0.97840  -0.94546  -0.93834
 Alpha  occ. eigenvalues --   -0.92145  -0.89747  -0.89535  -0.88734  -0.86973
 Alpha  occ. eigenvalues --   -0.86969  -0.85964  -0.85668  -0.84048  -0.83492
 Alpha  occ. eigenvalues --   -0.81513  -0.80215  -0.80099  -0.79651  -0.78631
 Alpha  occ. eigenvalues --   -0.76976  -0.76219  -0.75332  -0.74954  -0.74490
 Alpha  occ. eigenvalues --   -0.74419  -0.74299  -0.72843  -0.72661  -0.72537
 Alpha  occ. eigenvalues --   -0.72175  -0.71904  -0.71289  -0.70243  -0.70159
 Alpha  occ. eigenvalues --   -0.69576  -0.69279  -0.68292  -0.67684  -0.67184
 Alpha  occ. eigenvalues --   -0.66500  -0.66297  -0.65484  -0.65378  -0.64792
 Alpha  occ. eigenvalues --   -0.64301  -0.64199  -0.63770  -0.62898  -0.62743
 Alpha  occ. eigenvalues --   -0.62123  -0.61489  -0.60234  -0.59353  -0.59080
 Alpha  occ. eigenvalues --   -0.58815  -0.58665  -0.57998  -0.57784  -0.57512
 Alpha  occ. eigenvalues --   -0.57279  -0.57246  -0.56764  -0.56714  -0.56647
 Alpha  occ. eigenvalues --   -0.56353  -0.56301  -0.55457  -0.55257  -0.55089
 Alpha  occ. eigenvalues --   -0.54807  -0.54674  -0.54360  -0.54248  -0.53756
 Alpha  occ. eigenvalues --   -0.53606  -0.53198  -0.53076  -0.52826  -0.52561
 Alpha  occ. eigenvalues --   -0.52159  -0.51981  -0.51781  -0.51404  -0.51319
 Alpha  occ. eigenvalues --   -0.50965  -0.50940  -0.50616  -0.49953  -0.49403
 Alpha  occ. eigenvalues --   -0.49201  -0.49119  -0.48758  -0.48140  -0.48091
 Alpha  occ. eigenvalues --   -0.47878  -0.47781  -0.47508  -0.47307  -0.47087
 Alpha  occ. eigenvalues --   -0.46603  -0.46499  -0.46363  -0.46285  -0.46044
 Alpha  occ. eigenvalues --   -0.45959  -0.45663  -0.45611  -0.45320  -0.45277
 Alpha  occ. eigenvalues --   -0.44975  -0.44351  -0.44252  -0.44040  -0.43868
 Alpha  occ. eigenvalues --   -0.43693  -0.43509  -0.43355  -0.42937  -0.42669
 Alpha  occ. eigenvalues --   -0.41151  -0.41084  -0.40867  -0.40779  -0.40362
 Alpha  occ. eigenvalues --   -0.40252  -0.40217  -0.39621  -0.39125  -0.38063
 Alpha  occ. eigenvalues --   -0.37448  -0.36716  -0.36553  -0.36431  -0.36387
 Alpha  occ. eigenvalues --   -0.36056  -0.35855  -0.35594  -0.35336  -0.35032
 Alpha  occ. eigenvalues --   -0.34674  -0.34265  -0.33472  -0.32953  -0.32683
 Alpha  occ. eigenvalues --   -0.32346  -0.31679  -0.30534  -0.28407  -0.23696
 Alpha  occ. eigenvalues --   -0.17818  -0.14750
 Alpha virt. eigenvalues --   -0.13798  -0.13125  -0.12056  -0.11110  -0.10569
 Alpha virt. eigenvalues --   -0.09896  -0.08271  -0.08104  -0.07665  -0.06840
 Alpha virt. eigenvalues --   -0.06415  -0.06116  -0.05649  -0.05360  -0.05295
 Alpha virt. eigenvalues --   -0.03892  -0.03729  -0.03258  -0.02952  -0.01614
 Alpha virt. eigenvalues --   -0.01398  -0.01251  -0.00961  -0.00743  -0.00318
 Alpha virt. eigenvalues --    0.00413   0.00601   0.00765   0.00975   0.01894
 Alpha virt. eigenvalues --    0.02005   0.02329   0.02577   0.02946   0.03142
 Alpha virt. eigenvalues --    0.03352   0.03674   0.03942   0.04246   0.04571
[...]
 Alpha virt. eigenvalues --    0.94485   0.94506   0.94890   0.95190   0.95816
 Alpha virt. eigenvalues --    0.96683   0.97278   0.97503   0.97788   0.98225
 Alpha virt. eigenvalues --    0.98516   0.99091   0.99291   0.99496   0.99830
 Alpha virt. eigenvalues --    1.00026   1.00296   1.00592   1.00792   1.01567
 Alpha virt. eigenvalues --    1.01600   1.02015   1.02700   1.03498   1.03733
 Alpha virt. eigenvalues --    1.03902   1.05062   1.05217   1.05578   1.05843
 Alpha virt. eigenvalues --    1.06232   1.06888   1.07048   1.07637   1.07924
 Alpha virt. eigenvalues --    1.08352   1.08966   1.09113   1.09866   1.10435
 Alpha virt. eigenvalues --    1.10508   1.11819   1.12224   1.12635   1.13023
 Alpha virt. eigenvalues --    1.13332   1.14271   1.14763   1.14894   1.15695
 Alpha virt. eigenvalues --    1.16202   1.16729   1.17129   1.17500   1.17851
 Alpha virt. eigenvalues --    1.18195   1.18318   1.19074   1.19440   1.19719
 Alpha virt. eigenvalues --    1.20373   1.20815   1.21422   1.21886   1.23247
 Alpha virt. eigenvalues --    1.23373   1.24153   1.25351   1.25823   1.26625
 Alpha virt. eigenvalues --    1.27151   1.28150   1.28238   1.29024   1.29857
 Alpha virt. eigenvalues --    1.30645   1.31245   1.31718   1.32020   1.32382
 Alpha virt. eigenvalues --    1.32504   1.32645   1.33490   1.33919   1.34184
 Alpha virt. eigenvalues --    1.34302   1.34379   1.35203   1.36045   1.36171
 Alpha virt. eigenvalues --    1.37211   1.37541   1.37816   1.38353   1.38870
 Alpha virt. eigenvalues --    1.39021   1.39761   1.40034   1.40287   1.40614
 Alpha virt. eigenvalues --    1.41292   1.42087   1.42426   1.42833   1.44178
 Alpha virt. eigenvalues --    1.44868   1.45452   1.46372   1.47114   1.47366
 Alpha virt. eigenvalues --    1.47735   1.48460   1.49019   1.49428   1.49611
 Alpha virt. eigenvalues --    1.50013   1.50419   1.51788   1.51914   1.52074
 Alpha virt. eigenvalues --    1.53013   1.53622   1.54260   1.54671   1.56076
 Alpha virt. eigenvalues --    1.56479   1.57292   1.57817   1.58273   1.58672
 Alpha virt. eigenvalues --    1.58748   1.59540   1.59694   1.59878   1.60411
 Alpha virt. eigenvalues --    1.60949   1.61425   1.61788   1.62248   1.62750
 Alpha virt. eigenvalues --    1.63190   1.63396   1.63895   1.64540   1.64712
 Alpha virt. eigenvalues --    1.65621   1.65916   1.66501   1.67405   1.67656
 Alpha virt. eigenvalues --    1.67798   1.68547   1.68932   1.69044   1.69635
 Alpha virt. eigenvalues --    1.70239   1.70607   1.70702   1.71219   1.71421
 Alpha virt. eigenvalues --    1.71828   1.71980   1.72381   1.72652   1.72707
 Alpha virt. eigenvalues --    1.73322   1.73420   1.73659   1.73838   1.74532
 Alpha virt. eigenvalues --    1.74988   1.75104   1.75295   1.75890   1.76070
 Alpha virt. eigenvalues --    1.76565   1.76798   1.77615   1.78159   1.78257
 Alpha virt. eigenvalues --    1.78599   1.78706   1.78827   1.79147   1.79979
 Alpha virt. eigenvalues --    1.80381   1.80521   1.81120   1.81591   1.81723
 Alpha virt. eigenvalues --    1.82276   1.82596   1.83058   1.83477   1.83674
 Alpha virt. eigenvalues --    1.83866   1.84309   1.84513   1.84758   1.85248
 Alpha virt. eigenvalues --    1.85694   1.86268   1.86443   1.86778   1.86978
 Alpha virt. eigenvalues --    1.87407   1.87734   1.87756   1.87859   1.88258
 Alpha virt. eigenvalues --    1.89066   1.89463   1.89727   1.90057   1.90280
 Alpha virt. eigenvalues --    1.90783   1.91551   1.91854   1.92044   1.92358
 Alpha virt. eigenvalues --    1.93139   1.93267   1.93767   1.94017   1.94323
 Alpha virt. eigenvalues --    1.94505   1.94891   1.95312   1.96139   1.96229
 Alpha virt. eigenvalues --    1.96664   1.96853   1.97091   1.97354   1.98277
 Alpha virt. eigenvalues --    1.98608   1.98801   1.99341   1.99777   2.00337
 Alpha virt. eigenvalues --    2.00613   2.00741   2.01253   2.01629   2.01818
 Alpha virt. eigenvalues --    2.02051   2.02394   2.02725   2.02923   2.03280
 Alpha virt. eigenvalues --    2.03384   2.04043   2.04132   2.04359   2.05062
 Alpha virt. eigenvalues --    2.05721   2.06060   2.06771   2.07295   2.07937
 Alpha virt. eigenvalues --    2.08180   2.08998   2.09376   2.10132   2.10563
 Alpha virt. eigenvalues --    2.11145   2.11607   2.11986   2.12883   2.13163
 Alpha virt. eigenvalues --    2.14358   2.14471   2.14778   2.15344   2.15894
 Alpha virt. eigenvalues --    2.16167   2.16769   2.16875   2.17551   2.17714
 Alpha virt. eigenvalues --    2.18011   2.18676   2.19134   2.19608   2.20187
 Alpha virt. eigenvalues --    2.20676   2.21078   2.21276   2.21976   2.22460
 Alpha virt. eigenvalues --    2.22707   2.23164   2.23848   2.24222   2.24802
 Alpha virt. eigenvalues --    2.25650   2.25865   2.26470   2.26899   2.27862
 Alpha virt. eigenvalues --    2.28395   2.29370   2.29871   2.30361   2.30903
 Alpha virt. eigenvalues --    2.31215   2.32436   2.32556   2.33272   2.33783
 Alpha virt. eigenvalues --    2.34570   2.35153   2.35541   2.35740   2.36112
 Alpha virt. eigenvalues --    2.36383   2.36783   2.37528   2.37900   2.37967
 Alpha virt. eigenvalues --    2.38767   2.39143   2.39879   2.40694   2.40839
 Alpha virt. eigenvalues --    2.41726   2.42147   2.42392   2.43059   2.44316
 Alpha virt. eigenvalues --    2.44852   2.45186   2.45891   2.46566   2.46700
 Alpha virt. eigenvalues --    2.47160   2.47508   2.48109   2.49155   2.49804
 Alpha virt. eigenvalues --    2.50380   2.51634   2.52675   2.52911   2.54100
 Alpha virt. eigenvalues --    2.54734   2.55472   2.56428   2.56798   2.57075
 Alpha virt. eigenvalues --    2.57801   2.59008   2.59337   2.60040   2.60296
 Alpha virt. eigenvalues --    2.60696   2.61065   2.61438   2.61877   2.62393
 Alpha virt. eigenvalues --    2.63257   2.63694   2.63838   2.64480   2.64542
 Alpha virt. eigenvalues --    2.64890   2.65511   2.66146   2.66661   2.67199
 Alpha virt. eigenvalues --    2.67510   2.68318   2.68919   2.68950   2.70625
 Alpha virt. eigenvalues --    2.72132   2.72688   2.74643   2.75654   2.76353
 Alpha virt. eigenvalues --    2.76480   2.76817   2.77343   2.78133   2.79405
 Alpha virt. eigenvalues --    2.80046   2.80204   2.82709   2.83696   2.84525
 Alpha virt. eigenvalues --    2.85173   2.86136   2.87105   2.87798   2.89563
 Alpha virt. eigenvalues --    2.90548   2.91578   2.92165   2.92248   2.93728
 Alpha virt. eigenvalues --    2.94266   2.94327   2.94982   2.95580   2.97013
 Alpha virt. eigenvalues --    2.98183   2.99889   3.02129   3.02499   3.06518
 Alpha virt. eigenvalues --    3.06887   3.08853   3.10158   3.11976   3.13406
 Alpha virt. eigenvalues --    3.20601   3.30265   3.40393   3.65445   3.65639
 Alpha virt. eigenvalues --    3.73053   3.77159   3.78047   3.87043   3.89730
 Alpha virt. eigenvalues --    3.89806   3.95535   3.96057   3.96692   3.98719
 Alpha virt. eigenvalues --    3.99185   4.00998   4.01249   4.01973   4.03234
 Alpha virt. eigenvalues --    4.04338   4.05294   4.05833   4.07386   4.09455
 Alpha virt. eigenvalues --    4.11196   4.12473   4.14010   4.15087   4.15265
 Alpha virt. eigenvalues --    4.16128   4.16497   4.18133   4.19851   4.22036
 Alpha virt. eigenvalues --    4.22878   4.23141   4.24980   4.25667   4.26698
 Alpha virt. eigenvalues --    4.26927   4.29309   4.30451   4.31206   4.32149
 Alpha virt. eigenvalues --    4.33109   4.33940   4.36340   4.37056   4.38879
 Alpha virt. eigenvalues --    4.42549   4.45008   4.46135   4.46408   4.47732
 Alpha virt. eigenvalues --    4.50613   4.52694   4.54238   4.55125   4.58575
 Alpha virt. eigenvalues --    4.59268   4.63054   4.64168   4.66147   4.80625
          Condensed to atoms (all electrons):
 Mulliken charges:
               1
     1  N   -0.725337
     2  H    0.418152
     3  H    0.405298
     4  H    0.417185
     5  C   -0.134169
     6  H    0.214562
     7  C    0.622650
     8  C   -0.389436
     9  H    0.218750
    10  H    0.182643
    11  O   -0.538609
    12  C    0.140454
    13  C   -0.187150
    14  H    0.142710
    15  C   -0.219480
    16  H    0.139535
    17  C   -0.122747
    18  H    0.166887
    19  C   -0.123395
    20  H    0.163121
    21  C   -0.125790
    22  H    0.167514
    23  N   -0.578558
    24  H    0.358333
    25  C   -0.086742
    26  H    0.165216
    27  C    0.636490
    28  C   -0.438976
    29  H    0.150670
    30  H    0.191628
    31  H    0.174685
    32  O   -0.531239
    33  N   -0.619811
    34  H    0.326455
    35  C   -0.047535
    36  H    0.215583
    37  C    0.636646
    38  C   -0.464632
    39  H    0.179581
    40  H    0.160055
    41  H    0.184898
    42  O   -0.616068
    43  N   -0.580187
    44  H    0.359246
    45  C   -0.039329
    46  H    0.148022
    47  C    0.625969
    48  C   -0.401456
    49  H    0.168260
    50  H    0.158767
    51  O   -0.520712
    52  C    0.133313
    53  C   -0.180067
    54  H    0.067805
    55  C   -0.216993
    56  H    0.081497
    57  C   -0.218663
    58  H    0.090899
    59  C   -0.223057
    60  H    0.095205
    61  O   -0.613147
    62  C    0.415189
    63  N   -0.579674
    64  H    0.331330
    65  C   -0.088205
    66  H    0.190191
    67  C    0.659331
    68  C   -0.274551
    69  H    0.120072
    70  H    0.145720
    71  O   -0.580603
    72  C   -0.084390
    73  H    0.154485
    74  C   -0.441935
    75  H    0.152878
    76  H    0.142033
    77  H    0.096585
    78  C   -0.476851
    79  H    0.137034
    80  H    0.197645
    81  H    0.144149
    82  N   -0.580560
    83  H    0.346027
    84  C   -0.065263
    85  H    0.175107
    86  C    0.632462
    87  C   -0.315063
    88  H    0.176024
    89  H    0.184436
    90  O   -0.535737
    91  C   -0.332190
    92  H    0.189487
    93  H    0.181326
    94  C    0.560954
    95  O   -0.446111
    96  O   -0.562912
    97  N   -0.596561
    98  H    0.353706
    99  C   -0.057809
   100  H    0.216571
   101  C    0.591093
   102  C   -0.282278
   103  H    0.177044
   104  H    0.137870
   105  O   -0.437464
   106  C   -0.323499
   107  H    0.211113
   108  H    0.186536
   109  C   -0.161740
   110  H    0.174259
   111  H    0.186898
   112  N   -0.580311
   113  H    0.376665
   114  N   -0.746745
   115  H    0.370773
   116  H    0.379007
   117  N   -0.742031
   118  H    0.382200
   119  H    0.389555
   120  C    0.795598
   121  O   -0.578995
   122  H    0.415426
   123  H    0.429301
 Sum of Mulliken charges =   1.00000
 Mulliken charges with hydrogens summed into heavy atoms:
               1
     1  N    0.515298
     5  C    0.080393
     7  C    0.622650
     8  C    0.011957
    11  O   -0.538609
    12  C    0.140454
    13  C   -0.044441
    15  C   -0.079944
    17  C    0.044140
    19  C    0.039726
    21  C    0.041725
    23  N   -0.220225
    25  C    0.078473
    27  C    0.636490
    28  C    0.078008
    32  O   -0.531239
    33  N   -0.293357
    35  C    0.168048
    37  C    0.636646
    38  C    0.059903
    42  O   -0.616068
    43  N   -0.220942
    45  C    0.108693
    47  C    0.625969
    48  C   -0.074429
    51  O   -0.520712
    52  C    0.133313
    53  C   -0.112262
    55  C   -0.135496
    57  C   -0.127763
    59  C   -0.127853
    61  O   -0.613147
    62  C    0.415189
    63  N   -0.248344
    65  C    0.101986
    67  C    0.659331
    68  C   -0.008759
    71  O   -0.580603
    72  C    0.070095
    74  C   -0.050439
    78  C    0.001977
    82  N   -0.234533
    84  C    0.109844
    86  C    0.632462
    87  C    0.045397
    90  O   -0.535737
    91  C    0.038623
    94  C    0.560954
    95  O   -0.446111
    96  O   -0.147486
    97  N   -0.242855
    99  C    0.158762
   101  C    0.591093
   102  C    0.032636
   105  O   -0.437464
   106  C    0.074150
   109  C    0.199417
   112  N   -0.203646
   114  N    0.003036
   117  N    0.029724
   120  C    0.795598
   121  O   -0.149694
 Electronic spatial extent (au):  <R**2>=          77865.1907
 Charge=              1.0000 electrons
 Dipole moment (field-independent basis, Debye):
    X=              9.1018    Y=            -31.4035    Z=             33.9688  Tot=             47.1476
 Quadrupole moment (field-independent basis, Debye-Ang):
   XX=           -469.6607   YY=           -244.3002   ZZ=              7.2808
   XY=             88.5617   XZ=           -181.4203   YZ=           -115.8852
 Traceless Quadrupole moment (field-independent basis, Debye-Ang):
   XX=           -234.1007   YY=             -8.7402   ZZ=            242.8408
   XY=             88.5617   XZ=           -181.4203   YZ=           -115.8852
 Octapole moment (field-independent basis, Debye-Ang**2):
  XXX=           2462.6113  YYY=            943.3549  ZZZ=           1725.4675  XYY=            117.9876
  XXY=            211.5269  XXZ=            148.7184  XZZ=           -580.5331  YZZ=           -890.2911
  YYZ=             34.1717  XYZ=            458.0717
 Hexadecapole moment (field-independent basis, Debye-Ang**3):
 XXXX=         -49410.9427 YYYY=         -14605.1218 ZZZZ=         -10203.9223 XXXY=           2559.5182
 XXXZ=           5772.0511 YYYX=           1381.7219 YYYZ=           2851.0928 ZZZX=          -2207.0290
 ZZZY=          -5995.1252 XXYY=          -7988.1039 XXZZ=          -9131.6835 YYZZ=          -5038.0304
 XXYZ=            385.8134 YYXZ=           1405.1052 ZZXY=           3936.0215
 N-N= 9.491599116270D+03 E-N=-2.587295290047D+04  KE= 2.947336299862D+03
 Unable to Open any file for archive entry.
 1\1\GINC-SKL-136\SP\RB3LYP\6-31G(d)\C41H61N10O11(1+)\KENGMITH\07-Aug-2
 022\0\\# B3LYP/6-31G* empiricaldispersion=gd3 guess=read geom=check no
 symm integral(ultrafinegrid)\\Candidate Structure: Conf:669 Charge cal
 c in gas phase\\1,1\N,0,-2.8418746496,-4.7570258471,9.0591630718\H,0,-
 3.2140462094,-5.6770964372,9.3040399096\H,0,-2.5973745325,-4.240818023
 3,9.9123202856\H,0,-2.0183560376,-4.9037447743,8.4495998483\C,0,-3.791
 1178053,-3.9672638971,8.2218151797\H,0,-4.8134518121,-4.2030309845,8.5
 278748334\C,0,-3.5029645033,-4.3700030582,6.7779327882\C,0,-3.53092083
 25,-2.46074961,8.4344251054\H,0,-4.2100862704,-1.9105635173,7.77620694
 43\H,0,-2.5086925201,-2.240817331,8.1084358556\O,0,-2.4019845099,-4.84
 36665284,6.4864903659\C,0,-3.7212239618,-2.0681164593,9.8775444242\C,0
 ,-5.0014752163,-2.0492152393,10.4427122122\H,0,-5.863477285,-2.2646993
 879,9.8179884654\C,0,-2.6196625464,-1.7916111174,10.6925081932\H,0,-1.
 6198411981,-1.7975834069,10.2648420342\C,0,-5.1761108783,-1.7414543044
 ,11.7896682981\H,0,-6.1764655972,-1.7186760564,12.2094214993\C,0,-2.79
 0855586,-1.4903805001,12.0438616068\H,0,-1.925473244,-1.2705044529,12.
 6598698466\C,0,-4.0712491797,-1.4640064304,12.5948057\H,0,-4.208313686
 7,-1.2236429287,13.6437360777\N,0,-4.4998108303,-4.1261510955,5.897047
 8265\H,0,-5.2539694117,-3.5169474054,6.1940029437\C,0,-4.2659481785,-4
 .0168062215,4.4620385193\H,0,-3.2207877304,-4.2786643108,4.2878191781\
 C,0,-4.5377804368,-2.5439150812,4.0963237467\C,0,-5.2003661713,-4.9317
 410984,3.6710148475\H,0,-5.0151982573,-4.8296443719,2.5967768492\H,0,-
 6.2430595588,-4.6623775508,3.860705814\H,0,-5.0512629947,-5.9740984815
 ,3.9628004707\O,0,-5.3759635582,-1.8988212758,4.7172579434\N,0,-3.8326
 930099,-2.0517334083,3.0624994184\H,0,-3.1610625003,-2.5995611244,2.54
 10434578\C,0,-4.0044163282,-0.6939938888,2.583083834\H,0,-5.0723577597
 ,-0.5068041684,2.4289482357\C,0,-3.2553171033,-0.6080362209,1.24453097
 29\C,0,-3.4597712054,0.3335346065,3.5846320842\H,0,-3.6122588077,1.350
 767631,3.2146908689\H,0,-2.3874595059,0.1849255853,3.7459372732\H,0,-3
 .9807902937,0.2234445659,4.5353294371\O,0,-2.4988261695,-1.5187225743,
 0.8788411507\N,0,-3.4457398404,0.5338043871,0.5751646747\H,0,-4.190956
 4266,1.1485517142,0.8718777617\C,0,-2.7720152441,0.9112675765,-0.66846
 72482\H,0,-2.831461159,0.0561676761,-1.3466376988\C,0,-1.3065857587,1.
 2457201135,-0.3455442836\C,0,-3.5306575591,2.1042996323,-1.2813243841\
 H,0,-3.4006477602,2.9634417626,-0.619445913\H,0,-3.0491897412,2.359131
 8967,-2.2301394167\O,0,-0.9324593783,2.366804026,-0.0187624395\C,0,-4.
 9757947253,1.7705738573,-1.4337407612\C,0,-5.4057980911,0.8408600341,-
 2.4018890833\H,0,-4.6698181745,0.429677322,-3.0925314386\C,0,-5.933886
 8908,2.2934544499,-0.5410594065\H,0,-5.6137800022,3.0234583931,0.20310
 04659\C,0,-6.7154699989,0.4379143405,-2.4867946588\H,0,-7.0428067182,-
 0.2777139244,-3.2338202758\C,0,-7.2529438636,1.9094709268,-0.583371272
 4\H,0,-7.985593844,2.3126243237,0.1075711928\O,0,-8.9098267076,0.56973
 30436,-1.6123417974\C,0,-7.7268459947,0.9426351151,-1.5644416799\N,0,-
 0.476655437,0.1738678904,-0.4370984245\H,0,-0.8864328928,-0.7400980703
 ,-0.5717289926\C,0,0.9148258071,0.1951632019,-0.0571762121\H,0,1.18773
 40591,1.2289921272,0.1588071092\C,0,1.7732754397,-0.3385642956,-1.2099
 908868\C,0,1.158932063,-0.6948513964,1.1747396182\H,0,0.9695435778,-1.
 7247003444,0.8655078373\H,0,2.2189246872,-0.6319403251,1.4516056486\O,
 0,1.4202674608,-1.3162203576,-1.8688446844\C,0,0.2986935628,-0.3714387
 749,2.4034244295\H,0,-0.7454534723,-0.49824119,2.111864448\C,0,0.58520
 82509,-1.3772164054,3.5215727004\H,0,1.6315307779,-1.3317972282,3.8379
 102728\H,0,-0.0398915071,-1.1764107735,4.398011849\H,0,0.3720050014,-2
 .4060065079,3.1994901364\C,0,0.509121868,1.0615450899,2.8919337658\H,0
 ,1.5360618695,1.1983443718,3.2491778378\H,0,0.3148989315,1.7924112123,
 2.1043351508\H,0,-0.1678981598,1.2898014175,3.7224779059\N,0,2.9617580
 755,0.2936680572,-1.4028890379\H,0,3.3066793715,0.8414062461,-0.627448
 8366\C,0,3.9778329335,-0.2517149419,-2.2960541412\H,0,3.4611478362,-0.
 5082092477,-3.22345944\C,0,4.5939920986,-1.5223735083,-1.6840375773\C,
 0,5.0670486951,0.7942884969,-2.53926747\H,0,5.5831316746,0.9778743589,
 -1.5927388883\H,0,5.804209757,0.3719260041,-3.2275181194\O,0,5.1140104
 942,-1.5272691775,-0.5752414201\C,0,4.5360027443,2.1134102961,-3.11778
 66064\H,0,5.3766022261,2.790452544,-3.2975836742\H,0,3.8415889417,2.59
 88412665,-2.4291322792\C,0,3.8065099313,1.8897096444,-4.4182137064\O,0
 ,2.6281332163,2.0705871262,-4.6100338399\O,0,4.6391964667,1.411397616,
 -5.3769934201\N,0,4.4595792745,-2.6260024598,-2.4621294745\H,0,3.97017
 52275,-2.5352295763,-3.339559309\C,0,4.7504219819,-3.9756252654,-2.020
 41585\H,0,5.4841157519,-3.927797171,-1.2133695184\C,0,5.3566990875,-4.
 801001227,-3.1447276106\C,0,3.4653376839,-4.6756064079,-1.5340458177\H
 ,0,3.6620952272,-5.7313697115,-1.3253981749\H,0,2.7590743465,-4.632955
 7261,-2.3724153665\O,0,6.1310904306,-5.7082860185,-2.9835624499\C,0,2.
 919157822,-3.9864744246,-0.2917459005\H,0,2.7122491982,-2.940901258,-0
 .5122396019\H,0,3.6835572264,-4.0120668924,0.4881873904\C,0,1.60845373
 41,-4.5613718351,0.2293712405\H,0,1.4016116529,-4.1023940345,1.1986471
 2\H,0,1.631687198,-5.6496996903,0.3587636301\N,0,0.5347282637,-4.14131
 9303,-0.6865806475\H,0,0.8010394231,-4.0568080693,-1.657199619\N,0,-1.
 1916775752,-4.7092339401,0.7597876115\H,0,-2.1332385689,-4.4932296163,
 1.0536391442\H,0,-0.5163875002,-4.7902557452,1.5056167051\N,0,-1.65815
 49878,-3.9575148457,-1.4063287472\H,0,-2.6290948162,-3.8547978952,-1.1
 492653178\H,0,-1.3568480379,-3.3409039676,-2.1508188694\C,0,-0.7657080
 31,-4.2626884341,-0.4387264309\O,0,4.8621989351,-4.4458214991,-4.35586
 28571\H,0,4.1014668859,1.2981299105,-6.176737765\H,0,5.2731117583,-5.0
 309709242,-5.0126375407\\Version=ES64L-G16RevC.01\HF=-2974.0749884\RMS
 D=3.416e-09\Dipole=5.4129892,-9.6277851,10.6628035\Quadrupole=-174.048
 0959,-6.4981053,180.5462012,65.8434167,-134.8815368,-86.1577751\PG=C01
  [X(C41H61N10O11)]\\@
 The archive entry for this job was punched.


 There ain't no surer way to find out whether you
 like people or hate them than to travel with them.
                                     -- Mark Twain
 Job cpu time:       0 days  0 hours  8 minutes 32.1 seconds.
 Elapsed time:       0 days  0 hours  2 minutes 11.0 seconds.
 File lengths (MBytes):  RWF=    816 Int=      0 D2E=      0 Chk=    128 Scr=     32
 Normal termination of Gaussian 16 at Sun Aug  7 18:57:02 2022.
