 Entering Gaussian System, Link 0=/opt/software/Gaussian/g16-AVX2-C.01/g16/g16
 Input=charge-conf-231.com
 Output=charge-conf-231.log
 Initial command:
 /opt/software/Gaussian/g16-AVX2-C.01/g16/l1.exe "/mnt/gs21/scratch/kengmith/Gau-83320.inp" -scrdir="/mnt/gs21/scratch/kengmith/"
 Entering Link 1 = /opt/software/Gaussian/g16-AVX2-C.01/g16/l1.exe PID=     83356.
  
 Copyright (c) 1988-2019, Gaussian, Inc.  All Rights Reserved.
  
 This is part of the Gaussian(R) 16 program.  It is based on
 the Gaussian(R) 09 system (copyright 2009, Gaussian, Inc.),
 the Gaussian(R) 03 system (copyright 2003, Gaussian, Inc.),
 the Gaussian(R) 98 system (copyright 1998, Gaussian, Inc.),
 the Gaussian(R) 94 system (copyright 1995, Gaussian, Inc.),
 the Gaussian 92(TM) system (copyright 1992, Gaussian, Inc.),
 the Gaussian 90(TM) system (copyright 1990, Gaussian, Inc.),
 the Gaussian 88(TM) system (copyright 1988, Gaussian, Inc.),
 the Gaussian 86(TM) system (copyright 1986, Carnegie Mellon
 University), and the Gaussian 82(TM) system (copyright 1983,
 Carnegie Mellon University). Gaussian is a federally registered
 trademark of Gaussian, Inc.
  
 This software contains proprietary and confidential information,
 including trade secrets, belonging to Gaussian, Inc.
  
 This software is provided under written license and may be
 used, copied, transmitted, or stored only in accord with that
 written license.
  
 The following legend is applicable only to US Government
 contracts under FAR:
  
                    RESTRICTED RIGHTS LEGEND
  
 Use, reproduction and disclosure by the US Government is
 subject to restrictions as set forth in subparagraphs (a)
 and (c) of the Commercial Computer Software - Restricted
 Rights clause in FAR 52.227-19.
  
 Gaussian, Inc.
 340 Quinnipiac St., Bldg. 40, Wallingford CT 06492
  
  
 ---------------------------------------------------------------
 Warning -- This program may not be used in any manner that
 competes with the business of Gaussian, Inc. or will provide
 assistance to any competitor of Gaussian, Inc.  The licensee
 of this program is prohibited from giving any competitor of
 Gaussian, Inc. access to this program.  By using this program,
 the user acknowledges that Gaussian, Inc. is engaged in the
 business of creating and licensing software in the field of
 computational chemistry and represents and warrants to the
 licensee that it is not a competitor of Gaussian, Inc. and that
 it will not use this program in any manner prohibited above.
 ---------------------------------------------------------------
  

 Cite this work as:
 Gaussian 16, Revision C.01,
 M. J. Frisch, G. W. Trucks, H. B. Schlegel, G. E. Scuseria, 
 M. A. Robb, J. R. Cheeseman, G. Scalmani, V. Barone, 
 G. A. Petersson, H. Nakatsuji, X. Li, M. Caricato, A. V. Marenich, 
 J. Bloino, B. G. Janesko, R. Gomperts, B. Mennucci, H. P. Hratchian, 
 J. V. Ortiz, A. F. Izmaylov, J. L. Sonnenberg, D. Williams-Young, 
 F. Ding, F. Lipparini, F. Egidi, J. Goings, B. Peng, A. Petrone, 
 T. Henderson, D. Ranasinghe, V. G. Zakrzewski, J. Gao, N. Rega, 
 G. Zheng, W. Liang, M. Hada, M. Ehara, K. Toyota, R. Fukuda, 
 J. Hasegawa, M. Ishida, T. Nakajima, Y. Honda, O. Kitao, H. Nakai, 
 T. Vreven, K. Throssell, J. A. Montgomery, Jr., J. E. Peralta, 
 F. Ogliaro, M. J. Bearpark, J. J. Heyd, E. N. Brothers, K. N. Kudin, 
 V. N. Staroverov, T. A. Keith, R. Kobayashi, J. Normand, 
 K. Raghavachari, A. P. Rendell, J. C. Burant, S. S. Iyengar, 
 J. Tomasi, M. Cossi, J. M. Millam, M. Klene, C. Adamo, R. Cammi, 
 J. W. Ochterski, R. L. Martin, K. Morokuma, O. Farkas, 
 J. B. Foresman, and D. J. Fox, Gaussian, Inc., Wallingford CT, 2019.
 
 ******************************************
 Gaussian 16:  ES64L-G16RevC.01  3-Jul-2019
                 7-Aug-2022 
 ******************************************
 %mem=8gb
 %nproc=4
 Will use up to    4 processors via shared memory.
 %chk=conf-231.chk
 ----------------------------------------------------------------------
 # B3LYP/6-31G* empiricaldispersion=gd3 guess=read geom=check nosymm in
 tegral(ultrafinegrid)
 ----------------------------------------------------------------------
 1/29=2,38=1,172=1/1;
 2/12=2,15=1,40=1/2;
 3/5=1,6=6,7=1,11=2,14=-4,25=1,30=1,74=-5,75=-5,116=-2,124=31/1,2,3;
 4/5=1/1;
 5/5=2,38=6/2;
 6/7=2,8=2,9=2,10=2,28=1/1;
 99/5=1,9=1/99;
 ------------------------------------------------------
 Candidate Structure: Conf:231 Charge calc in gas phase
 ------------------------------------------------------
 Structure from the checkpoint file:  "conf-231.chk"
 Charge =  1 Multiplicity = 1
 Redundant internal coordinates found in file.  (old form).
 N,0,-10.8755574309,7.0951331656,0.1754327028
 H,0,-11.1629264469,6.7322365487,-0.736090079
 H,0,-11.1364350556,8.079041962,0.236995505
 H,0,-11.3820330307,6.5546830694,0.889720994
 C,0,-9.4232041263,6.8809360897,0.4213171266
 H,0,-8.8489878104,7.2223176296,-0.443998697
 C,0,-9.238565766,5.3772252906,0.6471981758
 C,0,-8.9590133059,7.6559918205,1.6655268484
 H,0,-9.5305670408,7.2909333606,2.5238428774
 H,0,-9.2097547869,8.7127206577,1.5196792277
 O,0,-10.1416752164,4.726397836,1.166059466
 C,0,-7.4790531391,7.4814618203,1.9036871022
 C,0,-7.014858913,6.5936752276,2.8753528387
 H,0,-7.7265566638,6.0231801111,3.465907227
 C,0,-6.5553563328,8.1696870807,1.1148900987
 H,0,-6.9174261879,8.8455332949,0.3439539514
 C,0,-5.6449665797,6.4171634972,3.0689148171
 H,0,-5.2954096292,5.7235293759,3.8276011393
 C,0,-5.1862679984,7.9939733636,1.307223627
 H,0,-4.4817152006,8.5419269089,0.6918430168
 C,0,-4.7284516056,7.1176526422,2.2885533946
 H,0,-3.6643357138,6.9804399028,2.4421190126
 N,0,-8.0463116101,4.8777994323,0.2858880155
 H,0,-7.2970277103,5.4938964272,-0.0092987498
 C,0,-7.6153626306,3.5454420455,0.6866137556
 H,0,-8.1147891777,3.2889173337,1.6255108203
 C,0,-6.1064647886,3.6425967268,0.9000432682
 C,0,-7.9491698147,2.4914905106,-0.3708669097
 H,0,-7.5846919712,1.5103326963,-0.052406514
 H,0,-7.467259876,2.7480309568,-1.31725471
 H,0,-9.0293994311,2.4406656823,-0.5229830217
 O,0,-5.4113977345,4.3431319631,0.1749576989
 N,0,-5.6166309232,2.9084725868,1.9361346104
 H,0,-6.1815130332,2.1269474197,2.237011813
 C,0,-4.1851724762,2.6649592786,2.0352259381
 H,0,-3.6895675669,3.5484576039,1.6288830436
 C,0,-3.8493269456,1.4334325045,1.175668104
 C,0,-3.7792279161,2.4454056664,3.4899880264
 H,0,-2.7005964456,2.290214875,3.5726573771
 H,0,-4.2862061535,1.5668402224,3.9005319026
 H,0,-4.0564599632,3.3171940429,4.0881148875
 O,0,-4.6950793507,0.5813029911,0.9279801768
 N,0,-2.5681090042,1.3473775536,0.7644404969
 H,0,-1.8657956341,2.0250436559,1.0275252021
 C,0,-2.088218086,0.2023368333,0.0191700902
 H,0,-2.5339104411,-0.7039676704,0.4384361084
 C,0,-0.5688378066,0.182790391,0.1861950596
 C,0,-2.5161343458,0.2555886192,-1.4794683449
 H,0,-3.6044136194,0.3473965821,-1.4727651268
 H,0,-2.0958447284,1.1493478297,-1.9524304745
 O,0,0.0287210345,1.19474527,0.5707806666
 C,0,-2.0846415036,-0.9916243194,-2.1868119397
 C,0,-0.9331989278,-1.0317336036,-2.993665397
 H,0,-0.433723838,-0.1025687084,-3.2468667039
 C,0,-2.6909996843,-2.2157153124,-1.8437253473
 H,0,-3.5882540166,-2.186947865,-1.2228572716
 C,0,-0.3678275114,-2.2173676072,-3.3791984695
 H,0,0.5576414587,-2.2253259567,-3.9434859621
 C,0,-2.144225007,-3.4234875463,-2.199548506
 H,0,-2.5951059343,-4.3615355048,-1.8951257924
 O,0,-0.3391950545,-4.5745582156,-3.2175195127
 C,0,-0.9008902253,-3.4964966126,-2.9530869625
 N,0,0.0638907219,-0.9659701049,-0.1363918354
 H,0,-0.4432524556,-1.6372254475,-0.7128182525
 C,0,1.5290979768,-1.0395911826,-0.2053801962
 H,0,1.8973003875,-0.4509623666,0.6364529633
 C,0,1.9737181373,-0.3625391952,-1.5064497848
 C,0,1.9832268752,-2.488947778,-0.1032025532
 H,0,1.4596697118,-2.9404883995,0.7455731568
 H,0,1.6558325876,-3.0130011641,-1.0069533635
 O,0,2.3539344059,-0.9868445471,-2.5043126702
 C,0,3.4940764395,-2.6869130445,0.0771323216
 H,0,3.9972380736,-2.1681127749,-0.7489103296
 C,0,4.0000421659,-2.112477139,1.4008794819
 H,0,3.5291454638,-2.629227587,2.2444341086
 H,0,5.0826448726,-2.2433437131,1.490956281
 H,0,3.7862939825,-1.0442908757,1.4976457554
 C,0,3.8250509869,-4.1780419936,-0.0235835435
 H,0,3.3144027497,-4.737741998,0.7664649413
 H,0,3.5090431919,-4.5876279061,-0.9867363433
 H,0,4.9003860657,-4.3515358882,0.083376472
 N,0,1.874552648,0.9865437321,-1.4964219002
 H,0,1.4971532078,1.4153306124,-0.6555488779
 C,0,1.7620809714,1.7608139196,-2.7283646949
 H,0,1.3326506314,1.0978626602,-3.4905552236
 C,0,3.1445063563,2.1927346922,-3.2373938798
 C,0,0.8303637226,2.9475783086,-2.4740127105
 H,0,0.0186542002,2.6066953364,-1.8218221107
 H,0,1.3895339569,3.7139863667,-1.9298423697
 O,0,3.4674273788,3.358353574,-3.4230375994
 C,0,0.2154682429,3.5545427999,-3.7421022823
 H,0,0.9939218231,3.8539130482,-4.4442327654
 H,0,-0.3742657871,4.4341247179,-3.4704738284
 C,0,-0.6896112817,2.5455019607,-4.3946962669
 O,0,-0.4712206683,1.9327742612,-5.4091595802
 O,0,-1.8137897532,2.3390536942,-3.6477470618
 N,0,3.9941255045,1.1543372503,-3.4525681621
 H,0,3.6047510022,0.2159671054,-3.4308997666
 C,0,5.2751884619,1.3831646917,-4.0784841044
 H,0,5.7454660701,2.2477027398,-3.5999037928
 C,0,5.0971219973,1.6956699083,-5.5588844102
 C,0,6.1492954643,0.1329734016,-3.8990336564
 H,0,5.690811515,-0.6937632175,-4.4517881963
 H,0,6.1139413148,-0.1271704282,-2.8362337856
 O,0,4.2307294237,1.2524616559,-6.2677169958
 C,0,7.6013474212,0.311182272,-4.3311867282
 H,0,8.0357855932,1.1732505839,-3.8162142977
 H,0,7.6572760602,0.5180826542,-5.403441515
 C,0,8.4236296591,-0.9284775041,-4.0096984363
 H,0,7.9978197705,-1.8046734091,-4.5165941086
 H,0,8.3855356619,-1.1162015822,-2.9316417901
 N,0,9.8275845973,-0.7260963741,-4.4115792008
 H,0,9.9481367698,-0.1682898556,-5.2472502484
 N,0,10.5028413891,-2.8009635981,-3.5520776249
 H,0,11.2644892238,-3.3484124579,-3.1810399172
 H,0,9.6278771087,-2.8740287421,-3.0581136049
 N,0,11.9870870201,-1.4857522129,-4.8044825073
 H,0,12.7419439864,-2.0868667037,-4.5075028873
 H,0,12.2657053654,-0.5320033832,-4.9943198724
 C,0,10.7699945189,-1.6705725668,-4.2343368876
 O,0,6.0823221207,2.5102021046,-6.0109639939
 H,0,-2.3137641631,1.6392905885,-4.0955533948
 H,0,5.9128656581,2.6355255365,-6.9572936216
 Recover connectivity data from disk.
                           ----------------------------
                           !    Current Parameters    !
                           ! (Angstroms and Degrees)  !
 --------------------------                            --------------------------
 ! Name  Definition              Value                                          !
 --------------------------------------------------------------------------------
 ! R1    R(1,2)                  1.0223                                         !
 ! R2    R(1,3)                  1.0198                                         !
 ! R3    R(1,4)                  1.029                                          !
 ! R4    R(1,5)                  1.4885                                         !
 ! R5    R(5,6)                  1.0932                                         !
 ! R6    R(5,7)                  1.5318                                         !
 ! R7    R(5,8)                  1.5376                                         !
 ! R8    R(7,11)                 1.2282                                         !
 ! R9    R(7,23)                 1.3422                                         !
 ! R10   R(8,9)                  1.0939                                         !
 ! R11   R(8,10)                 1.0958                                         !
 ! R12   R(8,12)                 1.5091                                         !
 ! R13   R(12,13)                1.3956                                         !
 ! R14   R(12,15)                1.3961                                         !
 ! R15   R(13,14)                1.0866                                         !
 ! R16   R(13,17)                1.3947                                         !
 ! R17   R(15,16)                1.0873                                         !
 ! R18   R(15,19)                1.3937                                         !
 ! R19   R(17,18)                1.0858                                         !
 ! R20   R(17,21)                1.3927                                         !
 ! R21   R(19,20)                1.0841                                         !
 ! R22   R(19,21)                1.393                                          !
 ! R23   R(21,22)                1.0839                                         !
 ! R24   R(23,24)                1.014                                          !
 ! R25   R(23,25)                1.4565                                         !
 ! R26   R(25,26)                1.094                                          !
 ! R27   R(25,27)                1.527                                          !
 ! R28   R(25,28)                1.5299                                         !
 ! R29   R(27,32)                1.2246                                         !
 ! R30   R(27,33)                1.361                                          !
 ! R31   R(28,29)                1.094                                          !
 ! R32   R(28,30)                1.0926                                         !
 ! R33   R(28,31)                1.0921                                         !
 ! R34   R(33,34)                1.0101                                         !
 ! R35   R(33,35)                1.4554                                         !
 ! R36   R(35,36)                1.0915                                         !
 ! R37   R(35,37)                1.5389                                         !
 ! R38   R(35,38)                1.5262                                         !
 ! R39   R(37,42)                1.2259                                         !
 ! R40   R(37,43)                1.3483                                         !
 ! R41   R(38,39)                1.0929                                         !
 ! R42   R(38,40)                1.0943                                         !
 ! R43   R(38,41)                1.093                                          !
 ! R44   R(43,44)                1.0108                                         !
 ! R45   R(43,45)                1.448                                          !
 ! R46   R(45,46)                1.0935                                         !
 ! R47   R(45,47)                1.5287                                         !
 ! R48   R(45,48)                1.5594                                         !
 ! R49   R(47,51)                1.2365                                         !
 ! R50   R(47,63)                1.3506                                         !
 ! R51   R(48,49)                1.0922                                         !
 ! R52   R(48,50)                1.0951                                         !
 ! R53   R(48,52)                1.4974                                         !
 ! R54   R(52,53)                1.4066                                         !
 ! R55   R(52,55)                1.4085                                         !
 ! R56   R(53,54)                1.0849                                         !
 ! R57   R(53,57)                1.3689                                         !
 ! R58   R(55,56)                1.0915                                         !
 ! R59   R(55,59)                1.3727                                         !
 ! R60   R(57,58)                1.084                                          !
 ! R61   R(57,62)                1.4498                                         !
 ! R62   R(59,60)                1.0844                                         !
 ! R63   R(59,62)                1.4557                                         !
 ! R64   R(61,62)                1.244                                          !
 ! R65   R(63,64)                1.0198                                         !
 ! R66   R(63,65)                1.4687                                         !
 ! R67   R(65,66)                1.0912                                         !
 ! R68   R(65,67)                1.5326                                         !
 ! R69   R(65,68)                1.5223                                         !
 ! R70   R(67,71)                1.237                                          !
 ! R71   R(67,82)                1.3528                                         !
 ! R72   R(68,69)                1.0947                                         !
 ! R73   R(68,70)                1.0948                                         !
 ! R74   R(68,72)                1.5344                                         !
 ! R75   R(72,73)                1.0976                                         !
 ! R76   R(72,74)                1.5291                                         !
 ! R77   R(72,78)                1.5307                                         !
 ! R78   R(74,75)                1.0956                                         !
 ! R79   R(74,76)                1.0942                                         !
 ! R80   R(74,77)                1.0937                                         !
 ! R81   R(78,79)                1.0946                                         !
 ! R82   R(78,80)                1.0933                                         !
 ! R83   R(78,81)                1.0945                                         !
 ! R84   R(82,83)                1.0165                                         !
 ! R85   R(82,84)                1.4594                                         !
 ! R86   R(84,85)                1.0977                                         !
 ! R87   R(84,86)                1.5352                                         !
 ! R88   R(84,87)                1.5301                                         !
 ! R89   R(86,90)                1.2237                                         !
 ! R90   R(86,97)                1.3588                                         !
 ! R91   R(87,88)                1.0956                                         !
 ! R92   R(87,89)                1.0937                                         !
 ! R93   R(87,91)                1.5345                                         !
 ! R94   R(91,92)                1.0902                                         !
 ! R95   R(91,93)                1.0933                                         !
 ! R96   R(91,94)                1.5044                                         !
 ! R97   R(94,95)                1.2051                                         !
 ! R98   R(94,96)                1.3654                                         !
 ! R99   R(96,122)               0.9696                                         !
 ! R100  R(97,98)                1.0162                                         !
 ! R101  R(97,99)                1.444                                          !
 ! R102  R(99,100)               1.0944                                         !
 ! R103  R(99,101)               1.5235                                         !
 ! R104  R(99,102)               1.536                                          !
 ! R105  R(101,105)              1.204                                          !
 ! R106  R(101,121)              1.3559                                         !
 ! R107  R(102,103)              1.0951                                         !
 ! R108  R(102,104)              1.0947                                         !
 ! R109  R(102,106)              1.5254                                         !
 ! R110  R(106,107)              1.0941                                         !
 ! R111  R(106,108)              1.0935                                         !
 ! R112  R(106,109)              1.5219                                         !
 ! R113  R(109,110)              1.0982                                         !
 ! R114  R(109,111)              1.0949                                         !
 ! R115  R(109,112)              1.4743                                         !
 ! R116  R(112,113)              1.0119                                         !
 ! R117  R(112,120)              1.346                                          !
 ! R118  R(114,115)              1.0087                                         !
 ! R119  R(114,116)              1.0074                                         !
 ! R120  R(114,120)              1.3471                                         !
 ! R121  R(117,118)              1.0096                                         !
 ! R122  R(117,119)              1.0116                                         !
 ! R123  R(117,120)              1.3567                                         !
 ! R124  R(121,123)              0.9695                                         !
 ! A1    A(2,1,3)              108.9296                                         !
 ! A2    A(2,1,4)              107.1056                                         !
 ! A3    A(2,1,5)              111.7446                                         !
 ! A4    A(3,1,4)              109.8119                                         !
 ! A5    A(3,1,5)              112.2392                                         !
 ! A6    A(4,1,5)              106.8582                                         !
 ! A7    A(1,5,6)              109.6832                                         !
 ! A8    A(1,5,7)              106.4536                                         !
 ! A9    A(1,5,8)              110.8358                                         !
 ! A10   A(6,5,7)              111.0989                                         !
 ! A11   A(6,5,8)              108.9372                                         !
 ! A12   A(7,5,8)              109.8233                                         !
 ! A13   A(5,7,11)             119.5958                                         !
 ! A14   A(5,7,23)             115.637                                          !
 ! A15   A(11,7,23)            124.7318                                         !
 ! A16   A(5,8,9)              107.9966                                         !
 ! A17   A(5,8,10)             108.0176                                         !
 ! A18   A(5,8,12)             111.436                                          !
 ! A19   A(9,8,10)             107.8599                                         !
 ! A20   A(9,8,12)             110.4854                                         !
 ! A21   A(10,8,12)            110.9113                                         !
 ! A22   A(8,12,13)            120.6384                                         !
 ! A23   A(8,12,15)            120.1766                                         !
 ! A24   A(13,12,15)           119.1364                                         !
 ! A25   A(12,13,14)           119.6376                                         !
 ! A26   A(12,13,17)           120.2528                                         !
 ! A27   A(14,13,17)           120.0953                                         !
 ! A28   A(12,15,16)           119.1245                                         !
 ! A29   A(12,15,19)           120.6532                                         !
 ! A30   A(16,15,19)           120.2222                                         !
 ! A31   A(13,17,18)           119.606                                          !
 ! A32   A(13,17,21)           120.3281                                         !
 ! A33   A(18,17,21)           120.0642                                         !
 ! A34   A(15,19,20)           119.7595                                         !
 ! A35   A(15,19,21)           119.9595                                         !
 ! A36   A(20,19,21)           120.2809                                         !
 ! A37   A(17,21,19)           119.6596                                         !
 ! A38   A(17,21,22)           120.2006                                         !
 ! A39   A(19,21,22)           120.1396                                         !
 ! A40   A(7,23,24)            120.5769                                         !
 ! A41   A(7,23,25)            121.9474                                         !
 ! A42   A(24,23,25)           114.6619                                         !
 ! A43   A(23,25,26)           108.3941                                         !
 ! A44   A(23,25,27)           105.8201                                         !
 ! A45   A(23,25,28)           112.0524                                         !
 ! A46   A(26,25,27)           110.2475                                         !
 ! A47   A(26,25,28)           109.3955                                         !
 ! A48   A(27,25,28)           110.8577                                         !
 ! A49   A(25,27,32)           120.9639                                         !
 ! A50   A(25,27,33)           115.3228                                         !
 ! A51   A(32,27,33)           123.7131                                         !
 ! A52   A(25,28,29)           110.1169                                         !
 ! A53   A(25,28,30)           109.9219                                         !
 ! A54   A(25,28,31)           110.1312                                         !
 ! A55   A(29,28,30)           108.4075                                         !
 ! A56   A(29,28,31)           109.1682                                         !
 ! A57   A(30,28,31)           109.0608                                         !
 ! A58   A(27,33,34)           116.2827                                         !
 ! A59   A(27,33,35)           119.7399                                         !
 ! A60   A(34,33,35)           113.5956                                         !
 ! A61   A(33,35,36)           106.6077                                         !
 ! A62   A(33,35,37)           108.09                                           !
 ! A63   A(33,35,38)           110.5224                                         !
 ! A64   A(36,35,37)           109.9217                                         !
 ! A65   A(36,35,38)           110.5198                                         !
 ! A66   A(37,35,38)           111.0529                                         !
 ! A67   A(35,37,42)           121.2357                                         !
 ! A68   A(35,37,43)           115.3909                                         !
 ! A69   A(42,37,43)           123.3384                                         !
 ! A70   A(35,38,39)           110.7963                                         !
 ! A71   A(35,38,40)           110.4798                                         !
 ! A72   A(35,38,41)           109.8411                                         !
 ! A73   A(39,38,40)           108.3531                                         !
 ! A74   A(39,38,41)           108.7966                                         !
 ! A75   A(40,38,41)           108.5155                                         !
 ! A76   A(37,43,44)           122.5515                                         !
 ! A77   A(37,43,45)           121.4895                                         !
 ! A78   A(44,43,45)           115.7112                                         !
 ! A79   A(43,45,46)           108.8421                                         !
 ! A80   A(43,45,47)           106.4555                                         !
 ! A81   A(43,45,48)           112.1272                                         !
 ! A82   A(46,45,47)           110.6469                                         !
 ! A83   A(46,45,48)           106.5539                                         !
 ! A84   A(47,45,48)           112.2208                                         !
 ! A85   A(45,47,51)           120.2541                                         !
 ! A86   A(45,47,63)           116.7708                                         !
 ! A87   A(51,47,63)           122.9547                                         !
 ! A88   A(45,48,49)           105.688                                          !
 ! A89   A(45,48,50)           109.7319                                         !
 ! A90   A(45,48,52)           110.2709                                         !
 ! A91   A(49,48,50)           108.4504                                         !
 ! A92   A(49,48,52)           111.104                                          !
 ! A93   A(50,48,52)           111.4198                                         !
 ! A94   A(48,52,53)           122.0484                                         !
 ! A95   A(48,52,55)           118.998                                          !
 ! A96   A(53,52,55)           117.8637                                         !
 ! A97   A(52,53,54)           119.1011                                         !
 ! A98   A(52,53,57)           121.6235                                         !
 ! A99   A(54,53,57)           119.0725                                         !
 ! A100  A(52,55,56)           118.005                                          !
 ! A101  A(52,55,59)           122.0092                                         !
 ! A102  A(56,55,59)           119.8726                                         !
 ! A103  A(53,57,58)           120.3698                                         !
 ! A104  A(53,57,62)           121.9727                                         !
 ! A105  A(58,57,62)           117.416                                          !
 ! A106  A(55,59,60)           121.5154                                         !
 ! A107  A(55,59,62)           121.2335                                         !
 ! A108  A(60,59,62)           117.1983                                         !
 ! A109  A(57,62,59)           114.957                                          !
 ! A110  A(57,62,61)           122.4175                                         !
 ! A111  A(59,62,61)           122.6249                                         !
 ! A112  A(47,63,64)           117.5086                                         !
 ! A113  A(47,63,65)           121.4153                                         !
 ! A114  A(64,63,65)           115.8849                                         !
 ! A115  A(63,65,66)           105.8637                                         !
 ! A116  A(63,65,67)           107.8879                                         !
 ! A117  A(63,65,68)           110.0105                                         !
 ! A118  A(66,65,67)           108.5861                                         !
 ! A119  A(66,65,68)           111.1706                                         !
 ! A120  A(67,65,68)           113.0194                                         !
 ! A121  A(65,67,71)           123.439                                          !
 ! A122  A(65,67,82)           114.3938                                         !
 ! A123  A(71,67,82)           122.1308                                         !
 ! A124  A(65,68,69)           107.5826                                         !
 ! A125  A(65,68,70)           108.1272                                         !
 ! A126  A(65,68,72)           115.1173                                         !
 ! A127  A(69,68,70)           107.432                                          !
 ! A128  A(69,68,72)           109.0611                                         !
 ! A129  A(70,68,72)           109.2516                                         !
 ! A130  A(68,72,73)           107.5752                                         !
 ! A131  A(68,72,74)           112.2766                                         !
 ! A132  A(68,72,78)           109.3202                                         !
 ! A133  A(73,72,74)           108.7999                                         !
 ! A134  A(73,72,78)           108.1682                                         !
 ! A135  A(74,72,78)           110.5701                                         !
 ! A136  A(72,74,75)           110.3116                                         !
 ! A137  A(72,74,76)           110.7145                                         !
 ! A138  A(72,74,77)           112.2617                                         !
 ! A139  A(75,74,76)           107.7856                                         !
 ! A140  A(75,74,77)           107.9717                                         !
 ! A141  A(76,74,77)           107.6322                                         !
 ! A142  A(72,78,79)           110.4709                                         !
 ! A143  A(72,78,80)           111.1253                                         !
 ! A144  A(72,78,81)           111.1262                                         !
 ! A145  A(79,78,80)           108.0257                                         !
 ! A146  A(79,78,81)           107.864                                          !
 ! A147  A(80,78,81)           108.1011                                         !
 ! A148  A(67,82,83)           117.0013                                         !
 ! A149  A(67,82,84)           121.9037                                         !
 ! A150  A(83,82,84)           116.4791                                         !
 ! A151  A(82,84,85)           107.2102                                         !
 ! A152  A(82,84,86)           111.086                                          !
 ! A153  A(82,84,87)           108.548                                          !
 ! A154  A(85,84,86)           106.9768                                         !
 ! A155  A(85,84,87)           110.2214                                         !
 ! A156  A(86,84,87)           112.6585                                         !
 ! A157  A(84,86,90)           123.7752                                         !
 ! A158  A(84,86,97)           113.6124                                         !
 ! A159  A(90,86,97)           122.6086                                         !
 ! A160  A(84,87,88)           107.9847                                         !
 ! A161  A(84,87,89)           108.3546                                         !
 ! A162  A(84,87,91)           114.4208                                         !
 ! A163  A(88,87,89)           107.495                                          !
 ! A164  A(88,87,91)           108.5492                                         !
 ! A165  A(89,87,91)           109.8082                                         !
 ! A166  A(87,91,92)           110.7759                                         !
 ! A167  A(87,91,93)           109.2128                                         !
 ! A168  A(87,91,94)           109.5278                                         !
 ! A169  A(92,91,93)           108.9202                                         !
 ! A170  A(92,91,94)           109.535                                          !
 ! A171  A(93,91,94)           108.8371                                         !
 ! A172  A(91,94,95)           126.6675                                         !
 ! A173  A(91,94,96)           111.0658                                         !
 ! A174  A(95,94,96)           122.1977                                         !
 ! A175  A(94,96,122)          106.3204                                         !
 ! A176  A(86,97,98)           117.5622                                         !
 ! A177  A(86,97,99)           120.1477                                         !
 ! A178  A(98,97,99)           119.7028                                         !
 ! A179  A(97,99,100)          108.4731                                         !
 ! A180  A(97,99,101)          110.4879                                         !
 ! A181  A(97,99,102)          108.98                                           !
 ! A182  A(100,99,101)         108.248                                          !
 ! A183  A(100,99,102)         110.3259                                         !
 ! A184  A(101,99,102)         110.3042                                         !
 ! A185  A(99,101,105)         125.5003                                         !
 ! A186  A(99,101,121)         111.241                                          !
 ! A187  A(105,101,121)        123.211                                          !
 ! A188  A(99,102,103)         108.4964                                         !
 ! A189  A(99,102,104)         106.7657                                         !
 ! A190  A(99,102,106)         114.4263                                         !
 ! A191  A(103,102,104)        107.2839                                         !
 ! A192  A(103,102,106)        110.1042                                         !
 ! A193  A(104,102,106)        109.4833                                         !
 ! A194  A(102,106,107)        109.6742                                         !
 ! A195  A(102,106,108)        110.4014                                         !
 ! A196  A(102,106,109)        111.057                                          !
 ! A197  A(107,106,108)        106.9867                                         !
 ! A198  A(107,106,109)        109.1368                                         !
 ! A199  A(108,106,109)        109.4891                                         !
 ! A200  A(106,109,110)        110.0532                                         !
 ! A201  A(106,109,111)        109.1979                                         !
 ! A202  A(106,109,112)        110.1889                                         !
 ! A203  A(110,109,111)        107.709                                          !
 ! A204  A(110,109,112)        110.6677                                         !
 ! A205  A(111,109,112)        108.9688                                         !
 ! A206  A(109,112,113)        114.4703                                         !
 ! A207  A(109,112,120)        122.3134                                         !
 ! A208  A(113,112,120)        114.3392                                         !
 ! A209  A(115,114,116)        115.8538                                         !
 ! A210  A(115,114,120)        119.4705                                         !
 ! A211  A(116,114,120)        118.7795                                         !
 ! A212  A(118,117,119)        114.2437                                         !
 ! A213  A(118,117,120)        117.7759                                         !
 ! A214  A(119,117,120)        117.0264                                         !
 ! A215  A(112,120,114)        121.1094                                         !
 ! A216  A(112,120,117)        118.5033                                         !
 ! A217  A(114,120,117)        120.3368                                         !
 ! A218  A(101,121,123)        106.0274                                         !
 ! D1    D(2,1,5,6)             49.1495                                         !
 ! D2    D(2,1,5,7)            -71.1347                                         !
 ! D3    D(2,1,5,8)            169.4761                                         !
 ! D4    D(3,1,5,6)            -73.5623                                         !
 ! D5    D(3,1,5,7)            166.1536                                         !
 ! D6    D(3,1,5,8)             46.7643                                         !
 ! D7    D(4,1,5,6)            166.0054                                         !
 ! D8    D(4,1,5,7)             45.7213                                         !
 ! D9    D(4,1,5,8)            -73.668                                          !
 ! D10   D(1,5,7,11)           -31.4639                                         !
 ! D11   D(1,5,7,23)           150.5956                                         !
 ! D12   D(6,5,7,11)          -150.8301                                         !
 ! D13   D(6,5,7,23)            31.2294                                         !
 ! D14   D(8,5,7,11)            88.5825                                         !
 ! D15   D(8,5,7,23)           -89.358                                          !
 ! D16   D(1,5,8,9)             60.1774                                         !
 ! D17   D(1,5,8,10)           -56.2304                                         !
 ! D18   D(1,5,8,12)          -178.2983                                         !
 ! D19   D(6,5,8,9)           -179.0531                                         !
 ! D20   D(6,5,8,10)            64.5392                                         !
 ! D21   D(6,5,8,12)           -57.5287                                         !
 ! D22   D(7,5,8,9)            -57.167                                          !
 ! D23   D(7,5,8,10)          -173.5748                                         !
 ! D24   D(7,5,8,12)            64.3573                                         !
 ! D25   D(5,7,23,24)            6.9806                                         !
 ! D26   D(5,7,23,25)          166.9687                                         !
 ! D27   D(11,7,23,24)        -170.8403                                         !
 ! D28   D(11,7,23,25)         -10.8522                                         !
 ! D29   D(5,8,12,13)         -101.2971                                         !
 ! D30   D(5,8,12,15)           76.1467                                         !
 ! D31   D(9,8,12,13)           18.7696                                         !
 ! D32   D(9,8,12,15)         -163.7866                                         !
 ! D33   D(10,8,12,13)         138.3223                                         !
 ! D34   D(10,8,12,15)         -44.2339                                         !
 ! D35   D(8,12,13,14)          -0.0183                                         !
 ! D36   D(8,12,13,17)         178.6087                                         !
 ! D37   D(15,12,13,14)       -177.4884                                         !
 ! D38   D(15,12,13,17)          1.1386                                         !
 ! D39   D(8,12,15,16)           1.2465                                         !
 ! D40   D(8,12,15,19)        -178.6145                                         !
 ! D41   D(13,12,15,16)        178.7286                                         !
 ! D42   D(13,12,15,19)         -1.1325                                         !
 ! D43   D(12,13,17,18)       -179.9804                                         !
 ! D44   D(12,13,17,21)         -0.4522                                         !
 ! D45   D(14,13,17,18)         -1.3597                                         !
 ! D46   D(14,13,17,21)        178.1685                                         !
 ! D47   D(12,15,19,20)       -179.4989                                         !
 ! D48   D(12,15,19,21)          0.4332                                         !
 ! D49   D(16,15,19,20)          0.6415                                         !
 ! D50   D(16,15,19,21)       -179.4263                                         !
 ! D51   D(13,17,21,19)         -0.2587                                         !
 ! D52   D(13,17,21,22)        179.8733                                         !
 ! D53   D(18,17,21,19)        179.2674                                         !
 ! D54   D(18,17,21,22)         -0.6007                                         !
 ! D55   D(15,19,21,17)          0.2684                                         !
 ! D56   D(15,19,21,22)       -179.8634                                         !
 ! D57   D(20,19,21,17)       -179.7998                                         !
 ! D58   D(20,19,21,22)          0.0684                                         !
 ! D59   D(7,23,25,26)         -27.177                                          !
 ! D60   D(7,23,25,27)        -145.4253                                         !
 ! D61   D(7,23,25,28)          93.6401                                         !
 ! D62   D(24,23,25,26)        133.9058                                         !
 ! D63   D(24,23,25,27)         15.6575                                         !
 ! D64   D(24,23,25,28)       -105.277                                          !
 ! D65   D(23,25,27,32)        -37.0423                                         !
 ! D66   D(23,25,27,33)        142.8015                                         !
 ! D67   D(26,25,27,32)       -154.049                                          !
 ! D68   D(26,25,27,33)         25.7948                                         !
 ! D69   D(28,25,27,32)         84.6639                                         !
 ! D70   D(28,25,27,33)        -95.4923                                         !
 ! D71   D(23,25,28,29)        178.2364                                         !
 ! D72   D(23,25,28,30)         58.8666                                         !
 ! D73   D(23,25,28,31)        -61.3197                                         !
 ! D74   D(26,25,28,29)        -61.5277                                         !
 ! D75   D(26,25,28,30)        179.1025                                         !
 ! D76   D(26,25,28,31)         58.9162                                         !
 ! D77   D(27,25,28,29)         60.2598                                         !
 ! D78   D(27,25,28,30)        -59.11                                           !
 ! D79   D(27,25,28,31)       -179.2963                                         !
 ! D80   D(25,27,33,34)         22.3541                                         !
 ! D81   D(25,27,33,35)        165.1322                                         !
 ! D82   D(32,27,33,34)       -157.8069                                         !
 ! D83   D(32,27,33,35)        -15.0288                                         !
 ! D84   D(27,33,35,36)         32.929                                          !
 ! D85   D(27,33,35,37)        -85.2019                                         !
 ! D86   D(27,33,35,38)        153.0763                                         !
 ! D87   D(34,33,35,36)        176.6405                                         !
 ! D88   D(34,33,35,37)         58.5096                                         !
 ! D89   D(34,33,35,38)        -63.2122                                         !
 ! D90   D(33,35,37,42)        -24.9312                                         !
 ! D91   D(33,35,37,43)        157.1492                                         !
 ! D92   D(36,35,37,42)       -140.9207                                         !
 ! D93   D(36,35,37,43)         41.1597                                         !
 ! D94   D(38,35,37,42)         96.4628                                         !
 ! D95   D(38,35,37,43)        -81.4568                                         !
 ! D96   D(33,35,38,39)       -178.3952                                         !
 ! D97   D(33,35,38,40)         61.513                                          !
 ! D98   D(33,35,38,41)        -58.1662                                         !
 ! D99   D(36,35,38,39)        -60.6225                                         !
 ! D100  D(36,35,38,40)        179.2857                                         !
 ! D101  D(36,35,38,41)         59.6065                                         !
 ! D102  D(37,35,38,39)         61.6474                                         !
 ! D103  D(37,35,38,40)        -58.4443                                         !
 ! D104  D(37,35,38,41)       -178.1236                                         !
 ! D105  D(35,37,43,44)          2.1                                            !
 ! D106  D(35,37,43,45)        176.1351                                         !
 ! D107  D(42,37,43,44)       -175.7707                                         !
 ! D108  D(42,37,43,45)         -1.7356                                         !
 ! D109  D(37,43,45,46)        -39.8022                                         !
 ! D110  D(37,43,45,47)       -159.0955                                         !
 ! D111  D(37,43,45,48)         77.8266                                         !
 ! D112  D(44,43,45,46)        134.6187                                         !
 ! D113  D(44,43,45,47)         15.3254                                         !
 ! D114  D(44,43,45,48)       -107.7525                                         !
 ! D115  D(43,45,47,51)        -17.5703                                         !
 ! D116  D(43,45,47,63)        164.0263                                         !
 ! D117  D(46,45,47,51)       -135.6804                                         !
 ! D118  D(46,45,47,63)         45.9163                                         !
 ! D119  D(48,45,47,51)        105.449                                          !
 ! D120  D(48,45,47,63)        -72.9544                                         !
 ! D121  D(43,45,48,49)        -55.7677                                         !
 ! D122  D(43,45,48,50)         60.9744                                         !
 ! D123  D(43,45,48,52)       -175.9278                                         !
 ! D124  D(46,45,48,49)         63.2168                                         !
 ! D125  D(46,45,48,50)        179.959                                          !
 ! D126  D(46,45,48,52)        -56.9433                                         !
 ! D127  D(47,45,48,49)       -175.5319                                         !
 ! D128  D(47,45,48,50)        -58.7897                                         !
 ! D129  D(47,45,48,52)         64.308                                          !
 ! D130  D(45,47,63,64)         17.3975                                         !
 ! D131  D(45,47,63,65)        170.8833                                         !
 ! D132  D(51,47,63,64)       -160.9588                                         !
 ! D133  D(51,47,63,65)         -7.4731                                         !
 ! D134  D(45,48,52,53)       -100.2744                                         !
 ! D135  D(45,48,52,55)         67.5293                                         !
 ! D136  D(49,48,52,53)        142.8844                                         !
 ! D137  D(49,48,52,55)        -49.3119                                         !
 ! D138  D(50,48,52,53)         21.8326                                         !
 ! D139  D(50,48,52,55)       -170.3637                                         !
 ! D140  D(48,52,53,54)        -10.3515                                         !
 ! D141  D(48,52,53,57)        164.423                                          !
 ! D142  D(55,52,53,54)       -178.2872                                         !
 ! D143  D(55,52,53,57)         -3.5127                                         !
 ! D144  D(48,52,55,56)         12.061                                          !
 ! D145  D(48,52,55,59)       -164.0621                                         !
 ! D146  D(53,52,55,56)       -179.625                                          !
 ! D147  D(53,52,55,59)          4.2518                                         !
 ! D148  D(52,53,57,58)       -175.7603                                         !
 ! D149  D(52,53,57,62)         -1.554                                          !
 ! D150  D(54,53,57,58)         -0.9843                                         !
 ! D151  D(54,53,57,62)        173.222                                          !
 ! D152  D(52,55,59,60)        177.3567                                         !
 ! D153  D(52,55,59,62)          0.0733                                         !
 ! D154  D(56,55,59,60)          1.3042                                         !
 ! D155  D(56,55,59,62)       -175.9792                                         !
 ! D156  D(53,57,62,59)          5.6178                                         !
 ! D157  D(53,57,62,61)       -174.6696                                         !
 ! D158  D(58,57,62,59)        179.9872                                         !
 ! D159  D(58,57,62,61)         -0.3002                                         !
 ! D160  D(55,59,62,57)         -4.8646                                         !
 ! D161  D(55,59,62,61)        175.4235                                         !
 ! D162  D(60,59,62,57)        177.7392                                         !
 ! D163  D(60,59,62,61)         -1.9727                                         !
 ! D164  D(47,63,65,66)         40.1481                                         !
 ! D165  D(47,63,65,67)        -75.9494                                         !
 ! D166  D(47,63,65,68)        160.3504                                         !
 ! D167  D(64,63,65,66)       -165.9624                                         !
 ! D168  D(64,63,65,67)         77.9401                                         !
 ! D169  D(64,63,65,68)        -45.76                                           !
 ! D170  D(63,65,67,71)       -104.6309                                         !
 ! D171  D(63,65,67,82)         73.2121                                         !
 ! D172  D(66,65,67,71)        141.0654                                         !
 ! D173  D(66,65,67,82)        -41.0916                                         !
 ! D174  D(68,65,67,71)         17.227                                          !
 ! D175  D(68,65,67,82)       -164.93                                           !
 ! D176  D(63,65,68,69)        -48.2683                                         !
 ! D177  D(63,65,68,70)         67.4793                                         !
 ! D178  D(63,65,68,72)       -170.0654                                         !
 ! D179  D(66,65,68,69)         68.6685                                         !
 ! D180  D(66,65,68,70)       -175.5839                                         !
 ! D181  D(66,65,68,72)        -53.1286                                         !
 ! D182  D(67,65,68,69)       -168.9255                                         !
 ! D183  D(67,65,68,70)        -53.1779                                         !
 ! D184  D(67,65,68,72)         69.2774                                         !
 ! D185  D(65,67,82,83)         -1.7004                                         !
 ! D186  D(65,67,82,84)       -156.7506                                         !
 ! D187  D(71,67,82,83)        176.1742                                         !
 ! D188  D(71,67,82,84)         21.1239                                         !
 ! D189  D(65,68,72,73)        -55.2533                                         !
 ! D190  D(65,68,72,74)         64.4206                                         !
 ! D191  D(65,68,72,78)       -172.4884                                         !
 ! D192  D(69,68,72,73)       -176.2482                                         !
 ! D193  D(69,68,72,74)        -56.5743                                         !
 ! D194  D(69,68,72,78)         66.5167                                         !
 ! D195  D(70,68,72,73)         66.5969                                         !
 ! D196  D(70,68,72,74)       -173.7293                                         !
 ! D197  D(70,68,72,78)        -50.6382                                         !
 ! D198  D(68,72,74,75)         62.2961                                         !
 ! D199  D(68,72,74,76)       -178.4821                                         !
 ! D200  D(68,72,74,77)        -58.1694                                         !
 ! D201  D(73,72,74,75)       -178.7465                                         !
 ! D202  D(73,72,74,76)        -59.5248                                         !
 ! D203  D(73,72,74,77)         60.788                                          !
 ! D204  D(78,72,74,75)        -60.0895                                         !
 ! D205  D(78,72,74,76)         59.1323                                         !
 ! D206  D(78,72,74,77)        179.445                                          !
 ! D207  D(68,72,78,79)        -61.3224                                         !
 ! D208  D(68,72,78,80)         58.5675                                         !
 ! D209  D(68,72,78,81)        178.99                                           !
 ! D210  D(73,72,78,79)       -178.1829                                         !
 ! D211  D(73,72,78,80)        -58.293                                          !
 ! D212  D(73,72,78,81)         62.1294                                         !
 ! D213  D(74,72,78,79)         62.7767                                         !
 ! D214  D(74,72,78,80)       -177.3334                                         !
 ! D215  D(74,72,78,81)        -56.9109                                         !
 ! D216  D(67,82,84,85)         24.9639                                         !
 ! D217  D(67,82,84,86)        -91.5901                                         !
 ! D218  D(67,82,84,87)        144.0159                                         !
 ! D219  D(83,82,84,85)       -130.2085                                         !
 ! D220  D(83,82,84,86)        113.2376                                         !
 ! D221  D(83,82,84,87)        -11.1564                                         !
 ! D222  D(82,84,86,90)       -122.1829                                         !
 ! D223  D(82,84,86,97)         57.1257                                         !
 ! D224  D(85,84,86,90)        121.12                                           !
 ! D225  D(85,84,86,97)        -59.5714                                         !
 ! D226  D(87,84,86,90)         -0.1498                                         !
 ! D227  D(87,84,86,97)        179.1588                                         !
 ! D228  D(82,84,87,88)        -38.1958                                         !
 ! D229  D(82,84,87,89)         77.9535                                         !
 ! D230  D(82,84,87,91)       -159.1746                                         !
 ! D231  D(85,84,87,88)         78.9451                                         !
 ! D232  D(85,84,87,89)       -164.9056                                         !
 ! D233  D(85,84,87,91)        -42.0337                                         !
 ! D234  D(86,84,87,88)       -161.6512                                         !
 ! D235  D(86,84,87,89)        -45.502                                          !
 ! D236  D(86,84,87,91)         77.3699                                         !
 ! D237  D(84,86,97,98)         11.037                                          !
 ! D238  D(84,86,97,99)        172.7525                                         !
 ! D239  D(90,86,97,98)       -169.6453                                         !
 ! D240  D(90,86,97,99)         -7.9298                                         !
 ! D241  D(84,87,91,92)        -56.0435                                         !
 ! D242  D(84,87,91,93)       -176.0082                                         !
 ! D243  D(84,87,91,94)         64.8884                                         !
 ! D244  D(88,87,91,92)       -176.7101                                         !
 ! D245  D(88,87,91,93)         63.3252                                         !
 ! D246  D(88,87,91,94)        -55.7782                                         !
 ! D247  D(89,87,91,92)         66.0384                                         !
 ! D248  D(89,87,91,93)        -53.9263                                         !
 ! D249  D(89,87,91,94)       -173.0297                                         !
 ! D250  D(87,91,94,95)       -107.1031                                         !
 ! D251  D(87,91,94,96)         69.9089                                         !
 ! D252  D(92,91,94,95)         14.5777                                         !
 ! D253  D(92,91,94,96)       -168.4102                                         !
 ! D254  D(93,91,94,95)        133.5619                                         !
 ! D255  D(93,91,94,96)        -49.426                                          !
 ! D256  D(91,94,96,122)      -176.2082                                         !
 ! D257  D(95,94,96,122)         0.9597                                         !
 ! D258  D(86,97,99,100)        46.613                                          !
 ! D259  D(86,97,99,101)       -71.8935                                         !
 ! D260  D(86,97,99,102)       166.7578                                         !
 ! D261  D(98,97,99,100)      -152.0621                                         !
 ! D262  D(98,97,99,101)        89.4314                                         !
 ! D263  D(98,97,99,102)       -31.9173                                         !
 ! D264  D(97,99,101,105)      -32.274                                          !
 ! D265  D(97,99,101,121)      150.1804                                         !
 ! D266  D(100,99,101,105)    -150.9177                                         !
 ! D267  D(100,99,101,121)      31.5367                                         !
 ! D268  D(102,99,101,105)      88.2867                                         !
 ! D269  D(102,99,101,121)     -89.2589                                         !
 ! D270  D(97,99,102,103)       65.2502                                         !
 ! D271  D(97,99,102,104)      -50.0892                                         !
 ! D272  D(97,99,102,106)     -171.3818                                         !
 ! D273  D(100,99,102,103)    -175.755                                          !
 ! D274  D(100,99,102,104)      68.9056                                         !
 ! D275  D(100,99,102,106)     -52.387                                          !
 ! D276  D(101,99,102,103)     -56.2103                                         !
 ! D277  D(101,99,102,104)    -171.5497                                         !
 ! D278  D(101,99,102,106)      67.1577                                         !
 ! D279  D(99,101,121,123)     178.2322                                         !
 ! D280  D(105,101,121,123)      0.6204                                         !
 ! D281  D(99,102,106,107)      54.3591                                         !
 ! D282  D(99,102,106,108)     -63.2867                                         !
 ! D283  D(99,102,106,109)     175.0707                                         !
 ! D284  D(103,102,106,107)    176.8579                                         !
 ! D285  D(103,102,106,108)     59.212                                          !
 ! D286  D(103,102,106,109)    -62.4305                                         !
 ! D287  D(104,102,106,107)    -65.4255                                         !
 ! D288  D(104,102,106,108)    176.9287                                         !
 ! D289  D(104,102,106,109)     55.2861                                         !
 ! D290  D(102,106,109,110)     58.7534                                         !
 ! D291  D(102,106,109,111)    -59.2797                                         !
 ! D292  D(102,106,109,112)   -178.9337                                         !
 ! D293  D(107,106,109,110)    179.7816                                         !
 ! D294  D(107,106,109,111)     61.7486                                         !
 ! D295  D(107,106,109,112)    -57.9054                                         !
 ! D296  D(108,106,109,110)    -63.4209                                         !
 ! D297  D(108,106,109,111)    178.5461                                         !
 ! D298  D(108,106,109,112)     58.8921                                         !
 ! D299  D(106,109,112,113)    -34.7351                                         !
 ! D300  D(106,109,112,120)    179.8145                                         !
 ! D301  D(110,109,112,113)     87.2148                                         !
 ! D302  D(110,109,112,120)    -58.2356                                         !
 ! D303  D(111,109,112,113)   -154.5279                                         !
 ! D304  D(111,109,112,120)     60.0217                                         !
 ! D305  D(109,112,120,114)     -6.936                                          !
 ! D306  D(109,112,120,117)    170.4866                                         !
 ! D307  D(113,112,120,114)   -152.4274                                         !
 ! D308  D(113,112,120,117)     24.9952                                         !
 ! D309  D(115,114,120,112)   -160.763                                          !
 ! D310  D(115,114,120,117)     21.8614                                         !
 ! D311  D(116,114,120,112)     -8.8935                                         !
 ! D312  D(116,114,120,117)    173.7309                                         !
 ! D313  D(118,117,120,112)    167.0102                                         !
 ! D314  D(118,117,120,114)    -15.5466                                         !
 ! D315  D(119,117,120,112)     24.8566                                         !
 ! D316  D(119,117,120,114)   -157.7003                                         !
 --------------------------------------------------------------------------------
 Symmetry turned off by external request.
 Stoichiometry    C41H61N10O11(1+)
 Framework group  C1[X(C41H61N10O11)]
 Deg. of freedom   363
 Full point group                 C1      NOp   1
                          Input orientation:                          
 ---------------------------------------------------------------------
 Center     Atomic      Atomic             Coordinates (Angstroms)
 Number     Number       Type             X           Y           Z
 ---------------------------------------------------------------------
      1          7           0      -10.875557    7.095133    0.175433
      2          1           0      -11.162926    6.732237   -0.736090
      3          1           0      -11.136435    8.079042    0.236996
      4          1           0      -11.382033    6.554683    0.889721
      5          6           0       -9.423204    6.880936    0.421317
      6          1           0       -8.848988    7.222318   -0.443999
      7          6           0       -9.238566    5.377225    0.647198
      8          6           0       -8.959013    7.655992    1.665527
      9          1           0       -9.530567    7.290933    2.523843
     10          1           0       -9.209755    8.712721    1.519679
     11          8           0      -10.141675    4.726398    1.166059
     12          6           0       -7.479053    7.481462    1.903687
     13          6           0       -7.014859    6.593675    2.875353
     14          1           0       -7.726557    6.023180    3.465907
     15          6           0       -6.555356    8.169687    1.114890
     16          1           0       -6.917426    8.845533    0.343954
     17          6           0       -5.644967    6.417163    3.068915
     18          1           0       -5.295410    5.723529    3.827601
     19          6           0       -5.186268    7.993973    1.307224
     20          1           0       -4.481715    8.541927    0.691843
     21          6           0       -4.728452    7.117653    2.288553
     22          1           0       -3.664336    6.980440    2.442119
     23          7           0       -8.046312    4.877799    0.285888
     24          1           0       -7.297028    5.493896   -0.009299
     25          6           0       -7.615363    3.545442    0.686614
     26          1           0       -8.114789    3.288917    1.625511
     27          6           0       -6.106465    3.642597    0.900043
     28          6           0       -7.949170    2.491491   -0.370867
     29          1           0       -7.584692    1.510333   -0.052407
     30          1           0       -7.467260    2.748031   -1.317255
     31          1           0       -9.029399    2.440666   -0.522983
     32          8           0       -5.411398    4.343132    0.174958
     33          7           0       -5.616631    2.908473    1.936135
     34          1           0       -6.181513    2.126947    2.237012
     35          6           0       -4.185172    2.664959    2.035226
     36          1           0       -3.689568    3.548458    1.628883
     37          6           0       -3.849327    1.433433    1.175668
     38          6           0       -3.779228    2.445406    3.489988
     39          1           0       -2.700596    2.290215    3.572657
     40          1           0       -4.286206    1.566840    3.900532
     41          1           0       -4.056460    3.317194    4.088115
     42          8           0       -4.695079    0.581303    0.927980
     43          7           0       -2.568109    1.347378    0.764440
     44          1           0       -1.865796    2.025044    1.027525
     45          6           0       -2.088218    0.202337    0.019170
     46          1           0       -2.533910   -0.703968    0.438436
     47          6           0       -0.568838    0.182790    0.186195
     48          6           0       -2.516134    0.255589   -1.479468
     49          1           0       -3.604414    0.347397   -1.472765
     50          1           0       -2.095845    1.149348   -1.952430
     51          8           0        0.028721    1.194745    0.570781
     52          6           0       -2.084642   -0.991624   -2.186812
     53          6           0       -0.933199   -1.031734   -2.993665
     54          1           0       -0.433724   -0.102569   -3.246867
     55          6           0       -2.691000   -2.215715   -1.843725
     56          1           0       -3.588254   -2.186948   -1.222857
     57          6           0       -0.367828   -2.217368   -3.379198
     58          1           0        0.557641   -2.225326   -3.943486
     59          6           0       -2.144225   -3.423488   -2.199549
     60          1           0       -2.595106   -4.361536   -1.895126
     61          8           0       -0.339195   -4.574558   -3.217520
     62          6           0       -0.900890   -3.496497   -2.953087
     63          7           0        0.063891   -0.965970   -0.136392
     64          1           0       -0.443252   -1.637225   -0.712818
     65          6           0        1.529098   -1.039591   -0.205380
     66          1           0        1.897300   -0.450962    0.636453
     67          6           0        1.973718   -0.362539   -1.506450
     68          6           0        1.983227   -2.488948   -0.103203
     69          1           0        1.459670   -2.940488    0.745573
     70          1           0        1.655833   -3.013001   -1.006953
     71          8           0        2.353934   -0.986845   -2.504313
     72          6           0        3.494076   -2.686913    0.077132
     73          1           0        3.997238   -2.168113   -0.748910
     74          6           0        4.000042   -2.112477    1.400879
     75          1           0        3.529145   -2.629228    2.244434
     76          1           0        5.082645   -2.243344    1.490956
     77          1           0        3.786294   -1.044291    1.497646
     78          6           0        3.825051   -4.178042   -0.023584
     79          1           0        3.314403   -4.737742    0.766465
     80          1           0        3.509043   -4.587628   -0.986736
     81          1           0        4.900386   -4.351536    0.083376
     82          7           0        1.874553    0.986544   -1.496422
     83          1           0        1.497153    1.415331   -0.655549
     84          6           0        1.762081    1.760814   -2.728365
     85          1           0        1.332651    1.097863   -3.490555
     86          6           0        3.144506    2.192735   -3.237394
     87          6           0        0.830364    2.947578   -2.474013
     88          1           0        0.018654    2.606695   -1.821822
     89          1           0        1.389534    3.713986   -1.929842
     90          8           0        3.467427    3.358354   -3.423038
     91          6           0        0.215468    3.554543   -3.742102
     92          1           0        0.993922    3.853913   -4.444233
     93          1           0       -0.374266    4.434125   -3.470474
     94          6           0       -0.689611    2.545502   -4.394696
     95          8           0       -0.471221    1.932774   -5.409160
     96          8           0       -1.813790    2.339054   -3.647747
     97          7           0        3.994126    1.154337   -3.452568
     98          1           0        3.604751    0.215967   -3.430900
     99          6           0        5.275188    1.383165   -4.078484
    100          1           0        5.745466    2.247703   -3.599904
    101          6           0        5.097122    1.695670   -5.558884
    102          6           0        6.149295    0.132973   -3.899034
    103          1           0        5.690812   -0.693763   -4.451788
    104          1           0        6.113941   -0.127170   -2.836234
    105          8           0        4.230729    1.252462   -6.267717
    106          6           0        7.601347    0.311182   -4.331187
    107          1           0        8.035786    1.173251   -3.816214
    108          1           0        7.657276    0.518083   -5.403442
    109          6           0        8.423630   -0.928478   -4.009698
    110          1           0        7.997820   -1.804673   -4.516594
    111          1           0        8.385536   -1.116202   -2.931642
    112          7           0        9.827585   -0.726096   -4.411579
    113          1           0        9.948137   -0.168290   -5.247250
    114          7           0       10.502841   -2.800964   -3.552078
    115          1           0       11.264489   -3.348412   -3.181040
    116          1           0        9.627877   -2.874029   -3.058114
    117          7           0       11.987087   -1.485752   -4.804483
    118          1           0       12.741944   -2.086867   -4.507503
    119          1           0       12.265705   -0.532003   -4.994320
    120          6           0       10.769995   -1.670573   -4.234337
    121          8           0        6.082322    2.510202   -6.010964
    122          1           0       -2.313764    1.639291   -4.095553
    123          1           0        5.912866    2.635526   -6.957294
 ---------------------------------------------------------------------
 Rotational constants (GHZ):           0.0692577           0.0134543           0.0126497
 Standard basis: 6-31G(d) (6D, 7F)
  1052 basis functions,  1980 primitive gaussians,  1052 cartesian basis functions
   232 alpha electrons      232 beta electrons
       nuclear repulsion energy      9349.6245092390 Hartrees.
 NAtoms=  123 NActive=  123 NUniq=  123 SFac= 1.00D+00 NAtFMM=   60 NAOKFM=T Big=T
 Integral buffers will be    131072 words long.
 Raffenetti 2 integral format.
 Two-electron integral symmetry is turned off.
 Nuclear repulsion after empirical dispersion term =     9349.4534135101 Hartrees.
 One-electron integrals computed using PRISM.
 NBasis=  1052 RedAO= T EigKep=  4.54D-04  NBF=  1052
 NBsUse=  1052 1.00D-06 EigRej= -1.00D+00 NBFU=  1052
 Initial guess from the checkpoint file:  "conf-231.chk"
 B after Tr=     0.000000    0.000000    0.000000
         Rot=    1.000000    0.000000    0.000000    0.000000 Ang=   0.00 deg.
 Requested convergence on RMS density matrix=1.00D-08 within 128 cycles.
 Requested convergence on MAX density matrix=1.00D-06.
 Requested convergence on             energy=1.00D-06.
 No special actions if energy rises.
 SCF Done:  E(RB3LYP) =  -2974.07063809     A.U. after    1 cycles
            NFock=  1  Conv=0.34D-08     -V/T= 2.0090
 Hyperfine terms turned off by default for NAtoms > 100.

 **********************************************************************

            Population analysis using the SCF Density.

 **********************************************************************

 Alpha  occ. eigenvalues --  -19.24892 -19.24570 -19.21785 -19.19574 -19.18785
 Alpha  occ. eigenvalues --  -19.16237 -19.16025 -19.15436 -19.15180 -19.14913
 Alpha  occ. eigenvalues --  -19.02734 -14.62395 -14.51116 -14.50622 -14.50494
 Alpha  occ. eigenvalues --  -14.47337 -14.42898 -14.39241 -14.38824 -14.38772
 Alpha  occ. eigenvalues --  -14.38432 -10.45769 -10.41696 -10.40317 -10.36622
 Alpha  occ. eigenvalues --  -10.36403 -10.34435 -10.34205 -10.33636 -10.32488
 Alpha  occ. eigenvalues --  -10.32242 -10.32147 -10.31797 -10.31464 -10.30175
 Alpha  occ. eigenvalues --  -10.29134 -10.28882 -10.28771 -10.28641 -10.28533
 Alpha  occ. eigenvalues --  -10.28089 -10.27972 -10.27804 -10.27070 -10.26271
 Alpha  occ. eigenvalues --  -10.25868 -10.25541 -10.25328 -10.24546 -10.22678
 Alpha  occ. eigenvalues --  -10.22624 -10.21395 -10.20396 -10.20084 -10.19547
 Alpha  occ. eigenvalues --  -10.19089 -10.18412 -10.15765 -10.15689 -10.15244
 Alpha  occ. eigenvalues --  -10.13567 -10.13034  -1.18658  -1.15779  -1.15329
 Alpha  occ. eigenvalues --   -1.15255  -1.12762  -1.11775  -1.08276  -1.07554
 Alpha  occ. eigenvalues --   -1.07360  -1.06637  -1.06222  -1.04782  -1.04064
 Alpha  occ. eigenvalues --   -1.04057  -1.03900  -0.99623  -0.96733  -0.96568
 Alpha  occ. eigenvalues --   -0.96193  -0.95787  -0.95212  -0.93010  -0.92833
 Alpha  occ. eigenvalues --   -0.89894  -0.87126  -0.84996  -0.84400  -0.83876
 Alpha  occ. eigenvalues --   -0.83781  -0.83266  -0.83062  -0.81892  -0.79553
 Alpha  occ. eigenvalues --   -0.79051  -0.78271  -0.76981  -0.76021  -0.75886
 Alpha  occ. eigenvalues --   -0.74955  -0.74874  -0.74486  -0.72999  -0.71874
 Alpha  occ. eigenvalues --   -0.71099  -0.71048  -0.70602  -0.70507  -0.70260
 Alpha  occ. eigenvalues --   -0.69021  -0.68719  -0.68288  -0.67999  -0.67499
 Alpha  occ. eigenvalues --   -0.66829  -0.65067  -0.64587  -0.64022  -0.63722
 Alpha  occ. eigenvalues --   -0.63306  -0.63188  -0.63009  -0.62568  -0.61136
 Alpha  occ. eigenvalues --   -0.60846  -0.60779  -0.60280  -0.60126  -0.60023
 Alpha  occ. eigenvalues --   -0.58500  -0.58213  -0.57793  -0.57149  -0.56924
 Alpha  occ. eigenvalues --   -0.56836  -0.56020  -0.55855  -0.55588  -0.55287
 Alpha  occ. eigenvalues --   -0.54836  -0.54564  -0.53876  -0.53626  -0.53224
 Alpha  occ. eigenvalues --   -0.52855  -0.52821  -0.52075  -0.51949  -0.51447
 Alpha  occ. eigenvalues --   -0.51323  -0.51160  -0.50889  -0.50636  -0.50414
 Alpha  occ. eigenvalues --   -0.50258  -0.50087  -0.49767  -0.48969  -0.48777
 Alpha  occ. eigenvalues --   -0.48631  -0.48425  -0.48003  -0.47812  -0.47244
 Alpha  occ. eigenvalues --   -0.46780  -0.46723  -0.46461  -0.46099  -0.45860
 Alpha  occ. eigenvalues --   -0.45699  -0.45540  -0.45062  -0.44854  -0.44617
 Alpha  occ. eigenvalues --   -0.44490  -0.44254  -0.44103  -0.44059  -0.43682
 Alpha  occ. eigenvalues --   -0.43583  -0.43497  -0.43371  -0.43008  -0.42621
 Alpha  occ. eigenvalues --   -0.42476  -0.42314  -0.41977  -0.41849  -0.41583
 Alpha  occ. eigenvalues --   -0.41297  -0.41150  -0.40959  -0.40700  -0.40024
 Alpha  occ. eigenvalues --   -0.39960  -0.39421  -0.39166  -0.38982  -0.38765
 Alpha  occ. eigenvalues --   -0.38422  -0.38270  -0.37864  -0.37286  -0.36825
 Alpha  occ. eigenvalues --   -0.36800  -0.35577  -0.35318  -0.35009  -0.34906
 Alpha  occ. eigenvalues --   -0.34410  -0.34368  -0.33813  -0.33548  -0.33482
 Alpha  occ. eigenvalues --   -0.32892  -0.32578  -0.31757  -0.31355  -0.30927
 Alpha  occ. eigenvalues --   -0.30285  -0.29776  -0.29570  -0.29302  -0.29157
 Alpha  occ. eigenvalues --   -0.28959  -0.27489  -0.26900  -0.26454  -0.22087
 Alpha  occ. eigenvalues --   -0.16399  -0.13360
 Alpha virt. eigenvalues --   -0.12490  -0.12396  -0.10632  -0.10414  -0.09647
 Alpha virt. eigenvalues --   -0.07453  -0.06341  -0.05595  -0.04764  -0.04429
 Alpha virt. eigenvalues --   -0.03543  -0.02635  -0.02520  -0.02200  -0.02031
 Alpha virt. eigenvalues --   -0.01877  -0.01673  -0.01064  -0.00424  -0.00072
 Alpha virt. eigenvalues --    0.00077   0.00490   0.01754   0.01982   0.02151
 Alpha virt. eigenvalues --    0.03008   0.03092   0.03256   0.03821   0.04125
 Alpha virt. eigenvalues --    0.04778   0.04910   0.05452   0.05663   0.05715
 Alpha virt. eigenvalues --    0.05940   0.06257   0.06560   0.06935   0.07180
 Alpha virt. eigenvalues --    0.07762   0.07847   0.08285   0.08340   0.09054
[...]
 Alpha virt. eigenvalues --    0.97384   0.97971   0.98505   0.98827   0.99147
 Alpha virt. eigenvalues --    0.99440   0.99804   1.00634   1.01130   1.01539
 Alpha virt. eigenvalues --    1.01808   1.02091   1.03133   1.03558   1.03629
 Alpha virt. eigenvalues --    1.03942   1.04340   1.04602   1.04704   1.04988
 Alpha virt. eigenvalues --    1.05819   1.06168   1.06670   1.06951   1.07026
 Alpha virt. eigenvalues --    1.07457   1.07837   1.08951   1.09287   1.09554
 Alpha virt. eigenvalues --    1.09936   1.10206   1.10495   1.11238   1.11512
 Alpha virt. eigenvalues --    1.12119   1.12277   1.12748   1.12811   1.13891
 Alpha virt. eigenvalues --    1.14183   1.14211   1.15072   1.15492   1.15798
 Alpha virt. eigenvalues --    1.16536   1.16683   1.17058   1.18167   1.18948
 Alpha virt. eigenvalues --    1.19303   1.19802   1.20112   1.20781   1.21746
 Alpha virt. eigenvalues --    1.22238   1.22924   1.23841   1.24716   1.24918
 Alpha virt. eigenvalues --    1.25210   1.26433   1.26726   1.27124   1.27698
 Alpha virt. eigenvalues --    1.27847   1.28195   1.28718   1.29169   1.29806
 Alpha virt. eigenvalues --    1.30180   1.30701   1.31249   1.31323   1.32212
 Alpha virt. eigenvalues --    1.32787   1.33417   1.34234   1.35136   1.35330
 Alpha virt. eigenvalues --    1.35579   1.36124   1.36633   1.37367   1.37891
 Alpha virt. eigenvalues --    1.38552   1.38955   1.39099   1.39466   1.40173
 Alpha virt. eigenvalues --    1.40538   1.40681   1.41834   1.42389   1.42812
 Alpha virt. eigenvalues --    1.43260   1.43357   1.43880   1.44165   1.44325
 Alpha virt. eigenvalues --    1.44876   1.45407   1.45740   1.46415   1.47173
 Alpha virt. eigenvalues --    1.47656   1.48321   1.48788   1.49252   1.50093
 Alpha virt. eigenvalues --    1.51032   1.51388   1.52460   1.52853   1.53335
 Alpha virt. eigenvalues --    1.53538   1.54120   1.54771   1.55071   1.56085
 Alpha virt. eigenvalues --    1.57215   1.57669   1.58011   1.58769   1.59064
 Alpha virt. eigenvalues --    1.59932   1.60015   1.61224   1.61806   1.62684
 Alpha virt. eigenvalues --    1.62783   1.63213   1.63741   1.63988   1.64428
 Alpha virt. eigenvalues --    1.64609   1.64874   1.65306   1.65569   1.66145
 Alpha virt. eigenvalues --    1.67439   1.67515   1.67890   1.68534   1.68749
 Alpha virt. eigenvalues --    1.68879   1.69188   1.69361   1.70329   1.70476
 Alpha virt. eigenvalues --    1.70963   1.72005   1.72121   1.73092   1.73637
 Alpha virt. eigenvalues --    1.74095   1.74395   1.74740   1.74869   1.75711
 Alpha virt. eigenvalues --    1.75845   1.76102   1.76141   1.76695   1.76950
 Alpha virt. eigenvalues --    1.77094   1.77756   1.78084   1.78208   1.79025
 Alpha virt. eigenvalues --    1.79362   1.79431   1.79795   1.80073   1.80442
 Alpha virt. eigenvalues --    1.80938   1.81152   1.81531   1.81823   1.82243
 Alpha virt. eigenvalues --    1.82618   1.82763   1.83050   1.83320   1.83803
 Alpha virt. eigenvalues --    1.84013   1.84097   1.84511   1.85049   1.85567
 Alpha virt. eigenvalues --    1.86163   1.86321   1.86459   1.86851   1.87355
 Alpha virt. eigenvalues --    1.87951   1.87974   1.88357   1.88750   1.88935
 Alpha virt. eigenvalues --    1.89124   1.89449   1.89846   1.90393   1.90796
 Alpha virt. eigenvalues --    1.91148   1.91448   1.91467   1.91840   1.91964
 Alpha virt. eigenvalues --    1.92800   1.92908   1.93508   1.93789   1.93866
 Alpha virt. eigenvalues --    1.94410   1.94572   1.95148   1.95686   1.95922
 Alpha virt. eigenvalues --    1.96236   1.96653   1.97017   1.97279   1.97939
 Alpha virt. eigenvalues --    1.98399   1.98815   1.98979   1.99291   1.99979
 Alpha virt. eigenvalues --    2.00355   2.00469   2.01264   2.01587   2.01802
 Alpha virt. eigenvalues --    2.02089   2.02318   2.02518   2.02736   2.03363
 Alpha virt. eigenvalues --    2.03600   2.03886   2.04557   2.05108   2.05200
 Alpha virt. eigenvalues --    2.05814   2.06067   2.06107   2.06371   2.06717
 Alpha virt. eigenvalues --    2.07432   2.07459   2.07759   2.08196   2.09065
 Alpha virt. eigenvalues --    2.09289   2.09781   2.09885   2.10622   2.11638
 Alpha virt. eigenvalues --    2.11837   2.11860   2.12289   2.12850   2.13415
 Alpha virt. eigenvalues --    2.13714   2.14627   2.15357   2.15401   2.15956
 Alpha virt. eigenvalues --    2.16240   2.16734   2.17177   2.17606   2.18262
 Alpha virt. eigenvalues --    2.18868   2.19827   2.20648   2.20778   2.21301
 Alpha virt. eigenvalues --    2.21611   2.21686   2.21887   2.22583   2.22672
 Alpha virt. eigenvalues --    2.22792   2.23351   2.24012   2.25170   2.25503
 Alpha virt. eigenvalues --    2.26055   2.27204   2.28209   2.28521   2.29156
 Alpha virt. eigenvalues --    2.29562   2.29633   2.30285   2.31065   2.31371
 Alpha virt. eigenvalues --    2.32313   2.32977   2.33316   2.33932   2.35140
 Alpha virt. eigenvalues --    2.35741   2.36049   2.36738   2.37136   2.37314
 Alpha virt. eigenvalues --    2.38004   2.38460   2.38997   2.39194   2.39636
 Alpha virt. eigenvalues --    2.40106   2.41116   2.41384   2.42051   2.42361
 Alpha virt. eigenvalues --    2.42635   2.43210   2.43382   2.44134   2.45159
 Alpha virt. eigenvalues --    2.45669   2.46477   2.47155   2.47706   2.48437
 Alpha virt. eigenvalues --    2.48626   2.49368   2.49780   2.50323   2.50549
 Alpha virt. eigenvalues --    2.50939   2.51730   2.52643   2.53473   2.54266
 Alpha virt. eigenvalues --    2.54350   2.55033   2.56388   2.57266   2.57634
 Alpha virt. eigenvalues --    2.58031   2.58135   2.59717   2.60216   2.61187
 Alpha virt. eigenvalues --    2.61519   2.62581   2.62863   2.63610   2.64136
 Alpha virt. eigenvalues --    2.64516   2.64589   2.65022   2.65348   2.65764
 Alpha virt. eigenvalues --    2.66388   2.66919   2.67498   2.67809   2.68143
 Alpha virt. eigenvalues --    2.68205   2.69084   2.69721   2.70092   2.70369
 Alpha virt. eigenvalues --    2.70493   2.70773   2.71157   2.73524   2.74057
 Alpha virt. eigenvalues --    2.75832   2.76991   2.78411   2.78469   2.79426
 Alpha virt. eigenvalues --    2.79597   2.81224   2.81834   2.82741   2.83197
 Alpha virt. eigenvalues --    2.84474   2.85715   2.86133   2.87603   2.88419
 Alpha virt. eigenvalues --    2.88760   2.90437   2.91336   2.93277   2.94035
 Alpha virt. eigenvalues --    2.94373   2.94742   2.95408   2.96039   2.96139
 Alpha virt. eigenvalues --    2.98181   2.98387   2.98650   3.00466   3.02275
 Alpha virt. eigenvalues --    3.03875   3.04415   3.06172   3.07173   3.08689
 Alpha virt. eigenvalues --    3.08775   3.13305   3.14782   3.16276   3.18975
 Alpha virt. eigenvalues --    3.22648   3.32631   3.42520   3.61595   3.65322
 Alpha virt. eigenvalues --    3.71914   3.79229   3.87490   3.87598   3.91435
 Alpha virt. eigenvalues --    3.93526   4.00872   4.00952   4.01961   4.02453
 Alpha virt. eigenvalues --    4.03195   4.04126   4.06779   4.07359   4.07566
 Alpha virt. eigenvalues --    4.08465   4.09854   4.11321   4.12249   4.12594
 Alpha virt. eigenvalues --    4.13356   4.14543   4.16276   4.17846   4.20104
 Alpha virt. eigenvalues --    4.20815   4.21277   4.22234   4.25819   4.26113
 Alpha virt. eigenvalues --    4.26487   4.26694   4.28151   4.30128   4.31056
 Alpha virt. eigenvalues --    4.32018   4.33689   4.33733   4.35510   4.36908
 Alpha virt. eigenvalues --    4.37823   4.38563   4.40567   4.41248   4.45107
 Alpha virt. eigenvalues --    4.49051   4.49754   4.50933   4.53498   4.55498
 Alpha virt. eigenvalues --    4.58304   4.59229   4.60378   4.61992   4.62321
 Alpha virt. eigenvalues --    4.64012   4.65171   4.67271   4.68368   4.84151
          Condensed to atoms (all electrons):
 Mulliken charges:
               1
     1  N   -0.717684
     2  H    0.430659
     3  H    0.419621
     4  H    0.425912
     5  C   -0.145497
     6  H    0.216373
     7  C    0.637357
     8  C   -0.372304
     9  H    0.188817
    10  H    0.174661
    11  O   -0.530628
    12  C    0.151332
    13  C   -0.181988
    14  H    0.145852
    15  C   -0.193942
    16  H    0.127243
    17  C   -0.124614
    18  H    0.160010
    19  C   -0.115882
    20  H    0.160258
    21  C   -0.107463
    22  H    0.160174
    23  N   -0.587725
    24  H    0.367622
    25  C   -0.053338
    26  H    0.179444
    27  C    0.619262
    28  C   -0.449947
    29  H    0.197836
    30  H    0.178226
    31  H    0.168811
    32  O   -0.527064
    33  N   -0.582562
    34  H    0.341674
    35  C   -0.087760
    36  H    0.182068
    37  C    0.635299
    38  C   -0.455238
    39  H    0.173669
    40  H    0.166788
    41  H    0.154779
    42  O   -0.545274
    43  N   -0.614651
    44  H    0.343357
    45  C   -0.036257
    46  H    0.186291
    47  C    0.617960
    48  C   -0.388227
    49  H    0.154421
    50  H    0.175686
    51  O   -0.589311
    52  C    0.063987
    53  C   -0.212412
    54  H    0.087217
    55  C   -0.196389
    56  H    0.097450
    57  C   -0.222041
    58  H    0.109513
    59  C   -0.219479
    60  H    0.095653
    61  O   -0.627342
    62  C    0.404068
    63  N   -0.600560
    64  H    0.393557
    65  C   -0.070753
    66  H    0.165560
    67  C    0.645495
    68  C   -0.282472
    69  H    0.139038
    70  H    0.206385
    71  O   -0.549861
    72  C   -0.078588
    73  H    0.123118
    74  C   -0.446056
    75  H    0.145197
    76  H    0.127423
    77  H    0.139206
    78  C   -0.445035
    79  H    0.145810
    80  H    0.170776
    81  H    0.116505
    82  N   -0.624799
    83  H    0.377375
    84  C   -0.079511
    85  H    0.213680
    86  C    0.647305
    87  C   -0.326050
    88  H    0.175803
    89  H    0.165648
    90  O   -0.539450
    91  C   -0.328715
    92  H    0.192946
    93  H    0.161314
    94  C    0.565818
    95  O   -0.444710
    96  O   -0.570434
    97  N   -0.627807
    98  H    0.381513
    99  C   -0.009121
   100  H    0.184862
   101  C    0.587272
   102  C   -0.313439
   103  H    0.179415
   104  H    0.169763
   105  O   -0.440435
   106  C   -0.303160
   107  H    0.172998
   108  H    0.166727
   109  C   -0.156965
   110  H    0.189727
   111  H    0.176833
   112  N   -0.594693
   113  H    0.361497
   114  N   -0.737037
   115  H    0.372120
   116  H    0.388672
   117  N   -0.738903
   118  H    0.367496
   119  H    0.373059
   120  C    0.742778
   121  O   -0.574841
   122  H    0.423071
   123  H    0.413301
 Sum of Mulliken charges =   1.00000
 Mulliken charges with hydrogens summed into heavy atoms:
               1
     1  N    0.558508
     5  C    0.070876
     7  C    0.637357
     8  C   -0.008826
    11  O   -0.530628
    12  C    0.151332
    13  C   -0.036136
    15  C   -0.066699
    17  C    0.035396
    19  C    0.044376
    21  C    0.052712
    23  N   -0.220103
    25  C    0.126106
    27  C    0.619262
    28  C    0.094926
    32  O   -0.527064
    33  N   -0.240889
    35  C    0.094308
    37  C    0.635299
    38  C    0.039998
    42  O   -0.545274
    43  N   -0.271294
    45  C    0.150034
    47  C    0.617960
    48  C   -0.058120
    51  O   -0.589311
    52  C    0.063987
    53  C   -0.125195
    55  C   -0.098939
    57  C   -0.112528
    59  C   -0.123826
    61  O   -0.627342
    62  C    0.404068
    63  N   -0.207004
    65  C    0.094807
    67  C    0.645495
    68  C    0.062951
    71  O   -0.549861
    72  C    0.044530
    74  C   -0.034230
    78  C   -0.011944
    82  N   -0.247424
    84  C    0.134168
    86  C    0.647305
    87  C    0.015401
    90  O   -0.539450
    91  C    0.025546
    94  C    0.565818
    95  O   -0.444710
    96  O   -0.147363
    97  N   -0.246294
    99  C    0.175741
   101  C    0.587272
   102  C    0.035739
   105  O   -0.440435
   106  C    0.036565
   109  C    0.209594
   112  N   -0.233195
   114  N    0.023754
   117  N    0.001652
   120  C    0.742778
   121  O   -0.161539
 Electronic spatial extent (au):  <R**2>=          89548.8920
 Charge=              1.0000 electrons
 Dipole moment (field-independent basis, Debye):
    X=              1.9871    Y=             31.6948    Z=             -0.6109  Tot=             31.7629
 Quadrupole moment (field-independent basis, Debye-Ang):
   XX=            489.5337   YY=           -178.7225   ZZ=           -334.4504
   XY=           -372.0755   XZ=           -176.4824   YZ=             -3.6090
 Traceless Quadrupole moment (field-independent basis, Debye-Ang):
   XX=            497.4135   YY=           -170.8428   ZZ=           -326.5707
   XY=           -372.0755   XZ=           -176.4824   YZ=             -3.6090
 Octapole moment (field-independent basis, Debye-Ang**2):
  XXX=           1433.9055  YYY=            136.7821  ZZZ=           1281.1856  XYY=          -1802.8843
  XXY=           1762.5702  XXZ=          -1395.0767  XZZ=            893.0662  YZZ=           -432.4182
  YYZ=            606.5182  XYZ=            179.8525
 Hexadecapole moment (field-independent basis, Debye-Ang**3):
 XXXX=          36463.2255 YYYY=         -17470.3664 ZZZZ=         -16936.0292 XXXY=         -27712.5524
 XXXZ=         -10861.9545 YYYX=          -3279.6198 YYYZ=          -2285.7477 ZZZX=           6166.0284
 ZZZY=          -2263.0551 XXYY=           8702.1448 XXZZ=          -5875.8270 YYZZ=          -7971.1786
 XXYZ=           1740.5294 YYXZ=           2616.2764 ZZXY=           3986.5983
 N-N= 9.349453413510D+03 E-N=-2.560364757151D+04  KE= 2.947518716595D+03
 Unable to Open any file for archive entry.
 1\1\GINC-VIM-002\SP\RB3LYP\6-31G(d)\C41H61N10O11(1+)\KENGMITH\07-Aug-2
 022\0\\# B3LYP/6-31G* empiricaldispersion=gd3 guess=read geom=check no
 symm integral(ultrafinegrid)\\Candidate Structure: Conf:231 Charge cal
 c in gas phase\\1,1\N,0,-10.8755574309,7.0951331656,0.1754327028\H,0,-
 11.1629264469,6.7322365487,-0.736090079\H,0,-11.1364350556,8.079041962
 ,0.236995505\H,0,-11.3820330307,6.5546830694,0.889720994\C,0,-9.423204
 1263,6.8809360897,0.4213171266\H,0,-8.8489878104,7.2223176296,-0.44399
 8697\C,0,-9.238565766,5.3772252906,0.6471981758\C,0,-8.9590133059,7.65
 59918205,1.6655268484\H,0,-9.5305670408,7.2909333606,2.5238428774\H,0,
 -9.2097547869,8.7127206577,1.5196792277\O,0,-10.1416752164,4.726397836
 ,1.166059466\C,0,-7.4790531391,7.4814618203,1.9036871022\C,0,-7.014858
 913,6.5936752276,2.8753528387\H,0,-7.7265566638,6.0231801111,3.4659072
 27\C,0,-6.5553563328,8.1696870807,1.1148900987\H,0,-6.9174261879,8.845
 5332949,0.3439539514\C,0,-5.6449665797,6.4171634972,3.0689148171\H,0,-
 5.2954096292,5.7235293759,3.8276011393\C,0,-5.1862679984,7.9939733636,
 1.307223627\H,0,-4.4817152006,8.5419269089,0.6918430168\C,0,-4.7284516
 056,7.1176526422,2.2885533946\H,0,-3.6643357138,6.9804399028,2.4421190
 126\N,0,-8.0463116101,4.8777994323,0.2858880155\H,0,-7.2970277103,5.49
 38964272,-0.0092987498\C,0,-7.6153626306,3.5454420455,0.6866137556\H,0
 ,-8.1147891777,3.2889173337,1.6255108203\C,0,-6.1064647886,3.642596726
 8,0.9000432682\C,0,-7.9491698147,2.4914905106,-0.3708669097\H,0,-7.584
 6919712,1.5103326963,-0.052406514\H,0,-7.467259876,2.7480309568,-1.317
 25471\H,0,-9.0293994311,2.4406656823,-0.5229830217\O,0,-5.4113977345,4
 .3431319631,0.1749576989\N,0,-5.6166309232,2.9084725868,1.9361346104\H
 ,0,-6.1815130332,2.1269474197,2.237011813\C,0,-4.1851724762,2.66495927
 86,2.0352259381\H,0,-3.6895675669,3.5484576039,1.6288830436\C,0,-3.849
 3269456,1.4334325045,1.175668104\C,0,-3.7792279161,2.4454056664,3.4899
 880264\H,0,-2.7005964456,2.290214875,3.5726573771\H,0,-4.2862061535,1.
 5668402224,3.9005319026\H,0,-4.0564599632,3.3171940429,4.0881148875\O,
 0,-4.6950793507,0.5813029911,0.9279801768\N,0,-2.5681090042,1.34737755
 36,0.7644404969\H,0,-1.8657956341,2.0250436559,1.0275252021\C,0,-2.088
 218086,0.2023368333,0.0191700902\H,0,-2.5339104411,-0.7039676704,0.438
 4361084\C,0,-0.5688378066,0.182790391,0.1861950596\C,0,-2.5161343458,0
 .2555886192,-1.4794683449\H,0,-3.6044136194,0.3473965821,-1.4727651268
 \H,0,-2.0958447284,1.1493478297,-1.9524304745\O,0,0.0287210345,1.19474
 527,0.5707806666\C,0,-2.0846415036,-0.9916243194,-2.1868119397\C,0,-0.
 9331989278,-1.0317336036,-2.993665397\H,0,-0.433723838,-0.1025687084,-
 3.2468667039\C,0,-2.6909996843,-2.2157153124,-1.8437253473\H,0,-3.5882
 540166,-2.186947865,-1.2228572716\C,0,-0.3678275114,-2.2173676072,-3.3
 791984695\H,0,0.5576414587,-2.2253259567,-3.9434859621\C,0,-2.14422500
 7,-3.4234875463,-2.199548506\H,0,-2.5951059343,-4.3615355048,-1.895125
 7924\O,0,-0.3391950545,-4.5745582156,-3.2175195127\C,0,-0.9008902253,-
 3.4964966126,-2.9530869625\N,0,0.0638907219,-0.9659701049,-0.136391835
 4\H,0,-0.4432524556,-1.6372254475,-0.7128182525\C,0,1.5290979768,-1.03
 95911826,-0.2053801962\H,0,1.8973003875,-0.4509623666,0.6364529633\C,0
 ,1.9737181373,-0.3625391952,-1.5064497848\C,0,1.9832268752,-2.48894777
 8,-0.1032025532\H,0,1.4596697118,-2.9404883995,0.7455731568\H,0,1.6558
 325876,-3.0130011641,-1.0069533635\O,0,2.3539344059,-0.9868445471,-2.5
 043126702\C,0,3.4940764395,-2.6869130445,0.0771323216\H,0,3.9972380736
 ,-2.1681127749,-0.7489103296\C,0,4.0000421659,-2.112477139,1.400879481
 9\H,0,3.5291454638,-2.629227587,2.2444341086\H,0,5.0826448726,-2.24334
 37131,1.490956281\H,0,3.7862939825,-1.0442908757,1.4976457554\C,0,3.82
 50509869,-4.1780419936,-0.0235835435\H,0,3.3144027497,-4.737741998,0.7
 664649413\H,0,3.5090431919,-4.5876279061,-0.9867363433\H,0,4.900386065
 7,-4.3515358882,0.083376472\N,0,1.874552648,0.9865437321,-1.4964219002
 \H,0,1.4971532078,1.4153306124,-0.6555488779\C,0,1.7620809714,1.760813
 9196,-2.7283646949\H,0,1.3326506314,1.0978626602,-3.4905552236\C,0,3.1
 445063563,2.1927346922,-3.2373938798\C,0,0.8303637226,2.9475783086,-2.
 4740127105\H,0,0.0186542002,2.6066953364,-1.8218221107\H,0,1.389533956
 9,3.7139863667,-1.9298423697\O,0,3.4674273788,3.358353574,-3.423037599
 4\C,0,0.2154682429,3.5545427999,-3.7421022823\H,0,0.9939218231,3.85391
 30482,-4.4442327654\H,0,-0.3742657871,4.4341247179,-3.4704738284\C,0,-
 0.6896112817,2.5455019607,-4.3946962669\O,0,-0.4712206683,1.9327742612
 ,-5.4091595802\O,0,-1.8137897532,2.3390536942,-3.6477470618\N,0,3.9941
 255045,1.1543372503,-3.4525681621\H,0,3.6047510022,0.2159671054,-3.430
 8997666\C,0,5.2751884619,1.3831646917,-4.0784841044\H,0,5.7454660701,2
 .2477027398,-3.5999037928\C,0,5.0971219973,1.6956699083,-5.5588844102\
 C,0,6.1492954643,0.1329734016,-3.8990336564\H,0,5.690811515,-0.6937632
 175,-4.4517881963\H,0,6.1139413148,-0.1271704282,-2.8362337856\O,0,4.2
 307294237,1.2524616559,-6.2677169958\C,0,7.6013474212,0.311182272,-4.3
 311867282\H,0,8.0357855932,1.1732505839,-3.8162142977\H,0,7.6572760602
 ,0.5180826542,-5.403441515\C,0,8.4236296591,-0.9284775041,-4.009698436
 3\H,0,7.9978197705,-1.8046734091,-4.5165941086\H,0,8.3855356619,-1.116
 2015822,-2.9316417901\N,0,9.8275845973,-0.7260963741,-4.4115792008\H,0
 ,9.9481367698,-0.1682898556,-5.2472502484\N,0,10.5028413891,-2.8009635
 981,-3.5520776249\H,0,11.2644892238,-3.3484124579,-3.1810399172\H,0,9.
 6278771087,-2.8740287421,-3.0581136049\N,0,11.9870870201,-1.4857522129
 ,-4.8044825073\H,0,12.7419439864,-2.0868667037,-4.5075028873\H,0,12.26
 57053654,-0.5320033832,-4.9943198724\C,0,10.7699945189,-1.6705725668,-
 4.2343368876\O,0,6.0823221207,2.5102021046,-6.0109639939\H,0,-2.313764
 1631,1.6392905885,-4.0955533948\H,0,5.9128656581,2.6355255365,-6.95729
 36216\\Version=ES64L-G16RevC.01\HF=-2974.0706381\RMSD=3.409e-09\Dipole
 =1.8836027,9.5618671,2.2027738\Quadrupole=369.8147234,-127.0174445,-24
 2.7972789,-276.6289976,-131.2103495,-2.683214\PG=C01 [X(C41H61N10O11)]
 \\@
 The archive entry for this job was punched.


 THERE IS NOTHING NOBLE IN BEING SUPERIOR TO SOME OTHER MAN.
 TRUE NOBILITY IS BEING SUPERIOR TO YOUR FORMER SELF.

                                                   -- HINDU PROVERB
 Job cpu time:       0 days  0 hours  4 minutes 57.9 seconds.
 Elapsed time:       0 days  0 hours  1 minutes 15.2 seconds.
 File lengths (MBytes):  RWF=    800 Int=      0 D2E=      0 Chk=    128 Scr=     32
 Normal termination of Gaussian 16 at Sun Aug  7 18:51:27 2022.
