 Entering Gaussian System, Link 0=/opt/software/Gaussian/g16-AVX2-C.01/g16/g16
 Input=charge-conf-669.com
 Output=charge-conf-669.log
 Initial command:
 /opt/software/Gaussian/g16-AVX2-C.01/g16/l1.exe "/mnt/gs18/scratch/users/kengmith/Gau-39702.inp" -scrdir="/mnt/gs18/scratch/users/kengmith/"
 Entering Link 1 = /opt/software/Gaussian/g16-AVX2-C.01/g16/l1.exe PID=     39712.
  
 Copyright (c) 1988-2019, Gaussian, Inc.  All Rights Reserved.
  
 This is part of the Gaussian(R) 16 program.  It is based on
 the Gaussian(R) 09 system (copyright 2009, Gaussian, Inc.),
 the Gaussian(R) 03 system (copyright 2003, Gaussian, Inc.),
 the Gaussian(R) 98 system (copyright 1998, Gaussian, Inc.),
 the Gaussian(R) 94 system (copyright 1995, Gaussian, Inc.),
 the Gaussian 92(TM) system (copyright 1992, Gaussian, Inc.),
 the Gaussian 90(TM) system (copyright 1990, Gaussian, Inc.),
 the Gaussian 88(TM) system (copyright 1988, Gaussian, Inc.),
 the Gaussian 86(TM) system (copyright 1986, Carnegie Mellon
 University), and the Gaussian 82(TM) system (copyright 1983,
 Carnegie Mellon University). Gaussian is a federally registered
 trademark of Gaussian, Inc.
  
 This software contains proprietary and confidential information,
 including trade secrets, belonging to Gaussian, Inc.
  
 This software is provided under written license and may be
 used, copied, transmitted, or stored only in accord with that
 written license.
  
 The following legend is applicable only to US Government
 contracts under FAR:
  
                    RESTRICTED RIGHTS LEGEND
  
 Use, reproduction and disclosure by the US Government is
 subject to restrictions as set forth in subparagraphs (a)
 and (c) of the Commercial Computer Software - Restricted
 Rights clause in FAR 52.227-19.
  
 Gaussian, Inc.
 340 Quinnipiac St., Bldg. 40, Wallingford CT 06492
  
  
 ---------------------------------------------------------------
 Warning -- This program may not be used in any manner that
 competes with the business of Gaussian, Inc. or will provide
 assistance to any competitor of Gaussian, Inc.  The licensee
 of this program is prohibited from giving any competitor of
 Gaussian, Inc. access to this program.  By using this program,
 the user acknowledges that Gaussian, Inc. is engaged in the
 business of creating and licensing software in the field of
 computational chemistry and represents and warrants to the
 licensee that it is not a competitor of Gaussian, Inc. and that
 it will not use this program in any manner prohibited above.
 ---------------------------------------------------------------
  

 Cite this work as:
 Gaussian 16, Revision C.01,
 M. J. Frisch, G. W. Trucks, H. B. Schlegel, G. E. Scuseria, 
 M. A. Robb, J. R. Cheeseman, G. Scalmani, V. Barone, 
 G. A. Petersson, H. Nakatsuji, X. Li, M. Caricato, A. V. Marenich, 
 J. Bloino, B. G. Janesko, R. Gomperts, B. Mennucci, H. P. Hratchian, 
 J. V. Ortiz, A. F. Izmaylov, J. L. Sonnenberg, D. Williams-Young, 
 F. Ding, F. Lipparini, F. Egidi, J. Goings, B. Peng, A. Petrone, 
 T. Henderson, D. Ranasinghe, V. G. Zakrzewski, J. Gao, N. Rega, 
 G. Zheng, W. Liang, M. Hada, M. Ehara, K. Toyota, R. Fukuda, 
 J. Hasegawa, M. Ishida, T. Nakajima, Y. Honda, O. Kitao, H. Nakai, 
 T. Vreven, K. Throssell, J. A. Montgomery, Jr., J. E. Peralta, 
 F. Ogliaro, M. J. Bearpark, J. J. Heyd, E. N. Brothers, K. N. Kudin, 
 V. N. Staroverov, T. A. Keith, R. Kobayashi, J. Normand, 
 K. Raghavachari, A. P. Rendell, J. C. Burant, S. S. Iyengar, 
 J. Tomasi, M. Cossi, J. M. Millam, M. Klene, C. Adamo, R. Cammi, 
 J. W. Ochterski, R. L. Martin, K. Morokuma, O. Farkas, 
 J. B. Foresman, and D. J. Fox, Gaussian, Inc., Wallingford CT, 2019.
 
 ******************************************
 Gaussian 16:  ES64L-G16RevC.01  3-Jul-2019
                 1-Jun-2022 
 ******************************************
 %mem=8gb
 %nproc=4
 Will use up to    4 processors via shared memory.
 %chk=conf-669.chk
 ----------------------------------------------------------------------
 # B3LYP/6-31G* empiricaldispersion=gd3 guess=read geom=check nosymm in
 tegral(ultrafinegrid)
 ----------------------------------------------------------------------
 1/29=2,38=1,172=1/1;
 2/12=2,15=1,40=1/2;
 3/5=1,6=6,7=1,11=2,14=-4,25=1,30=1,74=-5,75=-5,116=-2,124=31/1,2,3;
 4/5=1/1;
 5/5=2,38=6/2;
 6/7=2,8=2,9=2,10=2,28=1/1;
 99/5=1,9=1/99;
 ------------------------------------------------------
 Candidate Structure: Conf:669 Charge calc in gas phase
 ------------------------------------------------------
 Structure from the checkpoint file:  "conf-669.chk"
 Charge =  1 Multiplicity = 1
 Redundant internal coordinates found in file.  (old form).
 N,0,-2.6431551331,1.2188233536,-4.4794482178
 H,0,-3.5630858926,1.3386349433,-4.05884281
 H,0,-2.2508039981,2.1570451751,-4.5522645284
 C,0,-1.798448012,0.4107117934,-3.6178997233
 H,0,-2.3561069451,-0.4980789306,-3.3668983368
 C,0,-1.4135321703,1.0710139194,-2.2834496761
 C,0,-0.4940436016,0.0010261528,-4.3674350538
 H,0,0.3717584829,0.035347037,-3.6970942997
 H,0,-0.3230450214,0.7333588486,-5.1632265596
 O,0,-1.5344570233,2.3031852951,-2.1117456777
 C,0,-0.5965240348,-1.3905097482,-4.9912054914
 H,0,-1.5044583994,-1.477194858,-5.6020279062
 H,0,0.2414407093,-1.5925054119,-5.6686463315
 C,0,-0.6219123152,-2.4929987928,-3.9539381903
 O,0,-0.6543161966,-2.3382085908,-2.7415016243
 O,0,-0.6105216059,-3.7087096657,-4.516950562
 N,0,-0.9196205954,0.2264528634,-1.3660694411
 H,0,-0.767021508,-0.7340177692,-1.6833226716
 C,0,-0.2961915272,0.6195600798,-0.1211766992
 H,0,-0.8329587081,1.4877744774,0.2733500183
 C,0,1.175739114,1.031388473,-0.3548448602
 C,0,-0.3722176031,-0.5503409999,0.8865363452
 H,0,0.1022163075,-0.2470821429,1.8283720063
 H,0,0.2315769209,-1.3796953106,0.4922711092
 O,0,1.754234829,0.8651319343,-1.4249506976
 C,0,-1.8000062886,-1.0501907978,1.1802277992
 H,0,-2.2291831307,-1.4210101431,0.2395067971
 C,0,-1.7361284952,-2.2232835926,2.1687415498
 H,0,-1.3264975033,-1.9007509971,3.1344020603
 H,0,-2.7349256963,-2.6338446152,2.3509375351
 H,0,-1.1035049901,-3.0337505476,1.7886461433
 C,0,-2.7064684379,0.0686807273,1.7112673612
 H,0,-2.2797433538,0.5228412887,2.6155877609
 H,0,-2.8638431588,0.8614019675,0.9702194246
 H,0,-3.6927407768,-0.3269147181,1.9754891964
 N,0,1.7770823536,1.602793151,0.7350879461
 H,0,1.2628084783,1.5666811977,1.6108372136
 C,0,3.2234036605,1.5465407856,0.9421846234
 H,0,3.6488506199,0.8485445269,0.2129795467
 C,0,3.449070359,0.9777718938,2.3447170039
 C,0,3.9356530043,2.9105602903,0.7931625343
 H,0,4.9712692527,2.7837256102,1.1203231666
 H,0,3.4743719128,3.615732625,1.4973339564
 O,0,2.5667519317,0.8171699831,3.1618284138
 C,0,3.8969829094,3.456121581,-0.6543583294
 H,0,4.9163391896,3.5996918371,-1.0296284006
 H,0,3.4428864216,2.7020698584,-1.3064082343
 C,0,3.1749450307,4.8049553207,-0.8080508687
 H,0,3.1673973981,5.1251418897,-1.8551385738
 H,0,3.6958048162,5.5818051429,-0.2419375563
 N,0,1.787415501,4.8082924521,-0.3237303347
 H,0,1.6372632382,5.0398321822,0.6481618251
 N,0,0.9228737047,3.6648237302,-2.1657971327
 H,0,0.0925270028,3.2020381836,-2.5397201295
 H,0,1.7898899735,3.1796398454,-2.353532004
 N,0,-0.4748944699,4.2788122442,-0.4376600555
 H,0,-1.1895739829,3.6816255015,-0.8619218898
 H,0,-0.7236883383,4.9386505151,0.2843325508
 C,0,0.7561706306,4.2410651644,-0.9653331313
 O,0,4.7432631119,0.7063906797,2.5635910454
 H,0,4.8290552537,0.3639903205,3.474701203
 H,0,-0.6384085048,-4.3708100302,-3.7995396666
 Recover connectivity data from disk.
                           ----------------------------
                           !    Current Parameters    !
                           ! (Angstroms and Degrees)  !
 --------------------------                            --------------------------
 ! Name  Definition              Value                                          !
 --------------------------------------------------------------------------------
 ! R1    R(1,2)                  1.0186                                         !
 ! R2    R(1,3)                  1.0196                                         !
 ! R3    R(1,4)                  1.4522                                         !
 ! R4    R(4,5)                  1.0954                                         !
 ! R5    R(4,6)                  1.5378                                         !
 ! R6    R(4,7)                  1.5592                                         !
 ! R7    R(6,10)                 1.2499                                         !
 ! R8    R(6,17)                 1.3412                                         !
 ! R9    R(7,8)                  1.0955                                         !
 ! R10   R(7,9)                  1.0949                                         !
 ! R11   R(7,11)                 1.5284                                         !
 ! R12   R(11,12)                1.0977                                         !
 ! R13   R(11,13)                1.0963                                         !
 ! R14   R(11,14)                1.514                                          !
 ! R15   R(14,15)                1.2227                                         !
 ! R16   R(14,16)                1.3398                                         !
 ! R17   R(16,62)                0.9766                                         !
 ! R18   R(17,18)                1.023                                          !
 ! R19   R(17,19)                1.4467                                         !
 ! R20   R(19,20)                1.0943                                         !
 ! R21   R(19,21)                1.5462                                         !
 ! R22   R(19,22)                1.5459                                         !
 ! R23   R(21,25)                1.2278                                         !
 ! R24   R(21,36)                1.3697                                         !
 ! R25   R(22,23)                1.0973                                         !
 ! R26   R(22,24)                1.099                                          !
 ! R27   R(22,26)                1.541                                          !
 ! R28   R(26,27)                1.0985                                         !
 ! R29   R(26,28)                1.5354                                         !
 ! R30   R(26,32)                1.5348                                         !
 ! R31   R(28,29)                1.0974                                         !
 ! R32   R(28,30)                1.0951                                         !
 ! R33   R(28,31)                1.0961                                         !
 ! R34   R(32,33)                1.0982                                         !
 ! R35   R(32,34)                1.0965                                         !
 ! R36   R(32,35)                1.095                                          !
 ! R37   R(36,37)                1.0162                                         !
 ! R38   R(36,38)                1.4622                                         !
 ! R39   R(38,39)                1.0954                                         !
 ! R40   R(38,40)                1.5302                                         !
 ! R41   R(38,41)                1.546                                          !
 ! R42   R(40,44)                1.2132                                         !
 ! R43   R(40,60)                1.3403                                         !
 ! R44   R(41,42)                1.0934                                         !
 ! R45   R(41,43)                1.0981                                         !
 ! R46   R(41,45)                1.5474                                         !
 ! R47   R(45,46)                1.0957                                         !
 ! R48   R(45,47)                1.0954                                         !
 ! R49   R(45,48)                1.5376                                         !
 ! R50   R(48,49)                1.095                                          !
 ! R51   R(48,50)                1.0933                                         !
 ! R52   R(48,51)                1.4696                                         !
 ! R53   R(51,52)                1.0103                                         !
 ! R54   R(51,59)                1.3405                                         !
 ! R55   R(53,54)                1.0215                                         !
 ! R56   R(53,55)                1.0111                                         !
 ! R57   R(53,59)                1.342                                          !
 ! R58   R(56,57)                1.0234                                         !
 ! R59   R(56,58)                1.0092                                         !
 ! R60   R(56,59)                1.3399                                         !
 ! R61   R(60,61)                0.9771                                         !
 ! A1    A(2,1,3)              105.5928                                         !
 ! A2    A(2,1,4)              110.2314                                         !
 ! A3    A(3,1,4)              109.3059                                         !
 ! A4    A(1,4,5)              107.5476                                         !
 ! A5    A(1,4,6)              114.9276                                         !
 ! A6    A(1,4,7)              110.3432                                         !
 ! A7    A(5,4,6)              106.5478                                         !
 ! A8    A(5,4,7)              108.5457                                         !
 ! A9    A(6,4,7)              108.6971                                         !
 ! A10   A(4,6,10)             121.2154                                         !
 ! A11   A(4,6,17)             114.5405                                         !
 ! A12   A(10,6,17)            124.2233                                         !
 ! A13   A(4,7,8)              111.0256                                         !
 ! A14   A(4,7,9)              107.7161                                         !
 ! A15   A(4,7,11)             112.2918                                         !
 ! A16   A(8,7,9)              107.4786                                         !
 ! A17   A(8,7,11)             109.3444                                         !
 ! A18   A(9,7,11)             108.8327                                         !
 ! A19   A(7,11,12)            110.7603                                         !
 ! A20   A(7,11,13)            111.6349                                         !
 ! A21   A(7,11,14)            112.6138                                         !
 ! A22   A(12,11,13)           105.891                                          !
 ! A23   A(12,11,14)           108.0514                                         !
 ! A24   A(13,11,14)           107.5782                                         !
 ! A25   A(11,14,15)           125.9896                                         !
 ! A26   A(11,14,16)           111.8835                                         !
 ! A27   A(15,14,16)           122.1263                                         !
 ! A28   A(14,16,62)           107.8317                                         !
 ! A29   A(6,17,18)            115.7245                                         !
 ! A30   A(6,17,19)            125.1816                                         !
 ! A31   A(18,17,19)           117.2397                                         !
 ! A32   A(17,19,20)           108.3268                                         !
 ! A33   A(17,19,21)           110.6439                                         !
 ! A34   A(17,19,22)           109.5173                                         !
 ! A35   A(20,19,21)           108.0654                                         !
 ! A36   A(20,19,22)           109.9541                                         !
 ! A37   A(21,19,22)           110.2968                                         !
 ! A38   A(19,21,25)           122.9692                                         !
 ! A39   A(19,21,36)           114.1294                                         !
 ! A40   A(25,21,36)           122.901                                          !
 ! A41   A(19,22,23)           109.2129                                         !
 ! A42   A(19,22,24)           108.0719                                         !
 ! A43   A(19,22,26)           114.5359                                         !
 ! A44   A(23,22,24)           106.1963                                         !
 ! A45   A(23,22,26)           109.066                                          !
 ! A46   A(24,22,26)           109.4282                                         !
 ! A47   A(22,26,27)           107.9557                                         !
 ! A48   A(22,26,28)           109.3893                                         !
 ! A49   A(22,26,32)           112.1294                                         !
 ! A50   A(27,26,28)           108.0408                                         !
 ! A51   A(27,26,32)           108.159                                          !
 ! A52   A(28,26,32)           111.0266                                         !
 ! A53   A(26,28,29)           110.9469                                         !
 ! A54   A(26,28,30)           110.8302                                         !
 ! A55   A(26,28,31)           111.4492                                         !
 ! A56   A(29,28,30)           107.711                                          !
 ! A57   A(29,28,31)           107.8787                                         !
 ! A58   A(30,28,31)           107.8701                                         !
 ! A59   A(26,32,33)           110.9095                                         !
 ! A60   A(26,32,34)           112.2079                                         !
 ! A61   A(26,32,35)           110.6148                                         !
 ! A62   A(33,32,34)           108.2577                                         !
 ! A63   A(33,32,35)           107.4982                                         !
 ! A64   A(34,32,35)           107.1566                                         !
 ! A65   A(21,36,37)           116.6632                                         !
 ! A66   A(21,36,38)           122.0688                                         !
 ! A67   A(37,36,38)           112.1576                                         !
 ! A68   A(36,38,39)           108.3252                                         !
 ! A69   A(36,38,40)           106.8579                                         !
 ! A70   A(36,38,41)           114.0871                                         !
 ! A71   A(39,38,40)           108.4227                                         !
 ! A72   A(39,38,41)           108.6083                                         !
 ! A73   A(40,38,41)           110.3867                                         !
 ! A74   A(38,40,44)           124.0044                                         !
 ! A75   A(38,40,60)           111.5511                                         !
 ! A76   A(44,40,60)           124.4318                                         !
 ! A77   A(38,41,42)           107.7679                                         !
 ! A78   A(38,41,43)           108.1337                                         !
 ! A79   A(38,41,45)           112.9375                                         !
 ! A80   A(42,41,43)           106.2882                                         !
 ! A81   A(42,41,45)           110.1485                                         !
 ! A82   A(43,41,45)           111.2816                                         !
 ! A83   A(41,45,46)           110.0804                                         !
 ! A84   A(41,45,47)           108.9347                                         !
 ! A85   A(41,45,48)           114.4887                                         !
 ! A86   A(46,45,47)           105.7825                                         !
 ! A87   A(46,45,48)           106.7196                                         !
 ! A88   A(47,45,48)           110.4681                                         !
 ! A89   A(45,48,49)           110.8137                                         !
 ! A90   A(45,48,50)           110.3556                                         !
 ! A91   A(45,48,51)           114.3555                                         !
 ! A92   A(49,48,50)           106.898                                          !
 ! A93   A(49,48,51)           107.9368                                         !
 ! A94   A(50,48,51)           106.1136                                         !
 ! A95   A(48,51,52)           117.2489                                         !
 ! A96   A(48,51,59)           124.5857                                         !
 ! A97   A(52,51,59)           116.3005                                         !
 ! A98   A(54,53,55)           114.3093                                         !
 ! A99   A(54,53,59)           114.8981                                         !
 ! A100  A(55,53,59)           118.5971                                         !
 ! A101  A(57,56,58)           120.3924                                         !
 ! A102  A(57,56,59)           117.5096                                         !
 ! A103  A(58,56,59)           121.7783                                         !
 ! A104  A(51,59,53)           120.9503                                         !
 ! A105  A(51,59,56)           120.4245                                         !
 ! A106  A(53,59,56)           118.5876                                         !
 ! A107  A(40,60,61)           107.9389                                         !
 ! D1    D(2,1,4,5)             51.1597                                         !
 ! D2    D(2,1,4,6)            -67.2888                                         !
 ! D3    D(2,1,4,7)            169.3899                                         !
 ! D4    D(3,1,4,5)            166.7956                                         !
 ! D5    D(3,1,4,6)             48.3471                                         !
 ! D6    D(3,1,4,7)            -74.9742                                         !
 ! D7    D(1,4,6,10)           -16.9721                                         !
 ! D8    D(1,4,6,17)           164.6186                                         !
 ! D9    D(5,4,6,10)          -135.9798                                         !
 ! D10   D(5,4,6,17)            45.6109                                         !
 ! D11   D(7,4,6,10)           107.2224                                         !
 ! D12   D(7,4,6,17)           -71.1869                                         !
 ! D13   D(1,4,7,8)            141.0432                                         !
 ! D14   D(1,4,7,9)             23.6186                                         !
 ! D15   D(1,4,7,11)           -96.1971                                         !
 ! D16   D(5,4,7,8)           -101.3402                                         !
 ! D17   D(5,4,7,9)            141.2352                                         !
 ! D18   D(5,4,7,11)            21.4195                                         !
 ! D19   D(6,4,7,8)             14.1711                                         !
 ! D20   D(6,4,7,9)           -103.2535                                         !
 ! D21   D(6,4,7,11)           136.9308                                         !
 ! D22   D(4,6,17,18)            5.8798                                         !
 ! D23   D(4,6,17,19)          169.879                                          !
 ! D24   D(10,6,17,18)        -172.4749                                         !
 ! D25   D(10,6,17,19)          -8.4757                                         !
 ! D26   D(4,7,11,12)           51.5363                                         !
 ! D27   D(4,7,11,13)          169.2701                                         !
 ! D28   D(4,7,11,14)          -69.5873                                         !
 ! D29   D(8,7,11,12)          175.2394                                         !
 ! D30   D(8,7,11,13)          -67.0267                                         !
 ! D31   D(8,7,11,14)           54.1158                                         !
 ! D32   D(9,7,11,12)          -67.6274                                         !
 ! D33   D(9,7,11,13)           50.1065                                         !
 ! D34   D(9,7,11,14)          171.249                                          !
 ! D35   D(7,11,14,15)           4.9438                                         !
 ! D36   D(7,11,14,16)        -175.3242                                         !
 ! D37   D(12,11,14,15)       -117.7136                                         !
 ! D38   D(12,11,14,16)         62.0183                                         !
 ! D39   D(13,11,14,15)        128.3741                                         !
 ! D40   D(13,11,14,16)        -51.894                                          !
 ! D41   D(11,14,16,62)       -179.3556                                         !
 ! D42   D(15,14,16,62)          0.3883                                         !
 ! D43   D(6,17,19,20)          37.5903                                         !
 ! D44   D(6,17,19,21)         -80.6962                                         !
 ! D45   D(6,17,19,22)         157.5127                                         !
 ! D46   D(18,17,19,20)       -158.6285                                         !
 ! D47   D(18,17,19,21)         83.085                                          !
 ! D48   D(18,17,19,22)        -38.7061                                         !
 ! D49   D(17,19,21,25)         -8.915                                          !
 ! D50   D(17,19,21,36)        170.8541                                         !
 ! D51   D(20,19,21,25)       -127.3606                                         !
 ! D52   D(20,19,21,36)         52.4085                                         !
 ! D53   D(22,19,21,25)        112.4166                                         !
 ! D54   D(22,19,21,36)        -67.8144                                         !
 ! D55   D(17,19,22,23)        179.9762                                         !
 ! D56   D(17,19,22,24)         64.862                                          !
 ! D57   D(17,19,22,26)        -57.385                                          !
 ! D58   D(20,19,22,23)        -61.1029                                         !
 ! D59   D(20,19,22,24)       -176.2171                                         !
 ! D60   D(20,19,22,26)         61.5359                                         !
 ! D61   D(21,19,22,23)         57.9768                                         !
 ! D62   D(21,19,22,24)        -57.1374                                         !
 ! D63   D(21,19,22,26)       -179.3844                                         !
 ! D64   D(19,21,36,37)          9.2843                                         !
 ! D65   D(19,21,36,38)        153.6391                                         !
 ! D66   D(25,21,36,37)       -170.9464                                         !
 ! D67   D(25,21,36,38)        -26.5917                                         !
 ! D68   D(19,22,26,27)         61.6023                                         !
 ! D69   D(19,22,26,28)        178.9364                                         !
 ! D70   D(19,22,26,32)        -57.4394                                         !
 ! D71   D(23,22,26,27)       -175.6794                                         !
 ! D72   D(23,22,26,28)        -58.3453                                         !
 ! D73   D(23,22,26,32)         65.2789                                         !
 ! D74   D(24,22,26,27)        -59.9043                                         !
 ! D75   D(24,22,26,28)         57.4298                                         !
 ! D76   D(24,22,26,32)       -178.946                                          !
 ! D77   D(22,26,28,29)         63.5665                                         !
 ! D78   D(22,26,28,30)       -176.8186                                         !
 ! D79   D(22,26,28,31)        -56.671                                          !
 ! D80   D(27,26,28,29)       -179.1529                                         !
 ! D81   D(27,26,28,30)        -59.5381                                         !
 ! D82   D(27,26,28,31)         60.6095                                         !
 ! D83   D(32,26,28,29)        -60.7055                                         !
 ! D84   D(32,26,28,30)         58.9093                                         !
 ! D85   D(32,26,28,31)        179.057                                          !
 ! D86   D(22,26,32,33)        -56.9719                                         !
 ! D87   D(22,26,32,34)         64.2414                                         !
 ! D88   D(22,26,32,35)       -176.1554                                         !
 ! D89   D(27,26,32,33)       -175.8939                                         !
 ! D90   D(27,26,32,34)        -54.6807                                         !
 ! D91   D(27,26,32,35)         64.9225                                         !
 ! D92   D(28,26,32,33)         65.73                                           !
 ! D93   D(28,26,32,34)       -173.0567                                         !
 ! D94   D(28,26,32,35)        -53.4535                                         !
 ! D95   D(21,36,38,39)        -10.1056                                         !
 ! D96   D(21,36,38,40)       -126.735                                          !
 ! D97   D(21,36,38,41)        110.9767                                         !
 ! D98   D(37,36,38,39)        135.678                                          !
 ! D99   D(37,36,38,40)         19.0485                                         !
 ! D100  D(37,36,38,41)       -103.2397                                         !
 ! D101  D(36,38,40,44)        -10.1046                                         !
 ! D102  D(36,38,40,60)        171.1455                                         !
 ! D103  D(39,38,40,44)       -126.6693                                         !
 ! D104  D(39,38,40,60)         54.5808                                         !
 ! D105  D(41,38,40,44)        114.4755                                         !
 ! D106  D(41,38,40,60)        -64.2744                                         !
 ! D107  D(36,38,41,42)        171.2032                                         !
 ! D108  D(36,38,41,43)         56.693                                          !
 ! D109  D(36,38,41,45)        -66.9013                                         !
 ! D110  D(39,38,41,42)        -67.8718                                         !
 ! D111  D(39,38,41,43)        177.6179                                         !
 ! D112  D(39,38,41,45)         54.0237                                         !
 ! D113  D(40,38,41,42)         50.8703                                         !
 ! D114  D(40,38,41,43)        -63.6399                                         !
 ! D115  D(40,38,41,45)        172.7658                                         !
 ! D116  D(38,40,60,61)        178.9581                                         !
 ! D117  D(44,40,60,61)          0.2145                                         !
 ! D118  D(38,41,45,46)       -120.8417                                         !
 ! D119  D(38,41,45,47)         -5.2749                                         !
 ! D120  D(38,41,45,48)        118.9534                                         !
 ! D121  D(42,41,45,46)         -0.2955                                         !
 ! D122  D(42,41,45,47)        115.2713                                         !
 ! D123  D(42,41,45,48)       -120.5004                                         !
 ! D124  D(43,41,45,46)        117.3196                                         !
 ! D125  D(43,41,45,47)       -127.1135                                         !
 ! D126  D(43,41,45,48)         -2.8853                                         !
 ! D127  D(41,45,48,49)       -178.9863                                         !
 ! D128  D(41,45,48,50)         62.8033                                         !
 ! D129  D(41,45,48,51)        -56.728                                          !
 ! D130  D(46,45,48,49)         58.9573                                         !
 ! D131  D(46,45,48,50)        -59.2531                                         !
 ! D132  D(46,45,48,51)       -178.7845                                         !
 ! D133  D(47,45,48,49)        -55.5777                                         !
 ! D134  D(47,45,48,50)       -173.7881                                         !
 ! D135  D(47,45,48,51)         66.6805                                         !
 ! D136  D(45,48,51,52)         88.9992                                         !
 ! D137  D(45,48,51,59)        -74.8356                                         !
 ! D138  D(49,48,51,52)       -147.1866                                         !
 ! D139  D(49,48,51,59)         48.9786                                         !
 ! D140  D(50,48,51,52)        -32.8859                                         !
 ! D141  D(50,48,51,59)        163.2793                                         !
 ! D142  D(48,51,59,53)         -3.1543                                         !
 ! D143  D(48,51,59,56)        179.1102                                         !
 ! D144  D(52,51,59,53)       -167.1271                                         !
 ! D145  D(52,51,59,56)         15.1374                                         !
 ! D146  D(54,53,59,51)        175.7299                                         !
 ! D147  D(54,53,59,56)         -6.4938                                         !
 ! D148  D(55,53,59,51)         35.3824                                         !
 ! D149  D(55,53,59,56)       -146.8414                                         !
 ! D150  D(57,56,59,51)       -168.2089                                         !
 ! D151  D(57,56,59,53)         14.0028                                         !
 ! D152  D(58,56,59,51)         18.2628                                         !
 ! D153  D(58,56,59,53)       -159.5255                                         !
 --------------------------------------------------------------------------------
 Symmetry turned off by external request.
 Stoichiometry    C17H33N6O6(1+)
 Framework group  C1[X(C17H33N6O6)]
 Deg. of freedom   180
 Full point group                 C1      NOp   1
                          Input orientation:                          
 ---------------------------------------------------------------------
 Center     Atomic      Atomic             Coordinates (Angstroms)
 Number     Number       Type             X           Y           Z
 ---------------------------------------------------------------------
      1          7           0       -2.643155    1.218823   -4.479448
      2          1           0       -3.563086    1.338635   -4.058843
      3          1           0       -2.250804    2.157045   -4.552265
      4          6           0       -1.798448    0.410712   -3.617900
      5          1           0       -2.356107   -0.498079   -3.366898
      6          6           0       -1.413532    1.071014   -2.283450
      7          6           0       -0.494044    0.001026   -4.367435
      8          1           0        0.371758    0.035347   -3.697094
      9          1           0       -0.323045    0.733359   -5.163227
     10          8           0       -1.534457    2.303185   -2.111746
     11          6           0       -0.596524   -1.390510   -4.991205
     12          1           0       -1.504458   -1.477195   -5.602028
     13          1           0        0.241441   -1.592505   -5.668646
     14          6           0       -0.621912   -2.492999   -3.953938
     15          8           0       -0.654316   -2.338209   -2.741502
     16          8           0       -0.610522   -3.708710   -4.516951
     17          7           0       -0.919621    0.226453   -1.366069
     18          1           0       -0.767022   -0.734018   -1.683323
     19          6           0       -0.296192    0.619560   -0.121177
     20          1           0       -0.832959    1.487774    0.273350
     21          6           0        1.175739    1.031388   -0.354845
     22          6           0       -0.372218   -0.550341    0.886536
     23          1           0        0.102216   -0.247082    1.828372
     24          1           0        0.231577   -1.379695    0.492271
     25          8           0        1.754235    0.865132   -1.424951
     26          6           0       -1.800006   -1.050191    1.180228
     27          1           0       -2.229183   -1.421010    0.239507
     28          6           0       -1.736128   -2.223284    2.168742
     29          1           0       -1.326498   -1.900751    3.134402
     30          1           0       -2.734926   -2.633845    2.350938
     31          1           0       -1.103505   -3.033751    1.788646
     32          6           0       -2.706468    0.068681    1.711267
     33          1           0       -2.279743    0.522841    2.615588
     34          1           0       -2.863843    0.861402    0.970219
     35          1           0       -3.692741   -0.326915    1.975489
     36          7           0        1.777082    1.602793    0.735088
     37          1           0        1.262808    1.566681    1.610837
     38          6           0        3.223404    1.546541    0.942185
     39          1           0        3.648851    0.848545    0.212980
     40          6           0        3.449070    0.977772    2.344717
     41          6           0        3.935653    2.910560    0.793163
     42          1           0        4.971269    2.783726    1.120323
     43          1           0        3.474372    3.615733    1.497334
     44          8           0        2.566752    0.817170    3.161828
     45          6           0        3.896983    3.456122   -0.654358
     46          1           0        4.916339    3.599692   -1.029628
     47          1           0        3.442886    2.702070   -1.306408
     48          6           0        3.174945    4.804955   -0.808051
     49          1           0        3.167397    5.125142   -1.855139
     50          1           0        3.695805    5.581805   -0.241938
     51          7           0        1.787416    4.808292   -0.323730
     52          1           0        1.637263    5.039832    0.648162
     53          7           0        0.922874    3.664824   -2.165797
     54          1           0        0.092527    3.202038   -2.539720
     55          1           0        1.789890    3.179640   -2.353532
     56          7           0       -0.474894    4.278812   -0.437660
     57          1           0       -1.189574    3.681626   -0.861922
     58          1           0       -0.723688    4.938651    0.284333
     59          6           0        0.756171    4.241065   -0.965333
     60          8           0        4.743263    0.706391    2.563591
     61          1           0        4.829055    0.363990    3.474701
     62          1           0       -0.638409   -4.370810   -3.799540
 ---------------------------------------------------------------------
 Rotational constants (GHZ):           0.1892820           0.1103293           0.0941874
 Standard basis: 6-31G(d) (6D, 7F)
   501 basis functions,   944 primitive gaussians,   501 cartesian basis functions
   112 alpha electrons      112 beta electrons
       nuclear repulsion energy      3189.4507164758 Hartrees.
 NAtoms=   62 NActive=   62 NUniq=   62 SFac= 1.00D+00 NAtFMM=   60 NAOKFM=T Big=T
 Integral buffers will be    131072 words long.
 Raffenetti 2 integral format.
 Two-electron integral symmetry is turned off.
 Nuclear repulsion after empirical dispersion term =     3189.3666083382 Hartrees.
 One-electron integrals computed using PRISM.
 NBasis=   501 RedAO= T EigKep=  1.93D-03  NBF=   501
 NBsUse=   501 1.00D-06 EigRej= -1.00D+00 NBFU=   501
 Initial guess from the checkpoint file:  "conf-669.chk"
 B after Tr=     0.000000    0.000000    0.000000
         Rot=    1.000000    0.000000    0.000000    0.000000 Ang=   0.00 deg.
 Requested convergence on RMS density matrix=1.00D-08 within 128 cycles.
 Requested convergence on MAX density matrix=1.00D-06.
 Requested convergence on             energy=1.00D-06.
 No special actions if energy rises.
 SCF Done:  E(RB3LYP) =  -1447.52292984     A.U. after    1 cycles
            NFock=  1  Conv=0.67D-08     -V/T= 2.0094

 **********************************************************************

            Population analysis using the SCF Density.

 **********************************************************************

 Alpha  occ. eigenvalues --  -19.31229 -19.29194 -19.25927 -19.24464 -19.24043
 Alpha  occ. eigenvalues --  -19.24017 -14.51559 -14.50063 -14.49386 -14.47698
 Alpha  occ. eigenvalues --  -14.46457 -14.40522 -10.46882 -10.43846 -10.42279
 Alpha  occ. eigenvalues --  -10.40673 -10.39695 -10.35960 -10.35785 -10.34526
 Alpha  occ. eigenvalues --  -10.31972 -10.31316 -10.31111 -10.29309 -10.29078
 Alpha  occ. eigenvalues --  -10.28514 -10.27983 -10.26033 -10.25273  -1.22331
 Alpha  occ. eigenvalues --   -1.20494  -1.16086  -1.15467  -1.14647  -1.13514
 Alpha  occ. eigenvalues --   -1.11405  -1.05426  -1.04456  -1.03787  -1.03054
 Alpha  occ. eigenvalues --   -0.98178  -0.92568  -0.90819  -0.88635  -0.87919
 Alpha  occ. eigenvalues --   -0.85068  -0.81339  -0.80147  -0.77549  -0.76895
 Alpha  occ. eigenvalues --   -0.75713  -0.74777  -0.73769  -0.72672  -0.71396
 Alpha  occ. eigenvalues --   -0.69888  -0.69151  -0.68301  -0.67741  -0.65875
 Alpha  occ. eigenvalues --   -0.64385  -0.63949  -0.63360  -0.61683  -0.61115
 Alpha  occ. eigenvalues --   -0.60320  -0.59924  -0.59624  -0.59040  -0.58899
 Alpha  occ. eigenvalues --   -0.58372  -0.58000  -0.57433  -0.56462  -0.56007
 Alpha  occ. eigenvalues --   -0.55384  -0.54807  -0.54136  -0.53855  -0.53412
 Alpha  occ. eigenvalues --   -0.52761  -0.51917  -0.51572  -0.51162  -0.50800
 Alpha  occ. eigenvalues --   -0.50092  -0.49714  -0.49065  -0.48214  -0.47732
 Alpha  occ. eigenvalues --   -0.47435  -0.46840  -0.46636  -0.46533  -0.46021
 Alpha  occ. eigenvalues --   -0.45278  -0.45212  -0.43518  -0.43362  -0.42207
 Alpha  occ. eigenvalues --   -0.41849  -0.41716  -0.41477  -0.41294  -0.40418
 Alpha  occ. eigenvalues --   -0.39515  -0.38536  -0.37919  -0.37846  -0.37695
 Alpha  occ. eigenvalues --   -0.36258  -0.33179
 Alpha virt. eigenvalues --   -0.12233  -0.10811  -0.09824  -0.09464  -0.08945
 Alpha virt. eigenvalues --   -0.07007  -0.03947  -0.02984  -0.02557  -0.01926
 Alpha virt. eigenvalues --   -0.01233  -0.00860   0.00319   0.00824   0.01229
 Alpha virt. eigenvalues --    0.01550   0.02709   0.02747   0.03243   0.03466
 Alpha virt. eigenvalues --    0.04096   0.04667   0.04815   0.05042   0.05770
 Alpha virt. eigenvalues --    0.06236   0.06704   0.06851   0.07306   0.07535
 Alpha virt. eigenvalues --    0.08379   0.08648   0.09028   0.09236   0.09480
 Alpha virt. eigenvalues --    0.09689   0.10369   0.10606   0.10916   0.11678
 Alpha virt. eigenvalues --    0.12049   0.12328   0.13097   0.13515   0.13679
 Alpha virt. eigenvalues --    0.14498   0.14709   0.15465   0.15801   0.16444
 Alpha virt. eigenvalues --    0.17179   0.18056   0.18743   0.18880   0.19630
 Alpha virt. eigenvalues --    0.20339   0.22004   0.22592   0.24344   0.24933
 Alpha virt. eigenvalues --    0.26230   0.27211   0.27903   0.29610   0.31458
 Alpha virt. eigenvalues --    0.31947   0.34046   0.37458   0.38279   0.39628
 Alpha virt. eigenvalues --    0.40015   0.40701   0.41141   0.42881   0.43075
 Alpha virt. eigenvalues --    0.43506   0.44015   0.44118   0.44782   0.45295
 Alpha virt. eigenvalues --    0.46027   0.46325   0.46781   0.47602   0.48001
 Alpha virt. eigenvalues --    0.48395   0.49058   0.49675   0.50851   0.51165
 Alpha virt. eigenvalues --    0.51903   0.52741   0.53338   0.53623   0.54314
 Alpha virt. eigenvalues --    0.54471   0.55254   0.55516   0.56121   0.56374
 Alpha virt. eigenvalues --    0.56520   0.57222   0.58207   0.59067   0.59452
 Alpha virt. eigenvalues --    0.60220   0.60351   0.61753   0.63280   0.63395
 Alpha virt. eigenvalues --    0.64246   0.64539   0.64954   0.66050   0.66330
 Alpha virt. eigenvalues --    0.67747   0.68026   0.68304   0.69132   0.70360
 Alpha virt. eigenvalues --    0.70729   0.71205   0.71385   0.72354   0.73137
 Alpha virt. eigenvalues --    0.73275   0.73783   0.74297   0.75135   0.75380
 Alpha virt. eigenvalues --    0.75977   0.76401   0.76979   0.77166   0.77597
 Alpha virt. eigenvalues --    0.77909   0.78145   0.79049   0.79441   0.80040
 Alpha virt. eigenvalues --    0.80506   0.80936   0.81252   0.81762   0.82118
 Alpha virt. eigenvalues --    0.82352   0.83116   0.83153   0.83840   0.84005
 Alpha virt. eigenvalues --    0.84183   0.84842   0.84921   0.85726   0.86243
 Alpha virt. eigenvalues --    0.86333   0.86650   0.87517   0.87928   0.88790
 Alpha virt. eigenvalues --    0.88819   0.89401   0.90035   0.90990   0.91709
 Alpha virt. eigenvalues --    0.92333   0.92816   0.94110   0.95159   0.95456
 Alpha virt. eigenvalues --    0.97075   0.97654   0.98772   1.00191   1.01694
 Alpha virt. eigenvalues --    1.03101   1.04137   1.04928   1.05037   1.05916
 Alpha virt. eigenvalues --    1.06155   1.07130   1.08802   1.09501   1.10999
 Alpha virt. eigenvalues --    1.12248   1.12424   1.14004   1.16342   1.16810
 Alpha virt. eigenvalues --    1.18867   1.21092   1.21826   1.22407   1.23159
 Alpha virt. eigenvalues --    1.24380   1.26026   1.27341   1.28945   1.29568
 Alpha virt. eigenvalues --    1.29983   1.30116   1.31614   1.32596   1.33563
 Alpha virt. eigenvalues --    1.35048   1.35909   1.36781   1.37347   1.37715
 Alpha virt. eigenvalues --    1.38804   1.40624   1.41875   1.42913   1.44716
 Alpha virt. eigenvalues --    1.45082   1.48038   1.49769   1.50571   1.51113
 Alpha virt. eigenvalues --    1.52734   1.54124   1.54745   1.56024   1.56882
 Alpha virt. eigenvalues --    1.57534   1.58803   1.59684   1.60234   1.61070
 Alpha virt. eigenvalues --    1.61420   1.62171   1.63702   1.64138   1.65223
 Alpha virt. eigenvalues --    1.65687   1.66982   1.67307   1.68192   1.68951
 Alpha virt. eigenvalues --    1.69149   1.69652   1.70034   1.70630   1.71431
 Alpha virt. eigenvalues --    1.71976   1.72375   1.73050   1.73779   1.74452
 Alpha virt. eigenvalues --    1.75136   1.76485   1.76969   1.77607   1.78035
 Alpha virt. eigenvalues --    1.79552   1.79983   1.80858   1.82619   1.83137
 Alpha virt. eigenvalues --    1.84117   1.84407   1.85125   1.85214   1.85376
 Alpha virt. eigenvalues --    1.87501   1.87784   1.88603   1.89035   1.89603
 Alpha virt. eigenvalues --    1.90764   1.92274   1.93188   1.93826   1.94484
 Alpha virt. eigenvalues --    1.95399   1.95895   1.97107   1.97656   1.98804
 Alpha virt. eigenvalues --    1.99532   2.00620   2.02056   2.02956   2.03381
 Alpha virt. eigenvalues --    2.03853   2.04258   2.05808   2.07438   2.10215
 Alpha virt. eigenvalues --    2.12083   2.12395   2.13435   2.15404   2.16254
 Alpha virt. eigenvalues --    2.16855   2.18149   2.19294   2.20259   2.22446
 Alpha virt. eigenvalues --    2.22722   2.23190   2.23738   2.25240   2.25818
 Alpha virt. eigenvalues --    2.25989   2.27234   2.28930   2.30124   2.31042
 Alpha virt. eigenvalues --    2.32982   2.33284   2.33921   2.34171   2.35411
 Alpha virt. eigenvalues --    2.36622   2.37592   2.37803   2.39324   2.40670
 Alpha virt. eigenvalues --    2.42226   2.42636   2.43728   2.44880   2.45536
 Alpha virt. eigenvalues --    2.46822   2.47519   2.48703   2.50320   2.50692
 Alpha virt. eigenvalues --    2.51817   2.54741   2.55175   2.55391   2.57989
 Alpha virt. eigenvalues --    2.58643   2.59921   2.61252   2.62472   2.64405
 Alpha virt. eigenvalues --    2.65128   2.67849   2.68423   2.69323   2.73650
 Alpha virt. eigenvalues --    2.74715   2.75623   2.79379   2.81948   2.85134
 Alpha virt. eigenvalues --    2.87670   2.88151   2.91055   2.93359   2.95637
 Alpha virt. eigenvalues --    2.96583   2.98541   3.00332   3.04831   3.08574
 Alpha virt. eigenvalues --    3.70381   3.72591   3.74267   3.75338   3.80825
 Alpha virt. eigenvalues --    3.87546   3.90955   3.99776   4.01690   4.02978
 Alpha virt. eigenvalues --    4.07445   4.08140   4.09000   4.12109   4.15106
 Alpha virt. eigenvalues --    4.20012   4.20546   4.22745   4.24787   4.27024
 Alpha virt. eigenvalues --    4.28937   4.35676   4.42072   4.45192   4.45445
 Alpha virt. eigenvalues --    4.47210   4.53245   4.54304   4.61109
          Condensed to atoms (all electrons):
 Mulliken charges:
               1
     1  N   -0.689938
     2  H    0.314063
     3  H    0.305311
     4  C   -0.089696
     5  H    0.172620
     6  C    0.579886
     7  C   -0.283088
     8  H    0.178742
     9  H    0.164412
    10  O   -0.599361
    11  C   -0.365941
    12  H    0.215024
    13  H    0.199357
    14  C    0.598407
    15  O   -0.493907
    16  O   -0.541151
    17  N   -0.581075
    18  H    0.411233
    19  C   -0.079223
    20  H    0.168201
    21  C    0.608012
    22  C   -0.305389
    23  H    0.157997
    24  H    0.161725
    25  O   -0.530201
    26  C   -0.068154
    27  H    0.141611
    28  C   -0.448281
    29  H    0.150748
    30  H    0.160575
    31  H    0.151108
    32  C   -0.457411
    33  H    0.142583
    34  H    0.139586
    35  H    0.167063
    36  N   -0.603584
    37  H    0.356449
    38  C   -0.066264
    39  H    0.212823
    40  C    0.588453
    41  C   -0.270720
    42  H    0.195727
    43  H    0.134994
    44  O   -0.460126
    45  C   -0.300483
    46  H    0.183178
    47  H    0.179805
    48  C   -0.184096
    49  H    0.198020
    50  H    0.192571
    51  N   -0.583279
    52  H    0.355146
    53  N   -0.754071
    54  H    0.399125
    55  H    0.381823
    56  N   -0.788992
    57  H    0.419437
    58  H    0.366070
    59  C    0.782587
    60  O   -0.550471
    61  H    0.435483
    62  H    0.424945
 Sum of Mulliken charges =   1.00000
 Mulliken charges with hydrogens summed into heavy atoms:
               1
     1  N   -0.070564
     4  C    0.082924
     6  C    0.579886
     7  C    0.060067
    10  O   -0.599361
    11  C    0.048440
    14  C    0.598407
    15  O   -0.493907
    16  O   -0.116205
    17  N   -0.169842
    19  C    0.088978
    21  C    0.608012
    22  C    0.014332
    25  O   -0.530201
    26  C    0.073458
    28  C    0.014150
    32  C   -0.008179
    36  N   -0.247135
    38  C    0.146559
    40  C    0.588453
    41  C    0.060001
    44  O   -0.460126
    45  C    0.062500
    48  C    0.206495
    51  N   -0.228132
    53  N    0.026877
    56  N   -0.003485
    59  C    0.782587
    60  O   -0.114988
 Electronic spatial extent (au):  <R**2>=          14191.8934
 Charge=              1.0000 electrons
 Dipole moment (field-independent basis, Debye):
    X=              5.4450    Y=             10.5199    Z=             -1.6183  Tot=             11.9556
 Quadrupole moment (field-independent basis, Debye-Ang):
   XX=           -131.5257   YY=            -96.6314   ZZ=           -147.0200
   XY=             24.1647   XZ=              9.5167   YZ=              7.5215
 Traceless Quadrupole moment (field-independent basis, Debye-Ang):
   XX=             -6.4667   YY=             28.4276   ZZ=            -21.9609
   XY=             24.1647   XZ=              9.5167   YZ=              7.5215
 Octapole moment (field-independent basis, Debye-Ang**2):
  XXX=           -114.9893  YYY=           -268.8995  ZZZ=            399.2673  XYY=              7.0820
  XXY=            -76.9557  XXZ=            195.9107  XZZ=            -22.3509  YZZ=           -173.5773
  YYZ=            120.6293  XYZ=            -12.8299
 Hexadecapole moment (field-independent basis, Debye-Ang**3):
 XXXX=          -4450.5969 YYYY=          -4568.0739 ZZZZ=          -6347.8541 XXXY=          -1066.8628
 XXXZ=           -533.7107 YYYX=           -911.5756 YYYZ=            222.7211 ZZZX=           -808.9684
 ZZZY=            -44.2376 XXYY=          -1485.0054 XXZZ=          -1674.8115 YYZZ=          -1957.8197
 XXYZ=            -73.0539 YYXZ=           -286.2946 ZZXY=           -405.4361
 N-N= 3.189366608338D+03 E-N=-9.728733147846D+03  KE= 1.434099930974D+03
 Unable to Open any file for archive entry.
 1\1\GINC-AMR-140\SP\RB3LYP\6-31G(d)\C17H33N6O6(1+)\KENGMITH\01-Jun-202
 2\0\\# B3LYP/6-31G* empiricaldispersion=gd3 guess=read geom=check nosy
 mm integral(ultrafinegrid)\\Candidate Structure: Conf:669 Charge calc 
 in gas phase\\1,1\N,0,-2.6431551331,1.2188233536,-4.4794482178\H,0,-3.
 5630858926,1.3386349433,-4.05884281\H,0,-2.2508039981,2.1570451751,-4.
 5522645284\C,0,-1.798448012,0.4107117934,-3.6178997233\H,0,-2.35610694
 51,-0.4980789306,-3.3668983368\C,0,-1.4135321703,1.0710139194,-2.28344
 96761\C,0,-0.4940436016,0.0010261528,-4.3674350538\H,0,0.3717584829,0.
 035347037,-3.6970942997\H,0,-0.3230450214,0.7333588486,-5.1632265596\O
 ,0,-1.5344570233,2.3031852951,-2.1117456777\C,0,-0.5965240348,-1.39050
 97482,-4.9912054914\H,0,-1.5044583994,-1.477194858,-5.6020279062\H,0,0
 .2414407093,-1.5925054119,-5.6686463315\C,0,-0.6219123152,-2.492998792
 8,-3.9539381903\O,0,-0.6543161966,-2.3382085908,-2.7415016243\O,0,-0.6
 105216059,-3.7087096657,-4.516950562\N,0,-0.9196205954,0.2264528634,-1
 .3660694411\H,0,-0.767021508,-0.7340177692,-1.6833226716\C,0,-0.296191
 5272,0.6195600798,-0.1211766992\H,0,-0.8329587081,1.4877744774,0.27335
 00183\C,0,1.175739114,1.031388473,-0.3548448602\C,0,-0.3722176031,-0.5
 503409999,0.8865363452\H,0,0.1022163075,-0.2470821429,1.8283720063\H,0
 ,0.2315769209,-1.3796953106,0.4922711092\O,0,1.754234829,0.8651319343,
 -1.4249506976\C,0,-1.8000062886,-1.0501907978,1.1802277992\H,0,-2.2291
 831307,-1.4210101431,0.2395067971\C,0,-1.7361284952,-2.2232835926,2.16
 87415498\H,0,-1.3264975033,-1.9007509971,3.1344020603\H,0,-2.734925696
 3,-2.6338446152,2.3509375351\H,0,-1.1035049901,-3.0337505476,1.7886461
 433\C,0,-2.7064684379,0.0686807273,1.7112673612\H,0,-2.2797433538,0.52
 28412887,2.6155877609\H,0,-2.8638431588,0.8614019675,0.9702194246\H,0,
 -3.6927407768,-0.3269147181,1.9754891964\N,0,1.7770823536,1.602793151,
 0.7350879461\H,0,1.2628084783,1.5666811977,1.6108372136\C,0,3.22340366
 05,1.5465407856,0.9421846234\H,0,3.6488506199,0.8485445269,0.212979546
 7\C,0,3.449070359,0.9777718938,2.3447170039\C,0,3.9356530043,2.9105602
 903,0.7931625343\H,0,4.9712692527,2.7837256102,1.1203231666\H,0,3.4743
 719128,3.615732625,1.4973339564\O,0,2.5667519317,0.8171699831,3.161828
 4138\C,0,3.8969829094,3.456121581,-0.6543583294\H,0,4.9163391896,3.599
 6918371,-1.0296284006\H,0,3.4428864216,2.7020698584,-1.3064082343\C,0,
 3.1749450307,4.8049553207,-0.8080508687\H,0,3.1673973981,5.1251418897,
 -1.8551385738\H,0,3.6958048162,5.5818051429,-0.2419375563\N,0,1.787415
 501,4.8082924521,-0.3237303347\H,0,1.6372632382,5.0398321822,0.6481618
 251\N,0,0.9228737047,3.6648237302,-2.1657971327\H,0,0.0925270028,3.202
 0381836,-2.5397201295\H,0,1.7898899735,3.1796398454,-2.353532004\N,0,-
 0.4748944699,4.2788122442,-0.4376600555\H,0,-1.1895739829,3.6816255015
 ,-0.8619218898\H,0,-0.7236883383,4.9386505151,0.2843325508\C,0,0.75617
 06306,4.2410651644,-0.9653331313\O,0,4.7432631119,0.7063906797,2.56359
 10454\H,0,4.8290552537,0.3639903205,3.474701203\H,0,-0.6384085048,-4.3
 708100302,-3.7995396666\\Version=ES64L-G16RevC.01\HF=-1447.5229298\RMS
 D=6.735e-09\Dipole=1.2400267,2.3406536,0.9811584\Quadrupole=-4.8078049
 ,21.1352242,-16.3274193,17.9658953,7.0754441,5.592048\PG=C01 [X(C17H33
 N6O6)]\\@
 The archive entry for this job was punched.


 THE WORLD IS MADE UP OF THE WILLS, THE WON'TS, AND THE CANT'S:
 THE WILLS DO EVERYTHING,
 THE WON'TS DO NOTHING,
 THE CAN'TS CAN'T DO ANYTHING.

                               -- FROM WALT DISNEY'S "BLACK HOLE"
 Job cpu time:       0 days  0 hours  1 minutes  2.0 seconds.
 Elapsed time:       0 days  0 hours  0 minutes 16.1 seconds.
 File lengths (MBytes):  RWF=    248 Int=      0 D2E=      0 Chk=     32 Scr=     16
 Normal termination of Gaussian 16 at Wed Jun  1 02:02:59 2022.
