 Entering Gaussian System, Link 0=/opt/software/Gaussian/g16-AVX2-C.01/g16/g16
 Input=charge-conf-433.com
 Output=charge-conf-433.log
 Initial command:
 /opt/software/Gaussian/g16-AVX2-C.01/g16/l1.exe "/mnt/gs18/scratch/users/kengmith/Gau-20762.inp" -scrdir="/mnt/gs18/scratch/users/kengmith/"
 Entering Link 1 = /opt/software/Gaussian/g16-AVX2-C.01/g16/l1.exe PID=     20773.
  
 Copyright (c) 1988-2019, Gaussian, Inc.  All Rights Reserved.
  
 This is part of the Gaussian(R) 16 program.  It is based on
 the Gaussian(R) 09 system (copyright 2009, Gaussian, Inc.),
 the Gaussian(R) 03 system (copyright 2003, Gaussian, Inc.),
 the Gaussian(R) 98 system (copyright 1998, Gaussian, Inc.),
 the Gaussian(R) 94 system (copyright 1995, Gaussian, Inc.),
 the Gaussian 92(TM) system (copyright 1992, Gaussian, Inc.),
 the Gaussian 90(TM) system (copyright 1990, Gaussian, Inc.),
 the Gaussian 88(TM) system (copyright 1988, Gaussian, Inc.),
 the Gaussian 86(TM) system (copyright 1986, Carnegie Mellon
 University), and the Gaussian 82(TM) system (copyright 1983,
 Carnegie Mellon University). Gaussian is a federally registered
 trademark of Gaussian, Inc.
  
 This software contains proprietary and confidential information,
 including trade secrets, belonging to Gaussian, Inc.
  
 This software is provided under written license and may be
 used, copied, transmitted, or stored only in accord with that
 written license.
  
 The following legend is applicable only to US Government
 contracts under FAR:
  
                    RESTRICTED RIGHTS LEGEND
  
 Use, reproduction and disclosure by the US Government is
 subject to restrictions as set forth in subparagraphs (a)
 and (c) of the Commercial Computer Software - Restricted
 Rights clause in FAR 52.227-19.
  
 Gaussian, Inc.
 340 Quinnipiac St., Bldg. 40, Wallingford CT 06492
  
  
 ---------------------------------------------------------------
 Warning -- This program may not be used in any manner that
 competes with the business of Gaussian, Inc. or will provide
 assistance to any competitor of Gaussian, Inc.  The licensee
 of this program is prohibited from giving any competitor of
 Gaussian, Inc. access to this program.  By using this program,
 the user acknowledges that Gaussian, Inc. is engaged in the
 business of creating and licensing software in the field of
 computational chemistry and represents and warrants to the
 licensee that it is not a competitor of Gaussian, Inc. and that
 it will not use this program in any manner prohibited above.
 ---------------------------------------------------------------
  

 Cite this work as:
 Gaussian 16, Revision C.01,
 M. J. Frisch, G. W. Trucks, H. B. Schlegel, G. E. Scuseria, 
 M. A. Robb, J. R. Cheeseman, G. Scalmani, V. Barone, 
 G. A. Petersson, H. Nakatsuji, X. Li, M. Caricato, A. V. Marenich, 
 J. Bloino, B. G. Janesko, R. Gomperts, B. Mennucci, H. P. Hratchian, 
 J. V. Ortiz, A. F. Izmaylov, J. L. Sonnenberg, D. Williams-Young, 
 F. Ding, F. Lipparini, F. Egidi, J. Goings, B. Peng, A. Petrone, 
 T. Henderson, D. Ranasinghe, V. G. Zakrzewski, J. Gao, N. Rega, 
 G. Zheng, W. Liang, M. Hada, M. Ehara, K. Toyota, R. Fukuda, 
 J. Hasegawa, M. Ishida, T. Nakajima, Y. Honda, O. Kitao, H. Nakai, 
 T. Vreven, K. Throssell, J. A. Montgomery, Jr., J. E. Peralta, 
 F. Ogliaro, M. J. Bearpark, J. J. Heyd, E. N. Brothers, K. N. Kudin, 
 V. N. Staroverov, T. A. Keith, R. Kobayashi, J. Normand, 
 K. Raghavachari, A. P. Rendell, J. C. Burant, S. S. Iyengar, 
 J. Tomasi, M. Cossi, J. M. Millam, M. Klene, C. Adamo, R. Cammi, 
 J. W. Ochterski, R. L. Martin, K. Morokuma, O. Farkas, 
 J. B. Foresman, and D. J. Fox, Gaussian, Inc., Wallingford CT, 2019.
 
 ******************************************
 Gaussian 16:  ES64L-G16RevC.01  3-Jul-2019
                 1-Jun-2022 
 ******************************************
 %mem=8gb
 %nproc=4
 Will use up to    4 processors via shared memory.
 %chk=conf-433.chk
 ----------------------------------------------------------------------
 # B3LYP/6-31G* empiricaldispersion=gd3 guess=read geom=check nosymm in
 tegral(ultrafinegrid)
 ----------------------------------------------------------------------
 1/29=2,38=1,172=1/1;
 2/12=2,15=1,40=1/2;
 3/5=1,6=6,7=1,11=2,14=-4,25=1,30=1,74=-5,75=-5,116=-2,124=31/1,2,3;
 4/5=1/1;
 5/5=2,38=6/2;
 6/7=2,8=2,9=2,10=2,28=1/1;
 99/5=1,9=1/99;
 ------------------------------------------------------
 Candidate Structure: Conf:433 Charge calc in gas phase
 ------------------------------------------------------
 Structure from the checkpoint file:  "conf-433.chk"
 Charge =  1 Multiplicity = 1
 Redundant internal coordinates found in file.  (old form).
 N,0,-1.21009861,-0.1402559769,-4.2308156199
 H,0,-1.1713999043,0.8755796757,-4.2838594483
 H,0,-1.0063220859,-0.5295204768,-5.1469709766
 C,0,-0.2887111401,-0.6105206721,-3.2085514165
 H,0,-0.4536112681,-1.6871331718,-3.0666964232
 C,0,-0.5973694804,0.1544284556,-1.9170123715
 C,0,1.2251066818,-0.3609974063,-3.4679528497
 H,0,1.7954032012,-0.6360871563,-2.5715357436
 H,0,1.3488429666,0.7184471493,-3.6134915543
 O,0,-0.6046295595,1.3846358122,-1.9228835885
 C,0,1.7623544268,-1.113748152,-4.6820558558
 H,0,1.6610616572,-2.1993114274,-4.5692851786
 H,0,1.1973572362,-0.8534328479,-5.5889715137
 C,0,3.2086290402,-0.8157193164,-4.989609724
 O,0,3.8498940881,0.1418379827,-4.564141458
 O,0,3.7434242347,-1.7143621005,-5.8174769679
 N,0,-0.7702086037,-0.5818388662,-0.7831877817
 H,0,-0.5331986713,-1.5644152942,-0.839056117
 C,0,-0.5212921239,0.0459999151,0.5106334516
 H,0,-1.1285165269,0.9530961637,0.5564721837
 C,0,0.9709459641,0.4270802546,0.5552208967
 C,0,-0.8721574551,-0.9027907986,1.6664150147
 H,0,-0.6460629371,-0.3844960661,2.608334439
 H,0,-0.1931136061,-1.7662728464,1.6212000564
 O,0,1.8175113422,-0.2629517817,-0.0144220829
 C,0,-2.334942342,-1.3875830554,1.6910188279
 H,0,-2.5296925412,-1.9261025294,0.7527261628
 C,0,-2.5309281468,-2.3692230897,2.8552591531
 H,0,-2.3615448831,-1.8713682291,3.8185497067
 H,0,-3.5509379983,-2.7682265556,2.8620766781
 H,0,-1.8380806044,-3.2165508108,2.7896056479
 C,0,-3.3296268196,-0.2222612779,1.7815225051
 H,0,-3.1341804961,0.3903340396,2.6716630464
 H,0,-3.2854219444,0.4283608148,0.9011936036
 H,0,-4.3558498584,-0.5972352873,1.8572499453
 N,0,1.2851273959,1.5708870417,1.2163470801
 H,0,0.5817292644,2.0954745609,1.721576151
 C,0,2.6456056737,2.0719267317,1.2363040112
 H,0,3.3056450454,1.2046055202,1.1529529113
 C,0,2.8939285497,2.7680158252,2.563886663
 C,0,2.9692033441,3.0468379194,0.0551638118
 H,0,4.050112826,2.9862288334,-0.1212829842
 H,0,2.7516711707,4.0820939894,0.3509302463
 O,0,2.031232736,3.0684784972,3.3569385533
 C,0,2.1670067541,2.705704111,-1.2074334574
 H,0,2.168194057,1.6260050474,-1.3666142852
 H,0,1.1183404627,2.97732569,-1.0692127015
 C,0,2.6725769947,3.3579699774,-2.4958260707
 H,0,2.9796276012,4.4006806071,-2.3596310466
 H,0,1.8715925072,3.3659304848,-3.240988517
 N,0,3.7781249693,2.5914804949,-3.0928112431
 H,0,3.5240966083,1.6980982516,-3.5226787907
 N,0,5.5919381775,3.8850054927,-2.3707351929
 H,0,6.5016777128,4.25443004,-2.6074488041
 H,0,4.9974763843,4.4698430908,-1.8033945378
 N,0,5.9138061097,2.0877635718,-3.799950479
 H,0,6.8898003048,2.0411371031,-3.5429555575
 H,0,5.5218546401,1.2812699768,-4.2800370809
 C,0,5.0755739732,2.858073726,-3.0756478978
 O,0,4.2020253834,3.0578738067,2.7209292859
 H,0,4.2927706013,3.5250425581,3.5739967498
 H,0,4.6660350404,-1.4601485696,-6.0104491947
 Recover connectivity data from disk.
                           ----------------------------
                           !    Current Parameters    !
                           ! (Angstroms and Degrees)  !
 --------------------------                            --------------------------
 ! Name  Definition              Value                                          !
 --------------------------------------------------------------------------------
 ! R1    R(1,2)                  1.018                                          !
 ! R2    R(1,3)                  1.0161                                         !
 ! R3    R(1,4)                  1.4543                                         !
 ! R4    R(4,5)                  1.0984                                         !
 ! R5    R(4,6)                  1.5325                                         !
 ! R6    R(4,7)                  1.556                                          !
 ! R7    R(6,10)                 1.2302                                         !
 ! R8    R(6,17)                 1.3629                                         !
 ! R9    R(7,8)                  1.0975                                         !
 ! R10   R(7,9)                  1.0962                                         !
 ! R11   R(7,11)                 1.5262                                         !
 ! R12   R(11,12)                1.0961                                         !
 ! R13   R(11,13)                1.0998                                         !
 ! R14   R(11,14)                1.5084                                         !
 ! R15   R(14,15)                1.2285                                         !
 ! R16   R(14,16)                1.3338                                         !
 ! R17   R(16,62)                0.9763                                         !
 ! R18   R(17,18)                1.0123                                         !
 ! R19   R(17,19)                1.4595                                         !
 ! R20   R(19,20)                1.0925                                         !
 ! R21   R(19,21)                1.5408                                         !
 ! R22   R(19,22)                1.5359                                         !
 ! R23   R(21,25)                1.2318                                         !
 ! R24   R(21,36)                1.358                                          !
 ! R25   R(22,23)                1.0986                                         !
 ! R26   R(22,24)                1.0994                                         !
 ! R27   R(22,26)                1.5412                                         !
 ! R28   R(26,27)                1.0992                                         !
 ! R29   R(26,28)                1.5354                                         !
 ! R30   R(26,32)                1.5348                                         !
 ! R31   R(28,29)                1.0975                                         !
 ! R32   R(28,30)                1.0953                                         !
 ! R33   R(28,31)                1.0965                                         !
 ! R34   R(32,33)                1.0981                                         !
 ! R35   R(32,34)                1.0956                                         !
 ! R36   R(32,35)                1.0952                                         !
 ! R37   R(36,37)                1.0125                                         !
 ! R38   R(36,38)                1.4499                                         !
 ! R39   R(38,39)                1.0931                                         !
 ! R40   R(38,40)                1.5194                                         !
 ! R41   R(38,41)                1.5653                                         !
 ! R42   R(40,44)                1.2097                                         !
 ! R43   R(40,60)                1.349                                          !
 ! R44   R(41,42)                1.0969                                         !
 ! R45   R(41,43)                1.0984                                         !
 ! R46   R(41,45)                1.5343                                         !
 ! R47   R(45,46)                1.0914                                         !
 ! R48   R(45,47)                1.0921                                         !
 ! R49   R(45,48)                1.53                                           !
 ! R50   R(48,49)                1.0955                                         !
 ! R51   R(48,50)                1.094                                          !
 ! R52   R(48,51)                1.4718                                         !
 ! R53   R(51,52)                1.0234                                         !
 ! R54   R(51,59)                1.3247                                         !
 ! R55   R(53,54)                1.01                                           !
 ! R56   R(53,55)                1.0086                                         !
 ! R57   R(53,59)                1.3484                                         !
 ! R58   R(56,57)                1.0103                                         !
 ! R59   R(56,58)                1.0171                                         !
 ! R60   R(56,59)                1.3493                                         !
 ! R61   R(60,61)                0.9768                                         !
 ! A1    A(2,1,3)              109.1294                                         !
 ! A2    A(2,1,4)              109.5859                                         !
 ! A3    A(3,1,4)              112.5101                                         !
 ! A4    A(1,4,5)              108.2167                                         !
 ! A5    A(1,4,6)              107.661                                          !
 ! A6    A(1,4,7)              116.5722                                         !
 ! A7    A(5,4,6)              110.4988                                         !
 ! A8    A(5,4,7)              108.9519                                         !
 ! A9    A(6,4,7)              104.8567                                         !
 ! A10   A(4,6,10)             119.7562                                         !
 ! A11   A(4,6,17)             117.1942                                         !
 ! A12   A(10,6,17)            122.917                                          !
 ! A13   A(4,7,8)              109.2193                                         !
 ! A14   A(4,7,9)              106.8492                                         !
 ! A15   A(4,7,11)             113.3279                                         !
 ! A16   A(8,7,9)              107.2538                                         !
 ! A17   A(8,7,11)             110.0727                                         !
 ! A18   A(9,7,11)             109.8964                                         !
 ! A19   A(7,11,12)            111.9688                                         !
 ! A20   A(7,11,13)            111.003                                          !
 ! A21   A(7,11,14)            113.7207                                         !
 ! A22   A(12,11,13)           105.771                                          !
 ! A23   A(12,11,14)           107.7747                                         !
 ! A24   A(13,11,14)           106.1222                                         !
 ! A25   A(11,14,15)           125.726                                          !
 ! A26   A(11,14,16)           112.2036                                         !
 ! A27   A(15,14,16)           122.0624                                         !
 ! A28   A(14,16,62)           109.037                                          !
 ! A29   A(6,17,18)            116.6636                                         !
 ! A30   A(6,17,19)            118.912                                          !
 ! A31   A(18,17,19)           115.2481                                         !
 ! A32   A(17,19,20)           107.4313                                         !
 ! A33   A(17,19,21)           107.2911                                         !
 ! A34   A(17,19,22)           111.2465                                         !
 ! A35   A(20,19,21)           109.3732                                         !
 ! A36   A(20,19,22)           110.7529                                         !
 ! A37   A(21,19,22)           110.6247                                         !
 ! A38   A(19,21,25)           120.9093                                         !
 ! A39   A(19,21,36)           116.5184                                         !
 ! A40   A(25,21,36)           122.546                                          !
 ! A41   A(19,22,23)           107.8619                                         !
 ! A42   A(19,22,24)           108.2472                                         !
 ! A43   A(19,22,26)           115.0322                                         !
 ! A44   A(23,22,24)           106.1812                                         !
 ! A45   A(23,22,26)           109.2708                                         !
 ! A46   A(24,22,26)           109.8653                                         !
 ! A47   A(22,26,27)           107.9763                                         !
 ! A48   A(22,26,28)           109.5333                                         !
 ! A49   A(22,26,32)           112.1617                                         !
 ! A50   A(27,26,28)           108.1444                                         !
 ! A51   A(27,26,32)           107.9076                                         !
 ! A52   A(28,26,32)           110.9769                                         !
 ! A53   A(26,28,29)           110.8437                                         !
 ! A54   A(26,28,30)           110.8849                                         !
 ! A55   A(26,28,31)           111.592                                          !
 ! A56   A(29,28,30)           107.6691                                         !
 ! A57   A(29,28,31)           107.793                                          !
 ! A58   A(30,28,31)           107.897                                          !
 ! A59   A(26,32,33)           110.8562                                         !
 ! A60   A(26,32,34)           112.1714                                         !
 ! A61   A(26,32,35)           110.5725                                         !
 ! A62   A(33,32,34)           108.2331                                         !
 ! A63   A(33,32,35)           107.5614                                         !
 ! A64   A(34,32,35)           107.2594                                         !
 ! A65   A(21,36,37)           121.2376                                         !
 ! A66   A(21,36,38)           120.9871                                         !
 ! A67   A(37,36,38)           117.7703                                         !
 ! A68   A(36,38,39)           106.9379                                         !
 ! A69   A(36,38,40)           108.8857                                         !
 ! A70   A(36,38,41)           113.5035                                         !
 ! A71   A(39,38,40)           109.3563                                         !
 ! A72   A(39,38,41)           108.1685                                         !
 ! A73   A(40,38,41)           109.8876                                         !
 ! A74   A(38,40,44)           124.7518                                         !
 ! A75   A(38,40,60)           111.0159                                         !
 ! A76   A(44,40,60)           124.182                                          !
 ! A77   A(38,41,42)           106.8988                                         !
 ! A78   A(38,41,43)           110.0523                                         !
 ! A79   A(38,41,45)           111.9861                                         !
 ! A80   A(42,41,43)           106.8905                                         !
 ! A81   A(42,41,45)           111.7506                                         !
 ! A82   A(43,41,45)           109.1225                                         !
 ! A83   A(41,45,46)           109.8415                                         !
 ! A84   A(41,45,47)           110.0362                                         !
 ! A85   A(41,45,48)           115.1763                                         !
 ! A86   A(46,45,47)           105.4009                                         !
 ! A87   A(46,45,48)           107.3717                                         !
 ! A88   A(47,45,48)           108.5329                                         !
 ! A89   A(45,48,49)           113.1849                                         !
 ! A90   A(45,48,50)           109.5559                                         !
 ! A91   A(45,48,51)           111.577                                          !
 ! A92   A(49,48,50)           106.4372                                         !
 ! A93   A(49,48,51)           109.6085                                         !
 ! A94   A(50,48,51)           106.1094                                         !
 ! A95   A(48,51,52)           116.0101                                         !
 ! A96   A(48,51,59)           128.731                                          !
 ! A97   A(52,51,59)           115.1017                                         !
 ! A98   A(54,53,55)           116.7833                                         !
 ! A99   A(54,53,59)           120.0644                                         !
 ! A100  A(55,53,59)           120.6619                                         !
 ! A101  A(57,56,58)           117.1114                                         !
 ! A102  A(57,56,59)           119.3352                                         !
 ! A103  A(58,56,59)           117.8169                                         !
 ! A104  A(51,59,53)           122.3529                                         !
 ! A105  A(51,59,56)           119.1186                                         !
 ! A106  A(53,59,56)           118.5238                                         !
 ! A107  A(40,60,61)           107.1279                                         !
 ! D1    D(2,1,4,5)            171.8113                                         !
 ! D2    D(2,1,4,6)             52.3599                                         !
 ! D3    D(2,1,4,7)            -65.0343                                         !
 ! D4    D(3,1,4,5)            -66.5899                                         !
 ! D5    D(3,1,4,6)            173.9586                                         !
 ! D6    D(3,1,4,7)             56.5644                                         !
 ! D7    D(1,4,6,10)           -54.446                                          !
 ! D8    D(1,4,6,17)           129.6175                                         !
 ! D9    D(5,4,6,10)          -172.4341                                         !
 ! D10   D(5,4,6,17)            11.6294                                         !
 ! D11   D(7,4,6,10)            70.3145                                         !
 ! D12   D(7,4,6,17)          -105.622                                          !
 ! D13   D(1,4,7,8)            172.4141                                         !
 ! D14   D(1,4,7,9)             56.7064                                         !
 ! D15   D(1,4,7,11)           -64.4815                                         !
 ! D16   D(5,4,7,8)            -64.8127                                         !
 ! D17   D(5,4,7,9)            179.4796                                         !
 ! D18   D(5,4,7,11)            58.2917                                         !
 ! D19   D(6,4,7,8)             53.4917                                         !
 ! D20   D(6,4,7,9)            -62.216                                          !
 ! D21   D(6,4,7,11)           176.5961                                         !
 ! D22   D(4,6,17,18)            9.8094                                         !
 ! D23   D(4,6,17,19)          155.1548                                         !
 ! D24   D(10,6,17,18)        -165.988                                          !
 ! D25   D(10,6,17,19)         -20.6426                                         !
 ! D26   D(4,7,11,12)          -60.9103                                         !
 ! D27   D(4,7,11,13)           57.0463                                         !
 ! D28   D(4,7,11,14)          176.6233                                         !
 ! D29   D(8,7,11,12)           61.7225                                         !
 ! D30   D(8,7,11,13)          179.6792                                         !
 ! D31   D(8,7,11,14)          -60.7438                                         !
 ! D32   D(9,7,11,12)          179.6325                                         !
 ! D33   D(9,7,11,13)          -62.4109                                         !
 ! D34   D(9,7,11,14)           57.1661                                         !
 ! D35   D(7,11,14,15)         -16.9096                                         !
 ! D36   D(7,11,14,16)         164.1012                                         !
 ! D37   D(12,11,14,15)       -141.6577                                         !
 ! D38   D(12,11,14,16)         39.3531                                         !
 ! D39   D(13,11,14,15)        105.4023                                         !
 ! D40   D(13,11,14,16)        -73.5869                                         !
 ! D41   D(11,14,16,62)        177.9497                                         !
 ! D42   D(15,14,16,62)         -1.082                                          !
 ! D43   D(6,17,19,20)          54.2484                                         !
 ! D44   D(6,17,19,21)         -63.2604                                         !
 ! D45   D(6,17,19,22)         175.618                                          !
 ! D46   D(18,17,19,20)       -159.9342                                         !
 ! D47   D(18,17,19,21)         82.5571                                         !
 ! D48   D(18,17,19,22)        -38.5645                                         !
 ! D49   D(17,19,21,25)        -33.0824                                         !
 ! D50   D(17,19,21,36)        145.0965                                         !
 ! D51   D(20,19,21,25)       -149.316                                          !
 ! D52   D(20,19,21,36)         28.8628                                         !
 ! D53   D(22,19,21,25)         88.4302                                         !
 ! D54   D(22,19,21,36)        -93.391                                          !
 ! D55   D(17,19,22,23)        178.8917                                         !
 ! D56   D(17,19,22,24)         64.4015                                         !
 ! D57   D(17,19,22,26)        -58.8874                                         !
 ! D58   D(20,19,22,23)        -61.6994                                         !
 ! D59   D(20,19,22,24)       -176.1896                                         !
 ! D60   D(20,19,22,26)         60.5215                                         !
 ! D61   D(21,19,22,23)         59.7431                                         !
 ! D62   D(21,19,22,24)        -54.7471                                         !
 ! D63   D(21,19,22,26)       -178.036                                          !
 ! D64   D(19,21,36,37)          5.3214                                         !
 ! D65   D(19,21,36,38)       -175.5087                                         !
 ! D66   D(25,21,36,37)       -176.5322                                         !
 ! D67   D(25,21,36,38)          2.6376                                         !
 ! D68   D(19,22,26,27)         60.0857                                         !
 ! D69   D(19,22,26,28)        177.6342                                         !
 ! D70   D(19,22,26,32)        -58.6786                                         !
 ! D71   D(23,22,26,27)       -178.4555                                         !
 ! D72   D(23,22,26,28)        -60.907                                          !
 ! D73   D(23,22,26,32)         62.7801                                         !
 ! D74   D(24,22,26,27)        -62.3377                                         !
 ! D75   D(24,22,26,28)         55.2108                                         !
 ! D76   D(24,22,26,32)        178.8979                                         !
 ! D77   D(22,26,28,29)         63.4175                                         !
 ! D78   D(22,26,28,30)       -177.0519                                         !
 ! D79   D(22,26,28,31)        -56.7373                                         !
 ! D80   D(27,26,28,29)       -179.1393                                         !
 ! D81   D(27,26,28,30)        -59.6087                                         !
 ! D82   D(27,26,28,31)         60.7059                                         !
 ! D83   D(32,26,28,29)        -60.9631                                         !
 ! D84   D(32,26,28,30)         58.5674                                         !
 ! D85   D(32,26,28,31)        178.8821                                         !
 ! D86   D(22,26,32,33)        -57.44                                           !
 ! D87   D(22,26,32,34)         63.6788                                         !
 ! D88   D(22,26,32,35)       -176.6408                                         !
 ! D89   D(27,26,32,33)       -176.2448                                         !
 ! D90   D(27,26,32,34)        -55.1261                                         !
 ! D91   D(27,26,32,35)         64.5543                                         !
 ! D92   D(28,26,32,33)         65.4356                                         !
 ! D93   D(28,26,32,34)       -173.4457                                         !
 ! D94   D(28,26,32,35)        -53.7653                                         !
 ! D95   D(21,36,38,39)        -29.2205                                         !
 ! D96   D(21,36,38,40)       -147.2788                                         !
 ! D97   D(21,36,38,41)         89.981                                          !
 ! D98   D(37,36,38,39)        149.9773                                         !
 ! D99   D(37,36,38,40)         31.919                                          !
 ! D100  D(37,36,38,41)        -90.8212                                         !
 ! D101  D(36,38,40,44)        -12.5637                                         !
 ! D102  D(36,38,40,60)        169.9287                                         !
 ! D103  D(39,38,40,44)       -129.0855                                         !
 ! D104  D(39,38,40,60)         53.407                                          !
 ! D105  D(41,38,40,44)        112.3248                                         !
 ! D106  D(41,38,40,60)        -65.1828                                         !
 ! D107  D(36,38,41,42)       -153.8152                                         !
 ! D108  D(36,38,41,43)         90.4542                                         !
 ! D109  D(36,38,41,45)        -31.1097                                         !
 ! D110  D(39,38,41,42)        -35.3204                                         !
 ! D111  D(39,38,41,43)       -151.0509                                         !
 ! D112  D(39,38,41,45)         87.3852                                         !
 ! D113  D(40,38,41,42)         83.9988                                         !
 ! D114  D(40,38,41,43)        -31.7318                                         !
 ! D115  D(40,38,41,45)       -153.2957                                         !
 ! D116  D(38,40,60,61)        178.3089                                         !
 ! D117  D(44,40,60,61)          0.7844                                         !
 ! D118  D(38,41,45,46)        -43.4757                                         !
 ! D119  D(38,41,45,47)         72.126                                          !
 ! D120  D(38,41,45,48)       -164.8313                                         !
 ! D121  D(42,41,45,46)         76.431                                          !
 ! D122  D(42,41,45,47)       -167.9672                                         !
 ! D123  D(42,41,45,48)        -44.9246                                         !
 ! D124  D(43,41,45,46)       -165.5726                                         !
 ! D125  D(43,41,45,47)        -49.9708                                         !
 ! D126  D(43,41,45,48)         73.0718                                         !
 ! D127  D(41,45,48,49)        -40.988                                          !
 ! D128  D(41,45,48,50)       -159.5952                                         !
 ! D129  D(41,45,48,51)         83.2033                                         !
 ! D130  D(46,45,48,49)       -163.6733                                         !
 ! D131  D(46,45,48,50)         77.7194                                         !
 ! D132  D(46,45,48,51)        -39.4821                                         !
 ! D133  D(47,45,48,49)         82.8512                                         !
 ! D134  D(47,45,48,50)        -35.7561                                         !
 ! D135  D(47,45,48,51)       -152.9576                                         !
 ! D136  D(45,48,51,52)         71.7495                                         !
 ! D137  D(45,48,51,59)       -103.4261                                         !
 ! D138  D(49,48,51,52)       -162.0712                                         !
 ! D139  D(49,48,51,59)         22.7532                                         !
 ! D140  D(50,48,51,52)        -47.5172                                         !
 ! D141  D(50,48,51,59)        137.3072                                         !
 ! D142  D(48,51,59,53)          5.6071                                         !
 ! D143  D(48,51,59,56)       -173.5905                                         !
 ! D144  D(52,51,59,53)       -169.605                                          !
 ! D145  D(52,51,59,56)         11.1974                                         !
 ! D146  D(54,53,59,51)       -159.4736                                         !
 ! D147  D(54,53,59,56)         19.7286                                         !
 ! D148  D(55,53,59,51)          2.0523                                         !
 ! D149  D(55,53,59,56)       -178.7455                                         !
 ! D150  D(57,56,59,51)       -157.1383                                         !
 ! D151  D(57,56,59,53)         23.6331                                         !
 ! D152  D(58,56,59,51)         -4.5691                                         !
 ! D153  D(58,56,59,53)        176.2024                                         !
 --------------------------------------------------------------------------------
 Symmetry turned off by external request.
 Stoichiometry    C17H33N6O6(1+)
 Framework group  C1[X(C17H33N6O6)]
 Deg. of freedom   180
 Full point group                 C1      NOp   1
                          Input orientation:                          
 ---------------------------------------------------------------------
 Center     Atomic      Atomic             Coordinates (Angstroms)
 Number     Number       Type             X           Y           Z
 ---------------------------------------------------------------------
      1          7           0       -1.210099   -0.140256   -4.230816
      2          1           0       -1.171400    0.875580   -4.283859
      3          1           0       -1.006322   -0.529520   -5.146971
      4          6           0       -0.288711   -0.610521   -3.208551
      5          1           0       -0.453611   -1.687133   -3.066696
      6          6           0       -0.597369    0.154428   -1.917012
      7          6           0        1.225107   -0.360997   -3.467953
      8          1           0        1.795403   -0.636087   -2.571536
      9          1           0        1.348843    0.718447   -3.613492
     10          8           0       -0.604630    1.384636   -1.922884
     11          6           0        1.762354   -1.113748   -4.682056
     12          1           0        1.661062   -2.199311   -4.569285
     13          1           0        1.197357   -0.853433   -5.588972
     14          6           0        3.208629   -0.815719   -4.989610
     15          8           0        3.849894    0.141838   -4.564141
     16          8           0        3.743424   -1.714362   -5.817477
     17          7           0       -0.770209   -0.581839   -0.783188
     18          1           0       -0.533199   -1.564415   -0.839056
     19          6           0       -0.521292    0.046000    0.510633
     20          1           0       -1.128517    0.953096    0.556472
     21          6           0        0.970946    0.427080    0.555221
     22          6           0       -0.872157   -0.902791    1.666415
     23          1           0       -0.646063   -0.384496    2.608334
     24          1           0       -0.193114   -1.766273    1.621200
     25          8           0        1.817511   -0.262952   -0.014422
     26          6           0       -2.334942   -1.387583    1.691019
     27          1           0       -2.529693   -1.926103    0.752726
     28          6           0       -2.530928   -2.369223    2.855259
     29          1           0       -2.361545   -1.871368    3.818550
     30          1           0       -3.550938   -2.768227    2.862077
     31          1           0       -1.838081   -3.216551    2.789606
     32          6           0       -3.329627   -0.222261    1.781523
     33          1           0       -3.134180    0.390334    2.671663
     34          1           0       -3.285422    0.428361    0.901194
     35          1           0       -4.355850   -0.597235    1.857250
     36          7           0        1.285127    1.570887    1.216347
     37          1           0        0.581729    2.095475    1.721576
     38          6           0        2.645606    2.071927    1.236304
     39          1           0        3.305645    1.204606    1.152953
     40          6           0        2.893929    2.768016    2.563887
     41          6           0        2.969203    3.046838    0.055164
     42          1           0        4.050113    2.986229   -0.121283
     43          1           0        2.751671    4.082094    0.350930
     44          8           0        2.031233    3.068478    3.356939
     45          6           0        2.167007    2.705704   -1.207433
     46          1           0        2.168194    1.626005   -1.366614
     47          1           0        1.118340    2.977326   -1.069213
     48          6           0        2.672577    3.357970   -2.495826
     49          1           0        2.979628    4.400681   -2.359631
     50          1           0        1.871593    3.365930   -3.240989
     51          7           0        3.778125    2.591480   -3.092811
     52          1           0        3.524097    1.698098   -3.522679
     53          7           0        5.591938    3.885005   -2.370735
     54          1           0        6.501678    4.254430   -2.607449
     55          1           0        4.997476    4.469843   -1.803395
     56          7           0        5.913806    2.087764   -3.799950
     57          1           0        6.889800    2.041137   -3.542956
     58          1           0        5.521855    1.281270   -4.280037
     59          6           0        5.075574    2.858074   -3.075648
     60          8           0        4.202025    3.057874    2.720929
     61          1           0        4.292771    3.525043    3.573997
     62          1           0        4.666035   -1.460149   -6.010449
 ---------------------------------------------------------------------
 Rotational constants (GHZ):           0.1658622           0.1148011           0.0763886
 Standard basis: 6-31G(d) (6D, 7F)
   501 basis functions,   944 primitive gaussians,   501 cartesian basis functions
   112 alpha electrons      112 beta electrons
       nuclear repulsion energy      3097.7790024047 Hartrees.
 NAtoms=   62 NActive=   62 NUniq=   62 SFac= 1.00D+00 NAtFMM=   60 NAOKFM=T Big=T
 Integral buffers will be    131072 words long.
 Raffenetti 2 integral format.
 Two-electron integral symmetry is turned off.
 Nuclear repulsion after empirical dispersion term =     3097.6995200498 Hartrees.
 One-electron integrals computed using PRISM.
 NBasis=   501 RedAO= T EigKep=  1.76D-03  NBF=   501
 NBsUse=   501 1.00D-06 EigRej= -1.00D+00 NBFU=   501
 Initial guess from the checkpoint file:  "conf-433.chk"
 B after Tr=     0.000000    0.000000    0.000000
         Rot=    1.000000    0.000000    0.000000    0.000000 Ang=   0.00 deg.
 Requested convergence on RMS density matrix=1.00D-08 within 128 cycles.
 Requested convergence on MAX density matrix=1.00D-06.
 Requested convergence on             energy=1.00D-06.
 No special actions if energy rises.
 SCF Done:  E(RB3LYP) =  -1447.50177863     A.U. after    1 cycles
            NFock=  1  Conv=0.31D-08     -V/T= 2.0093

 **********************************************************************

            Population analysis using the SCF Density.

 **********************************************************************

 Alpha  occ. eigenvalues --  -19.32622 -19.29504 -19.28355 -19.23897 -19.20856
 Alpha  occ. eigenvalues --  -19.20675 -14.52182 -14.51182 -14.50983 -14.45720
 Alpha  occ. eigenvalues --  -14.44742 -14.40111 -10.48036 -10.45899 -10.41923
 Alpha  occ. eigenvalues --  -10.37896 -10.37392 -10.35653 -10.33928 -10.31857
 Alpha  occ. eigenvalues --  -10.31746 -10.31621 -10.30327 -10.29186 -10.28951
 Alpha  occ. eigenvalues --  -10.27014 -10.26157 -10.23841 -10.23701  -1.24049
 Alpha  occ. eigenvalues --   -1.20405  -1.16521  -1.14906  -1.13340  -1.12129
 Alpha  occ. eigenvalues --   -1.11541  -1.05789  -1.04600  -1.02293  -1.01307
 Alpha  occ. eigenvalues --   -0.97765  -0.91225  -0.90303  -0.88823  -0.86893
 Alpha  occ. eigenvalues --   -0.83488  -0.81471  -0.80689  -0.77942  -0.75543
 Alpha  occ. eigenvalues --   -0.74775  -0.73930  -0.73575  -0.72239  -0.70794
 Alpha  occ. eigenvalues --   -0.69800  -0.68846  -0.68308  -0.66649  -0.66178
 Alpha  occ. eigenvalues --   -0.64930  -0.63867  -0.62625  -0.62042  -0.61362
 Alpha  occ. eigenvalues --   -0.60444  -0.60402  -0.59508  -0.59115  -0.58808
 Alpha  occ. eigenvalues --   -0.57494  -0.56958  -0.56886  -0.55902  -0.54812
 Alpha  occ. eigenvalues --   -0.54234  -0.54014  -0.53574  -0.52989  -0.52596
 Alpha  occ. eigenvalues --   -0.51899  -0.51661  -0.50787  -0.50216  -0.49398
 Alpha  occ. eigenvalues --   -0.48991  -0.48617  -0.47934  -0.47530  -0.47425
 Alpha  occ. eigenvalues --   -0.46654  -0.45535  -0.45426  -0.45104  -0.44997
 Alpha  occ. eigenvalues --   -0.44869  -0.44532  -0.44311  -0.43235  -0.42876
 Alpha  occ. eigenvalues --   -0.42033  -0.41646  -0.40197  -0.39945  -0.39598
 Alpha  occ. eigenvalues --   -0.39508  -0.37547  -0.35688  -0.35222  -0.34722
 Alpha  occ. eigenvalues --   -0.33717  -0.31834
 Alpha virt. eigenvalues --   -0.12476  -0.11872  -0.08964  -0.08010  -0.07766
 Alpha virt. eigenvalues --   -0.06356  -0.04602  -0.04262  -0.02766  -0.01805
 Alpha virt. eigenvalues --   -0.01556  -0.00926  -0.00332  -0.00007   0.01171
 Alpha virt. eigenvalues --    0.01458   0.02115   0.02627   0.03236   0.03461
 Alpha virt. eigenvalues --    0.04289   0.05265   0.05735   0.05976   0.06374
 Alpha virt. eigenvalues --    0.06620   0.07074   0.07827   0.08257   0.08779
 Alpha virt. eigenvalues --    0.08997   0.09219   0.09577   0.10070   0.10947
 Alpha virt. eigenvalues --    0.11102   0.11392   0.11621   0.12118   0.12464
 Alpha virt. eigenvalues --    0.12760   0.13496   0.13853   0.14193   0.14246
 Alpha virt. eigenvalues --    0.14920   0.15730   0.16173   0.16714   0.16981
 Alpha virt. eigenvalues --    0.17564   0.18347   0.19009   0.20023   0.20411
 Alpha virt. eigenvalues --    0.21650   0.22186   0.23172   0.24910   0.26368
 Alpha virt. eigenvalues --    0.27009   0.28874   0.29352   0.30792   0.32940
 Alpha virt. eigenvalues --    0.34175   0.36686   0.38428   0.39516   0.40622
 Alpha virt. eigenvalues --    0.40752   0.42032   0.42564   0.42835   0.43370
 Alpha virt. eigenvalues --    0.44336   0.44853   0.45206   0.45225   0.45794
 Alpha virt. eigenvalues --    0.46120   0.46565   0.46769   0.47292   0.47804
 Alpha virt. eigenvalues --    0.49279   0.50160   0.50445   0.51068   0.51341
 Alpha virt. eigenvalues --    0.51919   0.52618   0.53181   0.53516   0.54899
 Alpha virt. eigenvalues --    0.55291   0.55418   0.56238   0.57119   0.57209
 Alpha virt. eigenvalues --    0.57534   0.58123   0.58714   0.59362   0.59642
 Alpha virt. eigenvalues --    0.61702   0.61882   0.63157   0.63429   0.63672
 Alpha virt. eigenvalues --    0.64669   0.65002   0.65051   0.66364   0.66633
 Alpha virt. eigenvalues --    0.67842   0.68140   0.69257   0.69359   0.69896
 Alpha virt. eigenvalues --    0.70491   0.71238   0.71997   0.72307   0.73168
 Alpha virt. eigenvalues --    0.73592   0.73922   0.74534   0.75446   0.75730
 Alpha virt. eigenvalues --    0.76309   0.76704   0.77154   0.77473   0.77912
 Alpha virt. eigenvalues --    0.79107   0.79362   0.79775   0.80249   0.80704
 Alpha virt. eigenvalues --    0.80854   0.81100   0.81536   0.81839   0.82521
 Alpha virt. eigenvalues --    0.83050   0.83966   0.84258   0.84561   0.84599
 Alpha virt. eigenvalues --    0.85337   0.85626   0.86120   0.86563   0.86976
 Alpha virt. eigenvalues --    0.87071   0.87951   0.88519   0.88993   0.90037
 Alpha virt. eigenvalues --    0.90670   0.91811   0.91947   0.92174   0.92490
 Alpha virt. eigenvalues --    0.93827   0.94561   0.95254   0.95748   0.96901
 Alpha virt. eigenvalues --    0.96951   0.97761   0.98949   0.99728   0.99972
 Alpha virt. eigenvalues --    1.01063   1.01521   1.02861   1.04525   1.05392
 Alpha virt. eigenvalues --    1.07206   1.08340   1.08649   1.11186   1.12767
 Alpha virt. eigenvalues --    1.13203   1.13492   1.14443   1.15919   1.16266
 Alpha virt. eigenvalues --    1.16956   1.19254   1.20928   1.22457   1.24082
 Alpha virt. eigenvalues --    1.25209   1.25951   1.26738   1.28432   1.29027
 Alpha virt. eigenvalues --    1.29602   1.31446   1.32572   1.34670   1.35521
 Alpha virt. eigenvalues --    1.35812   1.36732   1.38722   1.39702   1.40570
 Alpha virt. eigenvalues --    1.41741   1.42702   1.42989   1.43924   1.45319
 Alpha virt. eigenvalues --    1.47125   1.49251   1.50908   1.51503   1.52065
 Alpha virt. eigenvalues --    1.53544   1.54282   1.55262   1.55786   1.56231
 Alpha virt. eigenvalues --    1.58278   1.58919   1.59569   1.59611   1.60151
 Alpha virt. eigenvalues --    1.61574   1.62209   1.62814   1.63210   1.65073
 Alpha virt. eigenvalues --    1.65630   1.66928   1.67019   1.68572   1.69757
 Alpha virt. eigenvalues --    1.70161   1.70379   1.70848   1.71556   1.72390
 Alpha virt. eigenvalues --    1.73043   1.74482   1.75055   1.75717   1.77204
 Alpha virt. eigenvalues --    1.78145   1.78737   1.78802   1.79307   1.80100
 Alpha virt. eigenvalues --    1.80758   1.81632   1.81976   1.82665   1.83472
 Alpha virt. eigenvalues --    1.83864   1.85027   1.86317   1.87292   1.88061
 Alpha virt. eigenvalues --    1.88369   1.89315   1.89797   1.90109   1.91400
 Alpha virt. eigenvalues --    1.92109   1.93002   1.93456   1.93877   1.95085
 Alpha virt. eigenvalues --    1.95422   1.96512   1.97688   1.98663   1.99460
 Alpha virt. eigenvalues --    2.00109   2.01180   2.02834   2.03606   2.04280
 Alpha virt. eigenvalues --    2.04694   2.07463   2.08119   2.08484   2.09244
 Alpha virt. eigenvalues --    2.11452   2.11930   2.13728   2.14161   2.15410
 Alpha virt. eigenvalues --    2.16492   2.17692   2.19072   2.20090   2.21271
 Alpha virt. eigenvalues --    2.21973   2.23140   2.23438   2.24304   2.25707
 Alpha virt. eigenvalues --    2.27457   2.29305   2.29400   2.30873   2.31696
 Alpha virt. eigenvalues --    2.32742   2.32977   2.33618   2.35107   2.35794
 Alpha virt. eigenvalues --    2.37801   2.37915   2.40014   2.40755   2.42340
 Alpha virt. eigenvalues --    2.42588   2.43441   2.44814   2.45457   2.45979
 Alpha virt. eigenvalues --    2.47119   2.49448   2.50202   2.51137   2.51966
 Alpha virt. eigenvalues --    2.54573   2.55999   2.56428   2.57706   2.58139
 Alpha virt. eigenvalues --    2.59762   2.61132   2.62463   2.63606   2.65207
 Alpha virt. eigenvalues --    2.66658   2.68535   2.70206   2.72184   2.72308
 Alpha virt. eigenvalues --    2.75337   2.79238   2.79530   2.83924   2.85401
 Alpha virt. eigenvalues --    2.87034   2.89938   2.91345   2.93788   2.95214
 Alpha virt. eigenvalues --    2.96494   2.97874   3.02095   3.06797   3.09257
 Alpha virt. eigenvalues --    3.65916   3.71572   3.73731   3.74196   3.76138
 Alpha virt. eigenvalues --    3.90162   3.93350   3.97034   4.03523   4.04734
 Alpha virt. eigenvalues --    4.07242   4.07866   4.10285   4.16213   4.17306
 Alpha virt. eigenvalues --    4.22006   4.22395   4.25353   4.26664   4.29805
 Alpha virt. eigenvalues --    4.31603   4.33144   4.37532   4.42127   4.45968
 Alpha virt. eigenvalues --    4.48887   4.57552   4.59843   4.62411
          Condensed to atoms (all electrons):
 Mulliken charges:
               1
     1  N   -0.707131
     2  H    0.318335
     3  H    0.306256
     4  C   -0.069347
     5  H    0.143423
     6  C    0.651326
     7  C   -0.295540
     8  H    0.188971
     9  H    0.141947
    10  O   -0.548819
    11  C   -0.368725
    12  H    0.204348
    13  H    0.190902
    14  C    0.610289
    15  O   -0.512950
    16  O   -0.523745
    17  N   -0.576872
    18  H    0.338047
    19  C   -0.065946
    20  H    0.180580
    21  C    0.636965
    22  C   -0.292247
    23  H    0.152951
    24  H    0.150262
    25  O   -0.552507
    26  C   -0.068934
    27  H    0.134101
    28  C   -0.445287
    29  H    0.148540
    30  H    0.157866
    31  H    0.144725
    32  C   -0.457246
    33  H    0.143045
    34  H    0.154846
    35  H    0.161023
    36  N   -0.605505
    37  H    0.354282
    38  C   -0.025904
    39  H    0.210619
    40  C    0.577604
    41  C   -0.299162
    42  H    0.146103
    43  H    0.155809
    44  O   -0.449642
    45  C   -0.280141
    46  H    0.189293
    47  H    0.201378
    48  C   -0.189938
    49  H    0.161219
    50  H    0.204156
    51  N   -0.614954
    52  H    0.417586
    53  N   -0.756917
    54  H    0.380479
    55  H    0.382094
    56  N   -0.773356
    57  H    0.369567
    58  H    0.395515
    59  C    0.790744
    60  O   -0.567223
    61  H    0.427969
    62  H    0.424873
 Sum of Mulliken charges =   1.00000
 Mulliken charges with hydrogens summed into heavy atoms:
               1
     1  N   -0.082540
     4  C    0.074076
     6  C    0.651326
     7  C    0.035379
    10  O   -0.548819
    11  C    0.026525
    14  C    0.610289
    15  O   -0.512950
    16  O   -0.098872
    17  N   -0.238825
    19  C    0.114634
    21  C    0.636965
    22  C    0.010965
    25  O   -0.552507
    26  C    0.065167
    28  C    0.005845
    32  C    0.001668
    36  N   -0.251223
    38  C    0.184715
    40  C    0.577604
    41  C    0.002750
    44  O   -0.449642
    45  C    0.110530
    48  C    0.175437
    51  N   -0.197368
    53  N    0.005656
    56  N   -0.008274
    59  C    0.790744
    60  O   -0.139254
 Electronic spatial extent (au):  <R**2>=          17545.5378
 Charge=              1.0000 electrons
 Dipole moment (field-independent basis, Debye):
    X=             20.3299    Y=              8.3989    Z=            -12.4109  Tot=             25.2563
 Quadrupole moment (field-independent basis, Debye-Ang):
   XX=            -54.3444   YY=           -121.7602   ZZ=           -100.5290
   XY=             58.4311   XZ=            -65.2843   YZ=            -10.5292
 Traceless Quadrupole moment (field-independent basis, Debye-Ang):
   XX=             37.8668   YY=            -29.5490   ZZ=             -8.3178
   XY=             58.4311   XZ=            -65.2843   YZ=            -10.5292
 Octapole moment (field-independent basis, Debye-Ang**2):
  XXX=            -18.6319  YYY=           -238.1433  ZZZ=            239.8860  XYY=            -11.0467
  XXY=            173.1073  XXZ=           -145.7106  XZZ=             54.9373  YZZ=           -112.3819
  YYZ=            107.0422  XYZ=            -62.8704
 Hexadecapole moment (field-independent basis, Debye-Ang**3):
 XXXX=          -4128.9312 YYYY=          -3442.1413 ZZZZ=          -7101.2393 XXXY=           -180.3241
 XXXZ=           -155.5600 YYYX=          -1088.2682 YYYZ=            -77.2997 ZZZX=           1116.7521
 ZZZY=            309.7926 XXYY=           -840.6695 XXZZ=          -1266.2275 YYZZ=          -1919.2794
 XXYZ=           -400.4077 YYXZ=            374.8565 ZZXY=           -426.3154
 N-N= 3.097699520050D+03 E-N=-9.546744215330D+03  KE= 1.434098466598D+03
 Unable to Open any file for archive entry.
 1\1\GINC-AMR-168\SP\RB3LYP\6-31G(d)\C17H33N6O6(1+)\KENGMITH\01-Jun-202
 2\0\\# B3LYP/6-31G* empiricaldispersion=gd3 guess=read geom=check nosy
 mm integral(ultrafinegrid)\\Candidate Structure: Conf:433 Charge calc 
 in gas phase\\1,1\N,0,-1.21009861,-0.1402559769,-4.2308156199\H,0,-1.1
 713999043,0.8755796757,-4.2838594483\H,0,-1.0063220859,-0.5295204768,-
 5.1469709766\C,0,-0.2887111401,-0.6105206721,-3.2085514165\H,0,-0.4536
 112681,-1.6871331718,-3.0666964232\C,0,-0.5973694804,0.1544284556,-1.9
 170123715\C,0,1.2251066818,-0.3609974063,-3.4679528497\H,0,1.795403201
 2,-0.6360871563,-2.5715357436\H,0,1.3488429666,0.7184471493,-3.6134915
 543\O,0,-0.6046295595,1.3846358122,-1.9228835885\C,0,1.7623544268,-1.1
 13748152,-4.6820558558\H,0,1.6610616572,-2.1993114274,-4.5692851786\H,
 0,1.1973572362,-0.8534328479,-5.5889715137\C,0,3.2086290402,-0.8157193
 164,-4.989609724\O,0,3.8498940881,0.1418379827,-4.564141458\O,0,3.7434
 242347,-1.7143621005,-5.8174769679\N,0,-0.7702086037,-0.5818388662,-0.
 7831877817\H,0,-0.5331986713,-1.5644152942,-0.839056117\C,0,-0.5212921
 239,0.0459999151,0.5106334516\H,0,-1.1285165269,0.9530961637,0.5564721
 837\C,0,0.9709459641,0.4270802546,0.5552208967\C,0,-0.8721574551,-0.90
 27907986,1.6664150147\H,0,-0.6460629371,-0.3844960661,2.608334439\H,0,
 -0.1931136061,-1.7662728464,1.6212000564\O,0,1.8175113422,-0.262951781
 7,-0.0144220829\C,0,-2.334942342,-1.3875830554,1.6910188279\H,0,-2.529
 6925412,-1.9261025294,0.7527261628\C,0,-2.5309281468,-2.3692230897,2.8
 552591531\H,0,-2.3615448831,-1.8713682291,3.8185497067\H,0,-3.55093799
 83,-2.7682265556,2.8620766781\H,0,-1.8380806044,-3.2165508108,2.789605
 6479\C,0,-3.3296268196,-0.2222612779,1.7815225051\H,0,-3.1341804961,0.
 3903340396,2.6716630464\H,0,-3.2854219444,0.4283608148,0.9011936036\H,
 0,-4.3558498584,-0.5972352873,1.8572499453\N,0,1.2851273959,1.57088704
 17,1.2163470801\H,0,0.5817292644,2.0954745609,1.721576151\C,0,2.645605
 6737,2.0719267317,1.2363040112\H,0,3.3056450454,1.2046055202,1.1529529
 113\C,0,2.8939285497,2.7680158252,2.563886663\C,0,2.9692033441,3.04683
 79194,0.0551638118\H,0,4.050112826,2.9862288334,-0.1212829842\H,0,2.75
 16711707,4.0820939894,0.3509302463\O,0,2.031232736,3.0684784972,3.3569
 385533\C,0,2.1670067541,2.705704111,-1.2074334574\H,0,2.168194057,1.62
 60050474,-1.3666142852\H,0,1.1183404627,2.97732569,-1.0692127015\C,0,2
 .6725769947,3.3579699774,-2.4958260707\H,0,2.9796276012,4.4006806071,-
 2.3596310466\H,0,1.8715925072,3.3659304848,-3.240988517\N,0,3.77812496
 93,2.5914804949,-3.0928112431\H,0,3.5240966083,1.6980982516,-3.5226787
 907\N,0,5.5919381775,3.8850054927,-2.3707351929\H,0,6.5016777128,4.254
 43004,-2.6074488041\H,0,4.9974763843,4.4698430908,-1.8033945378\N,0,5.
 9138061097,2.0877635718,-3.799950479\H,0,6.8898003048,2.0411371031,-3.
 5429555575\H,0,5.5218546401,1.2812699768,-4.2800370809\C,0,5.075573973
 2,2.858073726,-3.0756478978\O,0,4.2020253834,3.0578738067,2.7209292859
 \H,0,4.2927706013,3.5250425581,3.5739967498\H,0,4.6660350404,-1.460148
 5696,-6.0104491947\\Version=ES64L-G16RevC.01\HF=-1447.5017786\RMSD=3.1
 04e-09\Dipole=5.0742263,1.6991489,-2.8125794\Quadrupole=28.1530261,-21
 .9689547,-6.1840715,43.4420741,-48.5372949,-7.8282319\PG=C01 [X(C17H33
 N6O6)]\\@
 The archive entry for this job was punched.


 LIFE IS A CONTINUAL STRUGGLE AGAINST THE TENDENCY TO PRODUCE ENTROPY.
 Job cpu time:       0 days  0 hours  0 minutes 57.1 seconds.
 Elapsed time:       0 days  0 hours  0 minutes 14.6 seconds.
 File lengths (MBytes):  RWF=    248 Int=      0 D2E=      0 Chk=     32 Scr=     16
 Normal termination of Gaussian 16 at Wed Jun  1 02:02:55 2022.
