 Entering Gaussian System, Link 0=/opt/software/Gaussian/g16-AVX2-C.01/g16/g16
 Input=charge-conf-472.com
 Output=charge-conf-472.log
 Initial command:
 /opt/software/Gaussian/g16-AVX2-C.01/g16/l1.exe "/mnt/gs18/scratch/users/kengmith/Gau-58981.inp" -scrdir="/mnt/gs18/scratch/users/kengmith/"
 Entering Link 1 = /opt/software/Gaussian/g16-AVX2-C.01/g16/l1.exe PID=     58991.
  
 Copyright (c) 1988-2019, Gaussian, Inc.  All Rights Reserved.
  
 This is part of the Gaussian(R) 16 program.  It is based on
 the Gaussian(R) 09 system (copyright 2009, Gaussian, Inc.),
 the Gaussian(R) 03 system (copyright 2003, Gaussian, Inc.),
 the Gaussian(R) 98 system (copyright 1998, Gaussian, Inc.),
 the Gaussian(R) 94 system (copyright 1995, Gaussian, Inc.),
 the Gaussian 92(TM) system (copyright 1992, Gaussian, Inc.),
 the Gaussian 90(TM) system (copyright 1990, Gaussian, Inc.),
 the Gaussian 88(TM) system (copyright 1988, Gaussian, Inc.),
 the Gaussian 86(TM) system (copyright 1986, Carnegie Mellon
 University), and the Gaussian 82(TM) system (copyright 1983,
 Carnegie Mellon University). Gaussian is a federally registered
 trademark of Gaussian, Inc.
  
 This software contains proprietary and confidential information,
 including trade secrets, belonging to Gaussian, Inc.
  
 This software is provided under written license and may be
 used, copied, transmitted, or stored only in accord with that
 written license.
  
 The following legend is applicable only to US Government
 contracts under FAR:
  
                    RESTRICTED RIGHTS LEGEND
  
 Use, reproduction and disclosure by the US Government is
 subject to restrictions as set forth in subparagraphs (a)
 and (c) of the Commercial Computer Software - Restricted
 Rights clause in FAR 52.227-19.
  
 Gaussian, Inc.
 340 Quinnipiac St., Bldg. 40, Wallingford CT 06492
  
  
 ---------------------------------------------------------------
 Warning -- This program may not be used in any manner that
 competes with the business of Gaussian, Inc. or will provide
 assistance to any competitor of Gaussian, Inc.  The licensee
 of this program is prohibited from giving any competitor of
 Gaussian, Inc. access to this program.  By using this program,
 the user acknowledges that Gaussian, Inc. is engaged in the
 business of creating and licensing software in the field of
 computational chemistry and represents and warrants to the
 licensee that it is not a competitor of Gaussian, Inc. and that
 it will not use this program in any manner prohibited above.
 ---------------------------------------------------------------
  

 Cite this work as:
 Gaussian 16, Revision C.01,
 M. J. Frisch, G. W. Trucks, H. B. Schlegel, G. E. Scuseria, 
 M. A. Robb, J. R. Cheeseman, G. Scalmani, V. Barone, 
 G. A. Petersson, H. Nakatsuji, X. Li, M. Caricato, A. V. Marenich, 
 J. Bloino, B. G. Janesko, R. Gomperts, B. Mennucci, H. P. Hratchian, 
 J. V. Ortiz, A. F. Izmaylov, J. L. Sonnenberg, D. Williams-Young, 
 F. Ding, F. Lipparini, F. Egidi, J. Goings, B. Peng, A. Petrone, 
 T. Henderson, D. Ranasinghe, V. G. Zakrzewski, J. Gao, N. Rega, 
 G. Zheng, W. Liang, M. Hada, M. Ehara, K. Toyota, R. Fukuda, 
 J. Hasegawa, M. Ishida, T. Nakajima, Y. Honda, O. Kitao, H. Nakai, 
 T. Vreven, K. Throssell, J. A. Montgomery, Jr., J. E. Peralta, 
 F. Ogliaro, M. J. Bearpark, J. J. Heyd, E. N. Brothers, K. N. Kudin, 
 V. N. Staroverov, T. A. Keith, R. Kobayashi, J. Normand, 
 K. Raghavachari, A. P. Rendell, J. C. Burant, S. S. Iyengar, 
 J. Tomasi, M. Cossi, J. M. Millam, M. Klene, C. Adamo, R. Cammi, 
 J. W. Ochterski, R. L. Martin, K. Morokuma, O. Farkas, 
 J. B. Foresman, and D. J. Fox, Gaussian, Inc., Wallingford CT, 2019.
 
 ******************************************
 Gaussian 16:  ES64L-G16RevC.01  3-Jul-2019
                 1-Jun-2022 
 ******************************************
 %mem=8gb
 %nproc=4
 Will use up to    4 processors via shared memory.
 %chk=conf-472.chk
 ----------------------------------------------------------------------
 # B3LYP/6-31G* empiricaldispersion=gd3 guess=read geom=check nosymm in
 tegral(ultrafinegrid)
 ----------------------------------------------------------------------
 1/29=2,38=1,172=1/1;
 2/12=2,15=1,40=1/2;
 3/5=1,6=6,7=1,11=2,14=-4,25=1,30=1,74=-5,75=-5,116=-2,124=31/1,2,3;
 4/5=1/1;
 5/5=2,38=6/2;
 6/7=2,8=2,9=2,10=2,28=1/1;
 99/5=1,9=1/99;
 ------------------------------------------------------
 Candidate Structure: Conf:472 Charge calc in gas phase
 ------------------------------------------------------
 Structure from the checkpoint file:  "conf-472.chk"
 Charge =  1 Multiplicity = 1
 Redundant internal coordinates found in file.  (old form).
 N,0,-1.6498635145,1.1025875305,-4.3333493787
 H,0,-2.6355076133,0.9791840313,-4.1098557507
 H,0,-1.4264797639,2.0619973131,-4.0647380027
 C,0,-0.8386576963,0.2073788413,-3.5235255688
 H,0,-1.3108559698,-0.7841520108,-3.5164186005
 C,0,-0.6460495236,0.7045563237,-2.0756031136
 C,0,0.5781362917,0.0750654128,-4.1296959398
 H,0,1.1789827635,-0.592875841,-3.5038515713
 H,0,1.0644729647,1.0588544473,-4.0871685965
 O,0,-0.7685974053,1.8979579871,-1.7951531601
 C,0,0.5586278577,-0.4234265153,-5.5735354233
 H,0,0.0858796543,-1.4141506671,-5.6419841432
 H,0,-0.0457042074,0.2359441095,-6.2021296977
 C,0,1.9410501319,-0.5548791001,-6.1591358371
 O,0,2.9822585371,-0.6452932896,-5.5119904597
 O,0,1.9336364421,-0.5817900112,-7.4914018646
 N,0,-0.2361958433,-0.2249743718,-1.1714025953
 H,0,-0.1042241396,-1.1812539181,-1.4729608794
 C,0,0.242743413,0.1310033255,0.170052066
 H,0,-0.4396835471,0.8906383066,0.5598762396
 C,0,1.6443601568,0.7549459164,0.0023908139
 C,0,0.2716386206,-1.0885432528,1.0911664483
 H,0,0.6352546825,-0.7525055515,2.0707138189
 H,0,1.0297708241,-1.7883628106,0.7165604085
 O,0,2.6741225013,0.0677366809,0.0488200878
 C,0,-1.079916584,-1.8073405211,1.2691395338
 H,0,-1.4085401317,-2.1784054479,0.2862951435
 C,0,-0.8961512152,-3.0222176951,2.1900978073
 H,0,-0.5893248971,-2.7058210743,3.1948200008
 H,0,-1.8314655913,-3.5832387078,2.2890843102
 H,0,-0.1304340904,-3.7071678959,1.8067660298
 C,0,-2.1722351359,-0.8719035724,1.8066770652
 H,0,-1.8669117344,-0.4244587636,2.7612436411
 H,0,-2.4032759334,-0.0588933814,1.1090623003
 H,0,-3.1012235798,-1.4245757478,1.9823148817
 N,0,1.6279753497,2.0836460897,-0.2478169826
 H,0,0.7227503531,2.5020370654,-0.4463932698
 C,0,2.8237934772,2.8161864875,-0.6180317818
 H,0,3.6462625645,2.3726612646,-0.0443065718
 C,0,2.7652259069,4.2864319038,-0.2110040303
 C,0,3.1532147931,2.6887445575,-2.1266700575
 H,0,2.4939036291,3.3468059932,-2.7035964356
 H,0,2.8837969472,1.6674617393,-2.4069635012
 O,0,3.5600342414,5.1044036563,-0.615670074
 C,0,4.6322707718,2.9765120138,-2.4510781675
 H,0,4.7681152611,4.0335834655,-2.692250193
 H,0,5.2390278057,2.8285348555,-1.5512874874
 C,0,5.2165680272,2.1636081289,-3.6242069836
 H,0,6.3061791592,2.2793221876,-3.6443385295
 H,0,4.8398468304,2.5626133214,-4.5702387038
 N,0,4.8698456972,0.7248468153,-3.6645108837
 H,0,4.5331897243,0.3746160113,-4.5565089487
 N,0,5.0969012786,0.1457370793,-1.3886971085
 H,0,4.4317045812,0.0152603714,-0.6176699449
 H,0,5.780710137,0.8776097078,-1.2703613726
 N,0,3.8144968314,-1.1367976488,-2.807109517
 H,0,3.7572100399,-1.8460077029,-2.0910883394
 H,0,3.3271263055,-1.2496701238,-3.6938025708
 C,0,4.6040482153,-0.0710170504,-2.6224726767
 O,0,1.7541939551,4.5657617403,0.6306613838
 H,0,1.8031778181,5.5205623888,0.8332878749
 H,0,2.8489582847,-0.7156068674,-7.8062851407
 Recover connectivity data from disk.
                           ----------------------------
                           !    Current Parameters    !
                           ! (Angstroms and Degrees)  !
 --------------------------                            --------------------------
 ! Name  Definition              Value                                          !
 --------------------------------------------------------------------------------
 ! R1    R(1,2)                  1.0182                                         !
 ! R2    R(1,3)                  1.021                                          !
 ! R3    R(1,4)                  1.4544                                         !
 ! R4    R(4,5)                  1.0983                                         !
 ! R5    R(4,6)                  1.543                                          !
 ! R6    R(4,7)                  1.5467                                         !
 ! R7    R(6,10)                 1.232                                          !
 ! R8    R(6,17)                 1.36                                           !
 ! R9    R(7,8)                  1.0949                                         !
 ! R10   R(7,9)                  1.0983                                         !
 ! R11   R(7,11)                 1.5276                                         !
 ! R12   R(11,12)                1.0999                                         !
 ! R13   R(11,13)                1.0932                                         !
 ! R14   R(11,14)                1.5071                                         !
 ! R15   R(14,15)                1.2293                                         !
 ! R16   R(14,16)                1.3326                                         !
 ! R17   R(16,62)                0.9772                                         !
 ! R18   R(17,18)                1.0113                                         !
 ! R19   R(17,19)                1.4682                                         !
 ! R20   R(19,20)                1.093                                          !
 ! R21   R(19,21)                1.5434                                         !
 ! R22   R(19,22)                1.5286                                         !
 ! R23   R(21,25)                1.2389                                         !
 ! R24   R(21,36)                1.3522                                         !
 ! R25   R(22,23)                1.0976                                         !
 ! R26   R(22,24)                1.0977                                         !
 ! R27   R(22,26)                1.5411                                         !
 ! R28   R(26,27)                1.1008                                         !
 ! R29   R(26,28)                1.5355                                         !
 ! R30   R(26,32)                1.5353                                         !
 ! R31   R(28,29)                1.0971                                         !
 ! R32   R(28,30)                1.0952                                         !
 ! R33   R(28,31)                1.0966                                         !
 ! R34   R(32,33)                1.0976                                         !
 ! R35   R(32,34)                1.0959                                         !
 ! R36   R(32,35)                1.0951                                         !
 ! R37   R(36,37)                1.0168                                         !
 ! R38   R(36,38)                1.4504                                         !
 ! R39   R(38,39)                1.0965                                         !
 ! R40   R(38,40)                1.5267                                         !
 ! R41   R(38,41)                1.5494                                         !
 ! R42   R(40,44)                1.2102                                         !
 ! R43   R(40,60)                1.3448                                         !
 ! R44   R(41,42)                1.0957                                         !
 ! R45   R(41,43)                1.0928                                         !
 ! R46   R(41,45)                1.5413                                         !
 ! R47   R(45,46)                1.0927                                         !
 ! R48   R(45,47)                1.0953                                         !
 ! R49   R(45,48)                1.5422                                         !
 ! R50   R(48,49)                1.0959                                         !
 ! R51   R(48,50)                1.0937                                         !
 ! R52   R(48,51)                1.4805                                         !
 ! R53   R(51,52)                1.0157                                         !
 ! R54   R(51,59)                1.3379                                         !
 ! R55   R(53,54)                1.0266                                         !
 ! R56   R(53,55)                1.0086                                         !
 ! R57   R(53,59)                1.3461                                         !
 ! R58   R(56,57)                1.0094                                         !
 ! R59   R(56,58)                1.0181                                         !
 ! R60   R(56,59)                1.3392                                         !
 ! R61   R(60,61)                0.9773                                         !
 ! A1    A(2,1,3)              105.5412                                         !
 ! A2    A(2,1,4)              110.067                                          !
 ! A3    A(3,1,4)              108.0505                                         !
 ! A4    A(1,4,5)              108.6326                                         !
 ! A5    A(1,4,6)              113.1913                                         !
 ! A6    A(1,4,7)              110.2032                                         !
 ! A7    A(5,4,6)              109.786                                          !
 ! A8    A(5,4,7)              108.6114                                         !
 ! A9    A(6,4,7)              106.3193                                         !
 ! A10   A(4,6,10)             120.8849                                         !
 ! A11   A(4,6,17)             116.186                                          !
 ! A12   A(10,6,17)            122.7305                                         !
 ! A13   A(4,7,8)              109.32                                           !
 ! A14   A(4,7,9)              108.2901                                         !
 ! A15   A(4,7,11)             112.7458                                         !
 ! A16   A(8,7,9)              106.3388                                         !
 ! A17   A(8,7,11)             110.3766                                         !
 ! A18   A(9,7,11)             109.5462                                         !
 ! A19   A(7,11,12)            110.9929                                         !
 ! A20   A(7,11,13)            110.7143                                         !
 ! A21   A(7,11,14)            112.5823                                         !
 ! A22   A(12,11,13)           105.6586                                         !
 ! A23   A(12,11,14)           106.949                                          !
 ! A24   A(13,11,14)           109.6493                                         !
 ! A25   A(11,14,15)           125.367                                          !
 ! A26   A(11,14,16)           112.6523                                         !
 ! A27   A(15,14,16)           121.9758                                         !
 ! A28   A(14,16,62)           108.6461                                         !
 ! A29   A(6,17,18)            119.1664                                         !
 ! A30   A(6,17,19)            122.6873                                         !
 ! A31   A(18,17,19)           117.3306                                         !
 ! A32   A(17,19,20)           106.8996                                         !
 ! A33   A(17,19,21)           107.1584                                         !
 ! A34   A(17,19,22)           111.3029                                         !
 ! A35   A(20,19,21)           108.9526                                         !
 ! A36   A(20,19,22)           110.5708                                         !
 ! A37   A(21,19,22)           111.7673                                         !
 ! A38   A(19,21,25)           121.7723                                         !
 ! A39   A(19,21,36)           113.9765                                         !
 ! A40   A(25,21,36)           124.2003                                         !
 ! A41   A(19,22,23)           107.4451                                         !
 ! A42   A(19,22,24)           108.4252                                         !
 ! A43   A(19,22,26)           115.1587                                         !
 ! A44   A(23,22,24)           105.7215                                         !
 ! A45   A(23,22,26)           109.2856                                         !
 ! A46   A(24,22,26)           110.3512                                         !
 ! A47   A(22,26,27)           108.4174                                         !
 ! A48   A(22,26,28)           109.4706                                         !
 ! A49   A(22,26,32)           112.3467                                         !
 ! A50   A(27,26,28)           107.7306                                         !
 ! A51   A(27,26,32)           107.7943                                         !
 ! A52   A(28,26,32)           110.9289                                         !
 ! A53   A(26,28,29)           110.7659                                         !
 ! A54   A(26,28,30)           110.9347                                         !
 ! A55   A(26,28,31)           111.5988                                         !
 ! A56   A(29,28,30)           107.6862                                         !
 ! A57   A(29,28,31)           107.7571                                         !
 ! A58   A(30,28,31)           107.938                                          !
 ! A59   A(26,32,33)           110.792                                          !
 ! A60   A(26,32,34)           112.2793                                         !
 ! A61   A(26,32,35)           110.6219                                         !
 ! A62   A(33,32,34)           108.0496                                         !
 ! A63   A(33,32,35)           107.5918                                         !
 ! A64   A(34,32,35)           107.316                                          !
 ! A65   A(21,36,37)           116.8246                                         !
 ! A66   A(21,36,38)           122.2452                                         !
 ! A67   A(37,36,38)           118.4457                                         !
 ! A68   A(36,38,39)           106.2946                                         !
 ! A69   A(36,38,40)           112.7501                                         !
 ! A70   A(36,38,41)           112.4748                                         !
 ! A71   A(39,38,40)           106.1895                                         !
 ! A72   A(39,38,41)           108.4641                                         !
 ! A73   A(40,38,41)           110.3014                                         !
 ! A74   A(38,40,44)           122.451                                          !
 ! A75   A(38,40,60)           113.3112                                         !
 ! A76   A(44,40,60)           124.2378                                         !
 ! A77   A(38,41,42)           109.5932                                         !
 ! A78   A(38,41,43)           105.914                                          !
 ! A79   A(38,41,45)           113.1784                                         !
 ! A80   A(42,41,43)           106.1339                                         !
 ! A81   A(42,41,45)           110.7605                                         !
 ! A82   A(43,41,45)           110.9213                                         !
 ! A83   A(41,45,46)           110.2651                                         !
 ! A84   A(41,45,47)           109.4789                                         !
 ! A85   A(41,45,48)           115.1668                                         !
 ! A86   A(46,45,47)           104.072                                          !
 ! A87   A(46,45,48)           107.1527                                         !
 ! A88   A(47,45,48)           110.1089                                         !
 ! A89   A(45,48,49)           109.5728                                         !
 ! A90   A(45,48,50)           109.5838                                         !
 ! A91   A(45,48,51)           116.3734                                         !
 ! A92   A(49,48,50)           106.742                                          !
 ! A93   A(49,48,51)           109.5697                                         !
 ! A94   A(50,48,51)           104.4971                                         !
 ! A95   A(48,51,52)           115.8887                                         !
 ! A96   A(48,51,59)           127.1158                                         !
 ! A97   A(52,51,59)           114.3962                                         !
 ! A98   A(54,53,55)           116.321                                          !
 ! A99   A(54,53,59)           115.5083                                         !
 ! A100  A(55,53,59)           118.2037                                         !
 ! A101  A(57,56,58)           120.8456                                         !
 ! A102  A(57,56,59)           119.6576                                         !
 ! A103  A(58,56,59)           119.3772                                         !
 ! A104  A(51,59,53)           123.048                                          !
 ! A105  A(51,59,56)           118.8932                                         !
 ! A106  A(53,59,56)           118.0586                                         !
 ! A107  A(40,60,61)           107.1577                                         !
 ! D1    D(2,1,4,5)             44.3296                                         !
 ! D2    D(2,1,4,6)            -77.8847                                         !
 ! D3    D(2,1,4,7)            163.2083                                         !
 ! D4    D(3,1,4,5)            159.1049                                         !
 ! D5    D(3,1,4,6)             36.8906                                         !
 ! D6    D(3,1,4,7)            -82.0164                                         !
 ! D7    D(1,4,6,10)           -22.8216                                         !
 ! D8    D(1,4,6,17)           162.1628                                         !
 ! D9    D(5,4,6,10)          -144.3899                                         !
 ! D10   D(5,4,6,17)            40.5944                                         !
 ! D11   D(7,4,6,10)            98.3043                                         !
 ! D12   D(7,4,6,17)           -76.7114                                         !
 ! D13   D(1,4,7,8)            179.4163                                         !
 ! D14   D(1,4,7,9)             63.9586                                         !
 ! D15   D(1,4,7,11)           -57.4177                                         !
 ! D16   D(5,4,7,8)            -61.6919                                         !
 ! D17   D(5,4,7,9)           -177.1497                                         !
 ! D18   D(5,4,7,11)            61.474                                          !
 ! D19   D(6,4,7,8)             56.3931                                         !
 ! D20   D(6,4,7,9)            -59.0647                                         !
 ! D21   D(6,4,7,11)           179.559                                          !
 ! D22   D(4,6,17,18)           -1.6735                                         !
 ! D23   D(4,6,17,19)          167.7012                                         !
 ! D24   D(10,6,17,18)        -176.5883                                         !
 ! D25   D(10,6,17,19)          -7.2136                                         !
 ! D26   D(4,7,11,12)          -59.9781                                         !
 ! D27   D(4,7,11,13)           57.034                                          !
 ! D28   D(4,7,11,14)         -179.8301                                         !
 ! D29   D(8,7,11,12)           62.5977                                         !
 ! D30   D(8,7,11,13)          179.6097                                         !
 ! D31   D(8,7,11,14)          -57.2544                                         !
 ! D32   D(9,7,11,12)          179.3615                                         !
 ! D33   D(9,7,11,13)          -63.6264                                         !
 ! D34   D(9,7,11,14)           59.5095                                         !
 ! D35   D(7,11,14,15)          20.1908                                         !
 ! D36   D(7,11,14,16)        -160.6012                                         !
 ! D37   D(12,11,14,15)       -101.9747                                         !
 ! D38   D(12,11,14,16)         77.2333                                         !
 ! D39   D(13,11,14,15)        143.9196                                         !
 ! D40   D(13,11,14,16)        -36.8724                                         !
 ! D41   D(11,14,16,62)       -177.0223                                         !
 ! D42   D(15,14,16,62)          2.2163                                         !
 ! D43   D(6,17,19,20)          43.6135                                         !
 ! D44   D(6,17,19,21)         -73.07                                           !
 ! D45   D(6,17,19,22)         164.4523                                         !
 ! D46   D(18,17,19,20)       -146.8284                                         !
 ! D47   D(18,17,19,21)         96.4882                                         !
 ! D48   D(18,17,19,22)        -25.9896                                         !
 ! D49   D(17,19,21,25)        -91.0974                                         !
 ! D50   D(17,19,21,36)         86.411                                          !
 ! D51   D(20,19,21,25)        153.5808                                         !
 ! D52   D(20,19,21,36)        -28.9109                                         !
 ! D53   D(22,19,21,25)         31.0909                                         !
 ! D54   D(22,19,21,36)       -151.4007                                         !
 ! D55   D(17,19,22,23)       -179.9124                                         !
 ! D56   D(17,19,22,24)         66.2552                                         !
 ! D57   D(17,19,22,26)        -57.9014                                         !
 ! D58   D(20,19,22,23)        -61.2527                                         !
 ! D59   D(20,19,22,24)       -175.0851                                         !
 ! D60   D(20,19,22,26)         60.7583                                         !
 ! D61   D(21,19,22,23)         60.3076                                         !
 ! D62   D(21,19,22,24)        -53.5247                                         !
 ! D63   D(21,19,22,26)       -177.6813                                         !
 ! D64   D(19,21,36,37)         -9.4577                                         !
 ! D65   D(19,21,36,38)       -171.2797                                         !
 ! D66   D(25,21,36,37)        167.9811                                         !
 ! D67   D(25,21,36,38)          6.1591                                         !
 ! D68   D(19,22,26,27)         61.5546                                         !
 ! D69   D(19,22,26,28)        178.8241                                         !
 ! D70   D(19,22,26,32)        -57.467                                          !
 ! D71   D(23,22,26,27)       -177.4311                                         !
 ! D72   D(23,22,26,28)        -60.1615                                         !
 ! D73   D(23,22,26,32)         63.5474                                         !
 ! D74   D(24,22,26,27)        -61.5836                                         !
 ! D75   D(24,22,26,28)         55.6859                                         !
 ! D76   D(24,22,26,32)        179.3948                                         !
 ! D77   D(22,26,28,29)         63.5843                                         !
 ! D78   D(22,26,28,30)       -176.8821                                         !
 ! D79   D(22,26,28,31)        -56.4768                                         !
 ! D80   D(27,26,28,29)       -178.7153                                         !
 ! D81   D(27,26,28,30)        -59.1817                                         !
 ! D82   D(27,26,28,31)         61.2236                                         !
 ! D83   D(32,26,28,29)        -60.9545                                         !
 ! D84   D(32,26,28,30)         58.579                                          !
 ! D85   D(32,26,28,31)        178.9843                                         !
 ! D86   D(22,26,32,33)        -57.1809                                         !
 ! D87   D(22,26,32,34)         63.7317                                         !
 ! D88   D(22,26,32,35)       -176.4103                                         !
 ! D89   D(27,26,32,33)       -176.5669                                         !
 ! D90   D(27,26,32,34)        -55.6543                                         !
 ! D91   D(27,26,32,35)         64.2037                                         !
 ! D92   D(28,26,32,33)         65.7111                                         !
 ! D93   D(28,26,32,34)       -173.3763                                         !
 ! D94   D(28,26,32,35)        -53.5182                                         !
 ! D95   D(21,36,38,39)        -36.4392                                         !
 ! D96   D(21,36,38,40)       -152.3881                                         !
 ! D97   D(21,36,38,41)         82.1168                                         !
 ! D98   D(37,36,38,39)        162.0197                                         !
 ! D99   D(37,36,38,40)         46.0708                                         !
 ! D100  D(37,36,38,41)        -79.4242                                         !
 ! D101  D(36,38,40,44)       -167.83                                           !
 ! D102  D(36,38,40,60)         12.229                                          !
 ! D103  D(39,38,40,44)         76.1583                                         !
 ! D104  D(39,38,40,60)       -103.7827                                         !
 ! D105  D(41,38,40,44)        -41.1666                                         !
 ! D106  D(41,38,40,60)        138.8924                                         !
 ! D107  D(36,38,41,42)         77.6247                                         !
 ! D108  D(36,38,41,43)        -36.4675                                         !
 ! D109  D(36,38,41,45)       -158.2028                                         !
 ! D110  D(39,38,41,42)       -165.101                                          !
 ! D111  D(39,38,41,43)         80.8069                                         !
 ! D112  D(39,38,41,45)        -40.9284                                         !
 ! D113  D(40,38,41,42)        -49.1923                                         !
 ! D114  D(40,38,41,43)       -163.2844                                         !
 ! D115  D(40,38,41,45)         74.9803                                         !
 ! D116  D(38,40,60,61)        179.7697                                         !
 ! D117  D(44,40,60,61)         -0.1701                                         !
 ! D118  D(38,41,45,46)        -91.6901                                         !
 ! D119  D(38,41,45,47)         22.2332                                         !
 ! D120  D(38,41,45,48)        146.9219                                         !
 ! D121  D(42,41,45,46)         31.8429                                         !
 ! D122  D(42,41,45,47)        145.7663                                         !
 ! D123  D(42,41,45,48)        -89.5451                                         !
 ! D124  D(43,41,45,46)        149.4283                                         !
 ! D125  D(43,41,45,47)        -96.6483                                         !
 ! D126  D(43,41,45,48)         28.0403                                         !
 ! D127  D(41,45,48,49)       -168.3461                                         !
 ! D128  D(41,45,48,50)         74.8465                                         !
 ! D129  D(41,45,48,51)        -43.3804                                         !
 ! D130  D(46,45,48,49)         68.5934                                         !
 ! D131  D(46,45,48,50)        -48.214                                          !
 ! D132  D(46,45,48,51)       -166.441                                          !
 ! D133  D(47,45,48,49)        -43.9871                                         !
 ! D134  D(47,45,48,50)       -160.7945                                         !
 ! D135  D(47,45,48,51)         80.9786                                         !
 ! D136  D(45,48,51,52)        131.1375                                         !
 ! D137  D(45,48,51,59)        -29.428                                          !
 ! D138  D(49,48,51,52)       -103.8953                                         !
 ! D139  D(49,48,51,59)         95.5392                                         !
 ! D140  D(50,48,51,52)         10.1648                                         !
 ! D141  D(50,48,51,59)       -150.4008                                         !
 ! D142  D(48,51,59,53)        -26.8686                                         !
 ! D143  D(48,51,59,56)        153.2945                                         !
 ! D144  D(52,51,59,53)        172.3204                                         !
 ! D145  D(52,51,59,56)         -7.5165                                         !
 ! D146  D(54,53,59,51)        137.1291                                         !
 ! D147  D(54,53,59,56)        -43.0327                                         !
 ! D148  D(55,53,59,51)         -7.2969                                         !
 ! D149  D(55,53,59,56)        172.5413                                         !
 ! D150  D(57,56,59,51)        167.4423                                         !
 ! D151  D(57,56,59,53)        -12.4028                                         !
 ! D152  D(58,56,59,51)         -8.6162                                         !
 ! D153  D(58,56,59,53)        171.5387                                         !
 --------------------------------------------------------------------------------
 Symmetry turned off by external request.
 Stoichiometry    C17H33N6O6(1+)
 Framework group  C1[X(C17H33N6O6)]
 Deg. of freedom   180
 Full point group                 C1      NOp   1
                          Input orientation:                          
 ---------------------------------------------------------------------
 Center     Atomic      Atomic             Coordinates (Angstroms)
 Number     Number       Type             X           Y           Z
 ---------------------------------------------------------------------
      1          7           0       -1.649864    1.102588   -4.333349
      2          1           0       -2.635508    0.979184   -4.109856
      3          1           0       -1.426480    2.061997   -4.064738
      4          6           0       -0.838658    0.207379   -3.523526
      5          1           0       -1.310856   -0.784152   -3.516419
      6          6           0       -0.646050    0.704556   -2.075603
      7          6           0        0.578136    0.075065   -4.129696
      8          1           0        1.178983   -0.592876   -3.503852
      9          1           0        1.064473    1.058854   -4.087169
     10          8           0       -0.768597    1.897958   -1.795153
     11          6           0        0.558628   -0.423427   -5.573535
     12          1           0        0.085880   -1.414151   -5.641984
     13          1           0       -0.045704    0.235944   -6.202130
     14          6           0        1.941050   -0.554879   -6.159136
     15          8           0        2.982259   -0.645293   -5.511990
     16          8           0        1.933636   -0.581790   -7.491402
     17          7           0       -0.236196   -0.224974   -1.171403
     18          1           0       -0.104224   -1.181254   -1.472961
     19          6           0        0.242743    0.131003    0.170052
     20          1           0       -0.439684    0.890638    0.559876
     21          6           0        1.644360    0.754946    0.002391
     22          6           0        0.271639   -1.088543    1.091166
     23          1           0        0.635255   -0.752506    2.070714
     24          1           0        1.029771   -1.788363    0.716560
     25          8           0        2.674123    0.067737    0.048820
     26          6           0       -1.079917   -1.807341    1.269140
     27          1           0       -1.408540   -2.178405    0.286295
     28          6           0       -0.896151   -3.022218    2.190098
     29          1           0       -0.589325   -2.705821    3.194820
     30          1           0       -1.831466   -3.583239    2.289084
     31          1           0       -0.130434   -3.707168    1.806766
     32          6           0       -2.172235   -0.871904    1.806677
     33          1           0       -1.866912   -0.424459    2.761244
     34          1           0       -2.403276   -0.058893    1.109062
     35          1           0       -3.101224   -1.424576    1.982315
     36          7           0        1.627975    2.083646   -0.247817
     37          1           0        0.722750    2.502037   -0.446393
     38          6           0        2.823793    2.816186   -0.618032
     39          1           0        3.646263    2.372661   -0.044307
     40          6           0        2.765226    4.286432   -0.211004
     41          6           0        3.153215    2.688745   -2.126670
     42          1           0        2.493904    3.346806   -2.703596
     43          1           0        2.883797    1.667462   -2.406964
     44          8           0        3.560034    5.104404   -0.615670
     45          6           0        4.632271    2.976512   -2.451078
     46          1           0        4.768115    4.033583   -2.692250
     47          1           0        5.239028    2.828535   -1.551287
     48          6           0        5.216568    2.163608   -3.624207
     49          1           0        6.306179    2.279322   -3.644339
     50          1           0        4.839847    2.562613   -4.570239
     51          7           0        4.869846    0.724847   -3.664511
     52          1           0        4.533190    0.374616   -4.556509
     53          7           0        5.096901    0.145737   -1.388697
     54          1           0        4.431705    0.015260   -0.617670
     55          1           0        5.780710    0.877610   -1.270361
     56          7           0        3.814497   -1.136798   -2.807110
     57          1           0        3.757210   -1.846008   -2.091088
     58          1           0        3.327126   -1.249670   -3.693803
     59          6           0        4.604048   -0.071017   -2.622473
     60          8           0        1.754194    4.565762    0.630661
     61          1           0        1.803178    5.520562    0.833288
     62          1           0        2.848958   -0.715607   -7.806285
 ---------------------------------------------------------------------
 Rotational constants (GHZ):           0.1569259           0.1277785           0.0970356
 Standard basis: 6-31G(d) (6D, 7F)
   501 basis functions,   944 primitive gaussians,   501 cartesian basis functions
   112 alpha electrons      112 beta electrons
       nuclear repulsion energy      3183.7004966487 Hartrees.
 NAtoms=   62 NActive=   62 NUniq=   62 SFac= 1.00D+00 NAtFMM=   60 NAOKFM=T Big=T
 Integral buffers will be    131072 words long.
 Raffenetti 2 integral format.
 Two-electron integral symmetry is turned off.
 Nuclear repulsion after empirical dispersion term =     3183.6172973525 Hartrees.
 One-electron integrals computed using PRISM.
 NBasis=   501 RedAO= T EigKep=  1.86D-03  NBF=   501
 NBsUse=   501 1.00D-06 EigRej= -1.00D+00 NBFU=   501
 Initial guess from the checkpoint file:  "conf-472.chk"
 B after Tr=     0.000000    0.000000    0.000000
         Rot=    1.000000    0.000000    0.000000    0.000000 Ang=   0.00 deg.
 Requested convergence on RMS density matrix=1.00D-08 within 128 cycles.
 Requested convergence on MAX density matrix=1.00D-06.
 Requested convergence on             energy=1.00D-06.
 No special actions if energy rises.
 SCF Done:  E(RB3LYP) =  -1447.51506851     A.U. after    2 cycles
            NFock=  2  Conv=0.72D-08     -V/T= 2.0094

 **********************************************************************

            Population analysis using the SCF Density.

 **********************************************************************

 Alpha  occ. eigenvalues --  -19.32363 -19.30278 -19.27786 -19.24372 -19.23946
 Alpha  occ. eigenvalues --  -19.23133 -14.50751 -14.50016 -14.49160 -14.47792
 Alpha  occ. eigenvalues --  -14.47257 -14.41376 -10.46537 -10.45608 -10.42839
 Alpha  occ. eigenvalues --  -10.40394 -10.39625 -10.35819 -10.35513 -10.34018
 Alpha  occ. eigenvalues --  -10.33555 -10.31369 -10.31075 -10.31020 -10.30995
 Alpha  occ. eigenvalues --  -10.28210 -10.27876 -10.25330 -10.25154  -1.23745
 Alpha  occ. eigenvalues --   -1.21192  -1.15608  -1.15226  -1.14559  -1.14431
 Alpha  occ. eigenvalues --   -1.12199  -1.04717  -1.04342  -1.03760  -1.02989
 Alpha  occ. eigenvalues --   -0.99321  -0.92162  -0.90936  -0.90293  -0.87580
 Alpha  occ. eigenvalues --   -0.85007  -0.82471  -0.81279  -0.77161  -0.76417
 Alpha  occ. eigenvalues --   -0.75964  -0.74649  -0.74058  -0.71631  -0.71019
 Alpha  occ. eigenvalues --   -0.70832  -0.69289  -0.69120  -0.68340  -0.65794
 Alpha  occ. eigenvalues --   -0.65073  -0.64550  -0.64130  -0.62805  -0.61913
 Alpha  occ. eigenvalues --   -0.60826  -0.60413  -0.60339  -0.59869  -0.59459
 Alpha  occ. eigenvalues --   -0.58830  -0.58285  -0.57926  -0.56902  -0.55764
 Alpha  occ. eigenvalues --   -0.55068  -0.54647  -0.54495  -0.53404  -0.53216
 Alpha  occ. eigenvalues --   -0.52914  -0.52437  -0.51609  -0.51386  -0.51203
 Alpha  occ. eigenvalues --   -0.49875  -0.49763  -0.49273  -0.48644  -0.48112
 Alpha  occ. eigenvalues --   -0.47808  -0.47246  -0.46968  -0.46602  -0.46193
 Alpha  occ. eigenvalues --   -0.45977  -0.45519  -0.44949  -0.44876  -0.42180
 Alpha  occ. eigenvalues --   -0.41891  -0.41410  -0.41261  -0.41187  -0.41048
 Alpha  occ. eigenvalues --   -0.40008  -0.39329  -0.38689  -0.37408  -0.36802
 Alpha  occ. eigenvalues --   -0.35417  -0.34139
 Alpha virt. eigenvalues --   -0.12589  -0.11939  -0.10376  -0.09669  -0.08579
 Alpha virt. eigenvalues --   -0.05834  -0.04871  -0.03747  -0.03028  -0.02571
 Alpha virt. eigenvalues --   -0.02177  -0.01006  -0.00351   0.00310   0.00996
 Alpha virt. eigenvalues --    0.01719   0.02127   0.02655   0.02674   0.03579
 Alpha virt. eigenvalues --    0.03766   0.04241   0.04538   0.05086   0.05667
 Alpha virt. eigenvalues --    0.06147   0.06303   0.06643   0.07089   0.07333
 Alpha virt. eigenvalues --    0.08092   0.08507   0.08576   0.09473   0.09682
 Alpha virt. eigenvalues --    0.10035   0.10105   0.10814   0.11084   0.11587
 Alpha virt. eigenvalues --    0.12084   0.12455   0.12833   0.12989   0.13469
 Alpha virt. eigenvalues --    0.13960   0.14650   0.14974   0.15820   0.16344
 Alpha virt. eigenvalues --    0.16988   0.17015   0.18029   0.18217   0.19490
 Alpha virt. eigenvalues --    0.20104   0.20310   0.21355   0.25021   0.25312
 Alpha virt. eigenvalues --    0.26688   0.27128   0.27722   0.29591   0.30875
 Alpha virt. eigenvalues --    0.32825   0.36016   0.38644   0.39660   0.40050
 Alpha virt. eigenvalues --    0.40290   0.41024   0.41414   0.41923   0.43080
 Alpha virt. eigenvalues --    0.43452   0.43609   0.43789   0.44258   0.44772
 Alpha virt. eigenvalues --    0.44963   0.45952   0.46257   0.46647   0.47680
 Alpha virt. eigenvalues --    0.48346   0.48457   0.49354   0.49966   0.50949
 Alpha virt. eigenvalues --    0.51697   0.52126   0.52627   0.53110   0.53661
 Alpha virt. eigenvalues --    0.54233   0.54835   0.55107   0.55679   0.56123
 Alpha virt. eigenvalues --    0.56797   0.57246   0.57888   0.58081   0.59424
 Alpha virt. eigenvalues --    0.60969   0.61650   0.62564   0.63407   0.63650
 Alpha virt. eigenvalues --    0.63735   0.64679   0.65057   0.65408   0.65959
 Alpha virt. eigenvalues --    0.66717   0.67085   0.67669   0.69421   0.69684
 Alpha virt. eigenvalues --    0.69815   0.70814   0.71254   0.72037   0.72586
 Alpha virt. eigenvalues --    0.73195   0.73590   0.73996   0.74688   0.75346
 Alpha virt. eigenvalues --    0.75956   0.76501   0.77115   0.77830   0.78321
 Alpha virt. eigenvalues --    0.78435   0.79292   0.79330   0.79805   0.80283
 Alpha virt. eigenvalues --    0.80486   0.81325   0.81797   0.82185   0.82336
 Alpha virt. eigenvalues --    0.82860   0.83122   0.83250   0.83760   0.84135
 Alpha virt. eigenvalues --    0.84165   0.84811   0.85268   0.85695   0.85956
 Alpha virt. eigenvalues --    0.86366   0.86484   0.86899   0.87784   0.88183
 Alpha virt. eigenvalues --    0.88737   0.89598   0.90183   0.90392   0.91793
 Alpha virt. eigenvalues --    0.92544   0.93422   0.94244   0.94492   0.95308
 Alpha virt. eigenvalues --    0.96697   0.97315   0.98387   0.99443   1.00589
 Alpha virt. eigenvalues --    1.01379   1.02446   1.03299   1.04746   1.06219
 Alpha virt. eigenvalues --    1.07720   1.08667   1.09990   1.10936   1.11924
 Alpha virt. eigenvalues --    1.12464   1.14231   1.14916   1.16526   1.17034
 Alpha virt. eigenvalues --    1.18361   1.18779   1.19894   1.20944   1.21317
 Alpha virt. eigenvalues --    1.22809   1.23403   1.25508   1.27090   1.28333
 Alpha virt. eigenvalues --    1.29291   1.30421   1.31430   1.32046   1.32598
 Alpha virt. eigenvalues --    1.34108   1.34897   1.35716   1.36687   1.38583
 Alpha virt. eigenvalues --    1.40083   1.41051   1.42134   1.44888   1.45202
 Alpha virt. eigenvalues --    1.46163   1.47646   1.47750   1.48158   1.49857
 Alpha virt. eigenvalues --    1.50638   1.51468   1.53565   1.54690   1.55376
 Alpha virt. eigenvalues --    1.56667   1.58052   1.58398   1.58823   1.60923
 Alpha virt. eigenvalues --    1.61638   1.62441   1.62579   1.63506   1.65384
 Alpha virt. eigenvalues --    1.65515   1.66196   1.67171   1.68131   1.68428
 Alpha virt. eigenvalues --    1.69048   1.69155   1.69981   1.70346   1.70863
 Alpha virt. eigenvalues --    1.71488   1.72586   1.73587   1.73857   1.74686
 Alpha virt. eigenvalues --    1.75203   1.76306   1.77266   1.77597   1.79249
 Alpha virt. eigenvalues --    1.79674   1.80134   1.81040   1.81952   1.82506
 Alpha virt. eigenvalues --    1.83190   1.84072   1.85409   1.85845   1.86468
 Alpha virt. eigenvalues --    1.86993   1.87784   1.88032   1.89173   1.90148
 Alpha virt. eigenvalues --    1.90821   1.91176   1.92784   1.93644   1.94363
 Alpha virt. eigenvalues --    1.94812   1.95285   1.96237   1.96922   1.97707
 Alpha virt. eigenvalues --    1.98514   1.99879   2.00614   2.02288   2.03212
 Alpha virt. eigenvalues --    2.04033   2.05307   2.05558   2.06413   2.07922
 Alpha virt. eigenvalues --    2.09269   2.09503   2.11460   2.13922   2.16073
 Alpha virt. eigenvalues --    2.16262   2.16412   2.18012   2.19152   2.19849
 Alpha virt. eigenvalues --    2.20346   2.23237   2.23648   2.24640   2.25118
 Alpha virt. eigenvalues --    2.25450   2.27064   2.29019   2.29364   2.31007
 Alpha virt. eigenvalues --    2.31697   2.32260   2.34095   2.34507   2.36148
 Alpha virt. eigenvalues --    2.37303   2.37681   2.38448   2.39389   2.40313
 Alpha virt. eigenvalues --    2.41160   2.41486   2.41843   2.44092   2.46527
 Alpha virt. eigenvalues --    2.47010   2.47451   2.49126   2.50180   2.51849
 Alpha virt. eigenvalues --    2.52533   2.53085   2.55562   2.56665   2.57682
 Alpha virt. eigenvalues --    2.58474   2.60940   2.62133   2.62467   2.63536
 Alpha virt. eigenvalues --    2.64831   2.66016   2.66501   2.70826   2.73604
 Alpha virt. eigenvalues --    2.75598   2.77438   2.79031   2.82574   2.86076
 Alpha virt. eigenvalues --    2.87881   2.89402   2.89836   2.92190   2.93348
 Alpha virt. eigenvalues --    2.96347   2.96721   3.02756   3.05534   3.07486
 Alpha virt. eigenvalues --    3.70743   3.72505   3.74507   3.75578   3.77988
 Alpha virt. eigenvalues --    3.87614   3.93217   3.96589   4.02215   4.03482
 Alpha virt. eigenvalues --    4.05096   4.07698   4.09208   4.11105   4.16367
 Alpha virt. eigenvalues --    4.19925   4.21012   4.21603   4.24417   4.26288
 Alpha virt. eigenvalues --    4.29867   4.31414   4.36680   4.39531   4.43390
 Alpha virt. eigenvalues --    4.46625   4.53717   4.55798   4.59872
          Condensed to atoms (all electrons):
 Mulliken charges:
               1
     1  N   -0.700828
     2  H    0.322546
     3  H    0.322899
     4  C   -0.088528
     5  H    0.151589
     6  C    0.605730
     7  C   -0.270289
     8  H    0.130809
     9  H    0.158083
    10  O   -0.536604
    11  C   -0.356663
    12  H    0.198117
    13  H    0.233860
    14  C    0.600627
    15  O   -0.521434
    16  O   -0.523177
    17  N   -0.594947
    18  H    0.335693
    19  C   -0.066210
    20  H    0.191962
    21  C    0.641924
    22  C   -0.287498
    23  H    0.163805
    24  H    0.146129
    25  O   -0.578150
    26  C   -0.076242
    27  H    0.115705
    28  C   -0.443930
    29  H    0.154128
    30  H    0.159917
    31  H    0.142035
    32  C   -0.455674
    33  H    0.151913
    34  H    0.149118
    35  H    0.162800
    36  N   -0.593897
    37  H    0.382018
    38  C   -0.056539
    39  H    0.188125
    40  C    0.592841
    41  C   -0.284032
    42  H    0.175318
    43  H    0.161352
    44  O   -0.446269
    45  C   -0.300159
    46  H    0.210069
    47  H    0.144369
    48  C   -0.159908
    49  H    0.194146
    50  H    0.184434
    51  N   -0.603675
    52  H    0.389524
    53  N   -0.754014
    54  H    0.414759
    55  H    0.363962
    56  N   -0.769101
    57  H    0.375750
    58  H    0.407391
    59  C    0.736269
    60  O   -0.553316
    61  H    0.432445
    62  H    0.428919
 Sum of Mulliken charges =   1.00000
 Mulliken charges with hydrogens summed into heavy atoms:
               1
     1  N   -0.055383
     4  C    0.063061
     6  C    0.605730
     7  C    0.018604
    10  O   -0.536604
    11  C    0.075315
    14  C    0.600627
    15  O   -0.521434
    16  O   -0.094258
    17  N   -0.259253
    19  C    0.125752
    21  C    0.641924
    22  C    0.022436
    25  O   -0.578150
    26  C    0.039463
    28  C    0.012150
    32  C    0.008156
    36  N   -0.211879
    38  C    0.131586
    40  C    0.592841
    41  C    0.052639
    44  O   -0.446269
    45  C    0.054280
    48  C    0.218672
    51  N   -0.214151
    53  N    0.024707
    56  N    0.014040
    59  C    0.736269
    60  O   -0.120870
 Electronic spatial extent (au):  <R**2>=          17996.1771
 Charge=              1.0000 electrons
 Dipole moment (field-independent basis, Debye):
    X=             12.1037    Y=              0.8978    Z=            -13.1232  Tot=             17.8753
 Quadrupole moment (field-independent basis, Debye-Ang):
   XX=           -107.7870   YY=           -148.0533   ZZ=            -97.3303
   XY=             11.4424   XZ=            -45.9608   YZ=              5.3393
 Traceless Quadrupole moment (field-independent basis, Debye-Ang):
   XX=              9.9366   YY=            -30.3298   ZZ=             20.3932
   XY=             11.4424   XZ=            -45.9608   YZ=              5.3393
 Octapole moment (field-independent basis, Debye-Ang**2):
  XXX=           -547.5404  YYY=           -301.5219  ZZZ=            536.9698  XYY=           -254.9109
  XXY=            -70.1101  XXZ=            106.0491  XZZ=            -30.1050  YZZ=           -130.7040
  YYZ=            309.1721  XYZ=            -14.4177
 Hexadecapole moment (field-independent basis, Debye-Ang**3):
 XXXX=          -6345.1305 YYYY=          -4097.0947 ZZZZ=          -7290.3711 XXXY=          -1120.8324
 XXXZ=           1457.2428 YYYX=          -1567.6540 YYYZ=            830.6173 ZZZX=            679.3199
 ZZZY=            823.5107 XXYY=          -2064.8065 XXZZ=          -1984.3572 YYZZ=          -2213.2184
 XXYZ=             28.7098 YYXZ=            708.2319 ZZXY=           -398.4675
 N-N= 3.183617297352D+03 E-N=-9.716570669577D+03  KE= 1.434081842379D+03
 Unable to Open any file for archive entry.
 1\1\GINC-AMR-176\SP\RB3LYP\6-31G(d)\C17H33N6O6(1+)\KENGMITH\01-Jun-202
 2\0\\# B3LYP/6-31G* empiricaldispersion=gd3 guess=read geom=check nosy
 mm integral(ultrafinegrid)\\Candidate Structure: Conf:472 Charge calc 
 in gas phase\\1,1\N,0,-1.6498635145,1.1025875305,-4.3333493787\H,0,-2.
 6355076133,0.9791840313,-4.1098557507\H,0,-1.4264797639,2.0619973131,-
 4.0647380027\C,0,-0.8386576963,0.2073788413,-3.5235255688\H,0,-1.31085
 59698,-0.7841520108,-3.5164186005\C,0,-0.6460495236,0.7045563237,-2.07
 56031136\C,0,0.5781362917,0.0750654128,-4.1296959398\H,0,1.1789827635,
 -0.592875841,-3.5038515713\H,0,1.0644729647,1.0588544473,-4.0871685965
 \O,0,-0.7685974053,1.8979579871,-1.7951531601\C,0,0.5586278577,-0.4234
 265153,-5.5735354233\H,0,0.0858796543,-1.4141506671,-5.6419841432\H,0,
 -0.0457042074,0.2359441095,-6.2021296977\C,0,1.9410501319,-0.554879100
 1,-6.1591358371\O,0,2.9822585371,-0.6452932896,-5.5119904597\O,0,1.933
 6364421,-0.5817900112,-7.4914018646\N,0,-0.2361958433,-0.2249743718,-1
 .1714025953\H,0,-0.1042241396,-1.1812539181,-1.4729608794\C,0,0.242743
 413,0.1310033255,0.170052066\H,0,-0.4396835471,0.8906383066,0.55987623
 96\C,0,1.6443601568,0.7549459164,0.0023908139\C,0,0.2716386206,-1.0885
 432528,1.0911664483\H,0,0.6352546825,-0.7525055515,2.0707138189\H,0,1.
 0297708241,-1.7883628106,0.7165604085\O,0,2.6741225013,0.0677366809,0.
 0488200878\C,0,-1.079916584,-1.8073405211,1.2691395338\H,0,-1.40854013
 17,-2.1784054479,0.2862951435\C,0,-0.8961512152,-3.0222176951,2.190097
 8073\H,0,-0.5893248971,-2.7058210743,3.1948200008\H,0,-1.8314655913,-3
 .5832387078,2.2890843102\H,0,-0.1304340904,-3.7071678959,1.8067660298\
 C,0,-2.1722351359,-0.8719035724,1.8066770652\H,0,-1.8669117344,-0.4244
 587636,2.7612436411\H,0,-2.4032759334,-0.0588933814,1.1090623003\H,0,-
 3.1012235798,-1.4245757478,1.9823148817\N,0,1.6279753497,2.0836460897,
 -0.2478169826\H,0,0.7227503531,2.5020370654,-0.4463932698\C,0,2.823793
 4772,2.8161864875,-0.6180317818\H,0,3.6462625645,2.3726612646,-0.04430
 65718\C,0,2.7652259069,4.2864319038,-0.2110040303\C,0,3.1532147931,2.6
 887445575,-2.1266700575\H,0,2.4939036291,3.3468059932,-2.7035964356\H,
 0,2.8837969472,1.6674617393,-2.4069635012\O,0,3.5600342414,5.104403656
 3,-0.615670074\C,0,4.6322707718,2.9765120138,-2.4510781675\H,0,4.76811
 52611,4.0335834655,-2.692250193\H,0,5.2390278057,2.8285348555,-1.55128
 74874\C,0,5.2165680272,2.1636081289,-3.6242069836\H,0,6.3061791592,2.2
 793221876,-3.6443385295\H,0,4.8398468304,2.5626133214,-4.5702387038\N,
 0,4.8698456972,0.7248468153,-3.6645108837\H,0,4.5331897243,0.374616011
 3,-4.5565089487\N,0,5.0969012786,0.1457370793,-1.3886971085\H,0,4.4317
 045812,0.0152603714,-0.6176699449\H,0,5.780710137,0.8776097078,-1.2703
 613726\N,0,3.8144968314,-1.1367976488,-2.807109517\H,0,3.7572100399,-1
 .8460077029,-2.0910883394\H,0,3.3271263055,-1.2496701238,-3.6938025708
 \C,0,4.6040482153,-0.0710170504,-2.6224726767\O,0,1.7541939551,4.56576
 17403,0.6306613838\H,0,1.8031778181,5.5205623888,0.8332878749\H,0,2.84
 89582847,-0.7156068674,-7.8062851407\\Version=ES64L-G16RevC.01\HF=-144
 7.5150685\RMSD=7.175e-09\Dipole=1.6323804,-1.0336276,-1.5871755\Quadru
 pole=7.3875959,-22.5494646,15.1618688,8.507138,-34.1707448,3.9696045\P
 G=C01 [X(C17H33N6O6)]\\@
 The archive entry for this job was punched.


 ASKING FOR EFFICIENCY AND ADAPTABILITY IN THE SAME PROGRAM IS LIKE
 ASKING FOR A BEAUTIFUL AND MODEST WIFE ...
 WE'LL PROBABLY HAVE TO SETTLE FOR ONE OR THE OTHER.

             -- THE PSYCHOLOGY OF COMPUTER PROGRAMMING
                GERALD M. WEINBERG
 Job cpu time:       0 days  0 hours  1 minutes 42.6 seconds.
 Elapsed time:       0 days  0 hours  0 minutes 26.4 seconds.
 File lengths (MBytes):  RWF=    248 Int=      0 D2E=      0 Chk=     32 Scr=     16
 Normal termination of Gaussian 16 at Wed Jun  1 02:03:07 2022.
