 Entering Gaussian System, Link 0=/opt/software/Gaussian/g16-AVX2-C.01/g16/g16
 Input=charge-conf-578.com
 Output=charge-conf-578.log
 Initial command:
 /opt/software/Gaussian/g16-AVX2-C.01/g16/l1.exe "/mnt/gs18/scratch/users/kengmith/Gau-37088.inp" -scrdir="/mnt/gs18/scratch/users/kengmith/"
 Entering Link 1 = /opt/software/Gaussian/g16-AVX2-C.01/g16/l1.exe PID=     37098.
  
 Copyright (c) 1988-2019, Gaussian, Inc.  All Rights Reserved.
  
 This is part of the Gaussian(R) 16 program.  It is based on
 the Gaussian(R) 09 system (copyright 2009, Gaussian, Inc.),
 the Gaussian(R) 03 system (copyright 2003, Gaussian, Inc.),
 the Gaussian(R) 98 system (copyright 1998, Gaussian, Inc.),
 the Gaussian(R) 94 system (copyright 1995, Gaussian, Inc.),
 the Gaussian 92(TM) system (copyright 1992, Gaussian, Inc.),
 the Gaussian 90(TM) system (copyright 1990, Gaussian, Inc.),
 the Gaussian 88(TM) system (copyright 1988, Gaussian, Inc.),
 the Gaussian 86(TM) system (copyright 1986, Carnegie Mellon
 University), and the Gaussian 82(TM) system (copyright 1983,
 Carnegie Mellon University). Gaussian is a federally registered
 trademark of Gaussian, Inc.
  
 This software contains proprietary and confidential information,
 including trade secrets, belonging to Gaussian, Inc.
  
 This software is provided under written license and may be
 used, copied, transmitted, or stored only in accord with that
 written license.
  
 The following legend is applicable only to US Government
 contracts under FAR:
  
                    RESTRICTED RIGHTS LEGEND
  
 Use, reproduction and disclosure by the US Government is
 subject to restrictions as set forth in subparagraphs (a)
 and (c) of the Commercial Computer Software - Restricted
 Rights clause in FAR 52.227-19.
  
 Gaussian, Inc.
 340 Quinnipiac St., Bldg. 40, Wallingford CT 06492
  
  
 ---------------------------------------------------------------
 Warning -- This program may not be used in any manner that
 competes with the business of Gaussian, Inc. or will provide
 assistance to any competitor of Gaussian, Inc.  The licensee
 of this program is prohibited from giving any competitor of
 Gaussian, Inc. access to this program.  By using this program,
 the user acknowledges that Gaussian, Inc. is engaged in the
 business of creating and licensing software in the field of
 computational chemistry and represents and warrants to the
 licensee that it is not a competitor of Gaussian, Inc. and that
 it will not use this program in any manner prohibited above.
 ---------------------------------------------------------------
  

 Cite this work as:
 Gaussian 16, Revision C.01,
 M. J. Frisch, G. W. Trucks, H. B. Schlegel, G. E. Scuseria, 
 M. A. Robb, J. R. Cheeseman, G. Scalmani, V. Barone, 
 G. A. Petersson, H. Nakatsuji, X. Li, M. Caricato, A. V. Marenich, 
 J. Bloino, B. G. Janesko, R. Gomperts, B. Mennucci, H. P. Hratchian, 
 J. V. Ortiz, A. F. Izmaylov, J. L. Sonnenberg, D. Williams-Young, 
 F. Ding, F. Lipparini, F. Egidi, J. Goings, B. Peng, A. Petrone, 
 T. Henderson, D. Ranasinghe, V. G. Zakrzewski, J. Gao, N. Rega, 
 G. Zheng, W. Liang, M. Hada, M. Ehara, K. Toyota, R. Fukuda, 
 J. Hasegawa, M. Ishida, T. Nakajima, Y. Honda, O. Kitao, H. Nakai, 
 T. Vreven, K. Throssell, J. A. Montgomery, Jr., J. E. Peralta, 
 F. Ogliaro, M. J. Bearpark, J. J. Heyd, E. N. Brothers, K. N. Kudin, 
 V. N. Staroverov, T. A. Keith, R. Kobayashi, J. Normand, 
 K. Raghavachari, A. P. Rendell, J. C. Burant, S. S. Iyengar, 
 J. Tomasi, M. Cossi, J. M. Millam, M. Klene, C. Adamo, R. Cammi, 
 J. W. Ochterski, R. L. Martin, K. Morokuma, O. Farkas, 
 J. B. Foresman, and D. J. Fox, Gaussian, Inc., Wallingford CT, 2019.
 
 ******************************************
 Gaussian 16:  ES64L-G16RevC.01  3-Jul-2019
                 1-Jun-2022 
 ******************************************
 %mem=8gb
 %nproc=4
 Will use up to    4 processors via shared memory.
 %chk=conf-578.chk
 ----------------------------------------------------------------------
 # B3LYP/6-31G* empiricaldispersion=gd3 guess=read geom=check nosymm in
 tegral(ultrafinegrid)
 ----------------------------------------------------------------------
 1/29=2,38=1,172=1/1;
 2/12=2,15=1,40=1/2;
 3/5=1,6=6,7=1,11=2,14=-4,25=1,30=1,74=-5,75=-5,116=-2,124=31/1,2,3;
 4/5=1/1;
 5/5=2,38=6/2;
 6/7=2,8=2,9=2,10=2,28=1/1;
 99/5=1,9=1/99;
 ------------------------------------------------------
 Candidate Structure: Conf:578 Charge calc in gas phase
 ------------------------------------------------------
 Structure from the checkpoint file:  "conf-578.chk"
 Charge =  1 Multiplicity = 1
 Redundant internal coordinates found in file.  (old form).
 N,0,-1.3343671443,-1.0303088978,-3.6309180735
 H,0,-2.1264134241,-0.3966521906,-3.7209235205
 H,0,-1.3576959363,-1.6636096651,-4.4267655473
 C,0,-0.0683501547,-0.2984419922,-3.5800463615
 H,0,0.72389975,-1.0609083593,-3.5607469551
 C,0,0.0601939253,0.4251819204,-2.2275853362
 C,0,0.2631034243,0.6470017769,-4.7501337237
 H,0,0.2553530437,0.0665305022,-5.6806724095
 H,0,1.2799208229,1.0255927634,-4.6064620158
 O,0,0.635019725,1.5157217569,-2.1192756019
 C,0,-0.6930177883,1.8514674337,-4.8807352987
 H,0,-1.7026684047,1.5299779947,-5.149474895
 H,0,-0.7173578297,2.3893343583,-3.9299613589
 C,0,-0.1650593348,2.7956318359,-5.9262533986
 O,0,0.8019401032,3.5327060704,-5.7810917217
 O,0,-0.8292657739,2.72418346,-7.0863397576
 N,0,-0.4426279707,-0.2424021942,-1.1720093961
 H,0,-0.8864950508,-1.1346119071,-1.3590816121
 C,0,-0.1603368515,0.1675365131,0.2000522973
 H,0,-0.7228959964,1.0836917353,0.4142842212
 C,0,1.353950518,0.4396466862,0.3226551605
 C,0,-0.5737381263,-0.954843632,1.163578065
 H,0,-0.0248036554,-1.8571716324,0.865769074
 H,0,-1.6451745754,-1.1556170065,1.0208123983
 O,0,2.1817315005,-0.3941898096,-0.0278702731
 C,0,-0.3048592767,-0.6717331892,2.6541319817
 H,0,0.7762501231,-0.5144013512,2.7779059334
 C,0,-1.0329448692,0.5819082476,3.1621155923
 H,0,-2.11180689,0.5129939954,2.9718122506
 H,0,-0.8926668085,0.697034739,4.2422324035
 H,0,-0.6624549802,1.5007766739,2.6942404878
 C,0,-0.6988726089,-1.901384776,3.4852333883
 H,0,-1.7760920621,-2.0968323946,3.4073584782
 H,0,-0.1685640024,-2.7993793344,3.1481089788
 H,0,-0.464353201,-1.7488721839,4.5442725992
 N,0,1.6770531778,1.6479522082,0.8504253325
 H,0,0.9475115872,2.3095554807,1.0799837582
 C,0,3.0337300027,2.1437515264,0.9490594355
 H,0,3.7064326444,1.2901072556,1.0699945204
 C,0,3.1151298291,3.0396150451,2.1789941894
 C,0,3.4360373473,2.9643286308,-0.3066644086
 H,0,4.3279337246,3.5581840481,-0.073295456
 H,0,2.6203048308,3.6736710427,-0.4986609533
 O,0,2.1584177513,3.5461520579,2.721486726
 C,0,3.6780524017,2.0868509437,-1.5515866965
 H,0,4.7273427378,1.7626376587,-1.585202424
 H,0,3.0792505957,1.1771829425,-1.4976763381
 C,0,3.29064521,2.7756171939,-2.8584507965
 H,0,2.2258286615,3.011504917,-2.8323620031
 H,0,3.4671935559,2.1130472584,-3.7140976146
 N,0,4.0486074563,4.0262338301,-3.0529747725
 H,0,5.0264374453,4.0112825612,-2.7908354132
 N,0,2.4101030101,5.1921636185,-4.2240219919
 H,0,1.9958297941,6.0839584556,-4.4551558199
 H,0,1.9273094514,4.3679565538,-4.598198401
 N,0,4.305506124,6.288955081,-3.4701064771
 H,0,4.1353023238,7.0833403143,-4.0689921058
 H,0,5.0594486266,6.3633172199,-2.8032261131
 C,0,3.5819875119,5.1539117737,-3.5900651857
 O,0,4.3931769927,3.248254625,2.5536551552
 H,0,4.3737243047,3.8458786704,3.3259435203
 H,0,-0.4004436387,3.3329448396,-7.7189347599
 Recover connectivity data from disk.
                           ----------------------------
                           !    Current Parameters    !
                           ! (Angstroms and Degrees)  !
 --------------------------                            --------------------------
 ! Name  Definition              Value                                          !
 --------------------------------------------------------------------------------
 ! R1    R(1,2)                  1.0183                                         !
 ! R2    R(1,3)                  1.0173                                         !
 ! R3    R(1,4)                  1.4632                                         !
 ! R4    R(4,5)                  1.0997                                         !
 ! R5    R(4,6)                  1.5393                                         !
 ! R6    R(4,7)                  1.5404                                         !
 ! R7    R(6,10)                 1.2375                                         !
 ! R8    R(6,17)                 1.3464                                         !
 ! R9    R(7,8)                  1.0968                                         !
 ! R10   R(7,9)                  1.0945                                         !
 ! R11   R(7,11)                 1.5434                                         !
 ! R12   R(11,12)                1.0931                                         !
 ! R13   R(11,13)                1.0926                                         !
 ! R14   R(11,14)                1.5044                                         !
 ! R15   R(14,15)                1.2245                                         !
 ! R16   R(14,16)                1.3387                                         !
 ! R17   R(16,62)                0.9771                                         !
 ! R18   R(17,18)                1.0139                                         !
 ! R19   R(17,19)                1.4596                                         !
 ! R20   R(19,20)                1.0962                                         !
 ! R21   R(19,21)                1.5434                                         !
 ! R22   R(19,22)                1.5359                                         !
 ! R23   R(21,25)                1.2261                                         !
 ! R24   R(21,36)                1.3575                                         !
 ! R25   R(22,23)                1.0974                                         !
 ! R26   R(22,24)                1.0994                                         !
 ! R27   R(22,26)                1.5408                                         !
 ! R28   R(26,27)                1.0995                                         !
 ! R29   R(26,28)                1.5362                                         !
 ! R30   R(26,32)                1.5356                                         !
 ! R31   R(28,29)                1.0977                                         !
 ! R32   R(28,30)                1.0953                                         !
 ! R33   R(28,31)                1.0957                                         !
 ! R34   R(32,33)                1.0976                                         !
 ! R35   R(32,34)                1.096                                          !
 ! R36   R(32,35)                1.0954                                         !
 ! R37   R(36,37)                1.0113                                         !
 ! R38   R(36,38)                1.4478                                         !
 ! R39   R(38,39)                1.0936                                         !
 ! R40   R(38,40)                1.5238                                         !
 ! R41   R(38,41)                1.5531                                         !
 ! R42   R(40,44)                1.2109                                         !
 ! R43   R(40,60)                1.3481                                         !
 ! R44   R(41,42)                1.0966                                         !
 ! R45   R(41,43)                1.0979                                         !
 ! R46   R(41,45)                1.5422                                         !
 ! R47   R(45,46)                1.0988                                         !
 ! R48   R(45,47)                1.0904                                         !
 ! R49   R(45,48)                1.5272                                         !
 ! R50   R(48,49)                1.0909                                         !
 ! R51   R(48,50)                1.0965                                         !
 ! R52   R(48,51)                1.4753                                         !
 ! R53   R(51,52)                1.0125                                         !
 ! R54   R(51,59)                1.3334                                         !
 ! R55   R(53,54)                1.0101                                         !
 ! R56   R(53,55)                1.0259                                         !
 ! R57   R(53,59)                1.3329                                         !
 ! R58   R(56,57)                1.0093                                         !
 ! R59   R(56,58)                1.0093                                         !
 ! R60   R(56,59)                1.3514                                         !
 ! R61   R(60,61)                0.9767                                         !
 ! A1    A(2,1,3)              107.4805                                         !
 ! A2    A(2,1,4)              111.3958                                         !
 ! A3    A(3,1,4)              111.0019                                         !
 ! A4    A(1,4,5)              106.0897                                         !
 ! A5    A(1,4,6)              109.7516                                         !
 ! A6    A(1,4,7)              117.8239                                         !
 ! A7    A(5,4,6)              104.4988                                         !
 ! A8    A(5,4,7)              106.4906                                         !
 ! A9    A(6,4,7)              111.1562                                         !
 ! A10   A(4,6,10)             122.0036                                         !
 ! A11   A(4,6,17)             115.1241                                         !
 ! A12   A(10,6,17)            122.8066                                         !
 ! A13   A(4,7,8)              108.5488                                         !
 ! A14   A(4,7,9)              108.21                                           !
 ! A15   A(4,7,11)             114.203                                          !
 ! A16   A(8,7,9)              107.5184                                         !
 ! A17   A(8,7,11)             109.686                                          !
 ! A18   A(9,7,11)             108.4635                                         !
 ! A19   A(7,11,12)            111.3137                                         !
 ! A20   A(7,11,13)            108.9254                                         !
 ! A21   A(7,11,14)            109.3407                                         !
 ! A22   A(12,11,13)           109.7623                                         !
 ! A23   A(12,11,14)           109.7462                                         !
 ! A24   A(13,11,14)           107.6743                                         !
 ! A25   A(11,14,15)           124.9259                                         !
 ! A26   A(11,14,16)           113.2427                                         !
 ! A27   A(15,14,16)           121.7812                                         !
 ! A28   A(14,16,62)           108.0624                                         !
 ! A29   A(6,17,18)            117.0747                                         !
 ! A30   A(6,17,19)            121.7032                                         !
 ! A31   A(18,17,19)           120.3486                                         !
 ! A32   A(17,19,20)           108.6139                                         !
 ! A33   A(17,19,21)           108.2975                                         !
 ! A34   A(17,19,22)           109.416                                          !
 ! A35   A(20,19,21)           109.915                                          !
 ! A36   A(20,19,22)           110.4872                                         !
 ! A37   A(21,19,22)           110.0646                                         !
 ! A38   A(19,21,25)           121.317                                          !
 ! A39   A(19,21,36)           114.9177                                         !
 ! A40   A(25,21,36)           123.7629                                         !
 ! A41   A(19,22,23)           107.2169                                         !
 ! A42   A(19,22,24)           108.3186                                         !
 ! A43   A(19,22,26)           115.19                                           !
 ! A44   A(23,22,24)           107.5839                                         !
 ! A45   A(23,22,26)           109.0455                                         !
 ! A46   A(24,22,26)           109.2225                                         !
 ! A47   A(22,26,27)           107.8651                                         !
 ! A48   A(22,26,28)           112.7761                                         !
 ! A49   A(22,26,32)           109.3694                                         !
 ! A50   A(27,26,28)           108.1821                                         !
 ! A51   A(27,26,32)           107.8158                                         !
 ! A52   A(28,26,32)           110.6655                                         !
 ! A53   A(26,28,29)           110.9329                                         !
 ! A54   A(26,28,30)           110.5602                                         !
 ! A55   A(26,28,31)           112.5151                                         !
 ! A56   A(29,28,30)           107.6651                                         !
 ! A57   A(29,28,31)           108.1172                                         !
 ! A58   A(30,28,31)           106.8376                                         !
 ! A59   A(26,32,33)           110.8563                                         !
 ! A60   A(26,32,34)           111.436                                          !
 ! A61   A(26,32,35)           110.9068                                         !
 ! A62   A(33,32,34)           107.8877                                         !
 ! A63   A(33,32,35)           107.6694                                         !
 ! A64   A(34,32,35)           107.9311                                         !
 ! A65   A(21,36,37)           119.9248                                         !
 ! A66   A(21,36,38)           123.6635                                         !
 ! A67   A(37,36,38)           115.8811                                         !
 ! A68   A(36,38,39)           108.4603                                         !
 ! A69   A(36,38,40)           107.8412                                         !
 ! A70   A(36,38,41)           111.6286                                         !
 ! A71   A(39,38,40)           109.6829                                         !
 ! A72   A(39,38,41)           110.0298                                         !
 ! A73   A(40,38,41)           109.1565                                         !
 ! A74   A(38,40,44)           124.4273                                         !
 ! A75   A(38,40,60)           111.4668                                         !
 ! A76   A(44,40,60)           124.0425                                         !
 ! A77   A(38,41,42)           108.9495                                         !
 ! A78   A(38,41,43)           106.8752                                         !
 ! A79   A(38,41,45)           113.1234                                         !
 ! A80   A(42,41,43)           106.9545                                         !
 ! A81   A(42,41,45)           110.6263                                         !
 ! A82   A(43,41,45)           110.0618                                         !
 ! A83   A(41,45,46)           110.0264                                         !
 ! A84   A(41,45,47)           110.4007                                         !
 ! A85   A(41,45,48)           113.2257                                         !
 ! A86   A(46,45,47)           106.2473                                         !
 ! A87   A(46,45,48)           110.4352                                         !
 ! A88   A(47,45,48)           106.2153                                         !
 ! A89   A(45,48,49)           108.9442                                         !
 ! A90   A(45,48,50)           110.7564                                         !
 ! A91   A(45,48,51)           111.3967                                         !
 ! A92   A(49,48,50)           107.8468                                         !
 ! A93   A(49,48,51)           108.7435                                         !
 ! A94   A(50,48,51)           109.0643                                         !
 ! A95   A(48,51,52)           116.7146                                         !
 ! A96   A(48,51,59)           126.176                                          !
 ! A97   A(52,51,59)           117.0498                                         !
 ! A98   A(54,53,55)           115.6478                                         !
 ! A99   A(54,53,59)           119.6526                                         !
 ! A100  A(55,53,59)           124.3453                                         !
 ! A101  A(57,56,58)           117.3898                                         !
 ! A102  A(57,56,59)           121.206                                          !
 ! A103  A(58,56,59)           121.3641                                         !
 ! A104  A(51,59,53)           121.5693                                         !
 ! A105  A(51,59,56)           119.1588                                         !
 ! A106  A(53,59,56)           119.2637                                         !
 ! A107  A(40,60,61)           107.1918                                         !
 ! D1    D(2,1,4,5)           -175.8057                                         !
 ! D2    D(2,1,4,6)             71.8343                                         !
 ! D3    D(2,1,4,7)            -56.7092                                         !
 ! D4    D(3,1,4,5)            -56.0706                                         !
 ! D5    D(3,1,4,6)           -168.4307                                         !
 ! D6    D(3,1,4,7)             63.0258                                         !
 ! D7    D(1,4,6,10)          -146.6395                                         !
 ! D8    D(1,4,6,17)            36.2306                                         !
 ! D9    D(5,4,6,10)            99.9693                                         !
 ! D10   D(5,4,6,17)           -77.1606                                         !
 ! D11   D(7,4,6,10)           -14.516                                          !
 ! D12   D(7,4,6,17)           168.3542                                         !
 ! D13   D(1,4,7,8)            -57.6364                                         !
 ! D14   D(1,4,7,9)           -174.0361                                         !
 ! D15   D(1,4,7,11)            65.0736                                         !
 ! D16   D(5,4,7,8)             61.2487                                         !
 ! D17   D(5,4,7,9)            -55.151                                          !
 ! D18   D(5,4,7,11)          -176.0414                                         !
 ! D19   D(6,4,7,8)            174.4856                                         !
 ! D20   D(6,4,7,9)             58.0859                                         !
 ! D21   D(6,4,7,11)           -62.8044                                         !
 ! D22   D(4,6,17,18)           -2.1655                                         !
 ! D23   D(4,6,17,19)          167.1651                                         !
 ! D24   D(10,6,17,18)        -179.2697                                         !
 ! D25   D(10,6,17,19)          -9.9391                                         !
 ! D26   D(4,7,11,12)          -66.3018                                         !
 ! D27   D(4,7,11,13)           54.86                                           !
 ! D28   D(4,7,11,14)          172.2793                                         !
 ! D29   D(8,7,11,12)           55.787                                          !
 ! D30   D(8,7,11,13)          176.9488                                         !
 ! D31   D(8,7,11,14)          -65.6319                                         !
 ! D32   D(9,7,11,12)          172.9487                                         !
 ! D33   D(9,7,11,13)          -65.8894                                         !
 ! D34   D(9,7,11,14)           51.5298                                         !
 ! D35   D(7,11,14,15)         -73.5475                                         !
 ! D36   D(7,11,14,16)         103.9059                                         !
 ! D37   D(12,11,14,15)        164.0902                                         !
 ! D38   D(12,11,14,16)        -18.4564                                         !
 ! D39   D(13,11,14,15)         44.6562                                         !
 ! D40   D(13,11,14,16)       -137.8905                                         !
 ! D41   D(11,14,16,62)       -177.3666                                         !
 ! D42   D(15,14,16,62)          0.1772                                         !
 ! D43   D(6,17,19,20)          72.8865                                         !
 ! D44   D(6,17,19,21)         -46.45                                           !
 ! D45   D(6,17,19,22)        -166.4295                                         !
 ! D46   D(18,17,19,20)       -118.1264                                         !
 ! D47   D(18,17,19,21)        122.537                                          !
 ! D48   D(18,17,19,22)          2.5575                                         !
 ! D49   D(17,19,21,25)        -52.6257                                         !
 ! D50   D(17,19,21,36)        127.9232                                         !
 ! D51   D(20,19,21,25)       -171.1394                                         !
 ! D52   D(20,19,21,36)          9.4096                                         !
 ! D53   D(22,19,21,25)         66.947                                          !
 ! D54   D(22,19,21,36)       -112.504                                          !
 ! D55   D(17,19,22,23)         57.2226                                         !
 ! D56   D(17,19,22,24)        -58.6104                                         !
 ! D57   D(17,19,22,26)        178.775                                          !
 ! D58   D(20,19,22,23)        176.7593                                         !
 ! D59   D(20,19,22,24)         60.9263                                         !
 ! D60   D(20,19,22,26)        -61.6883                                         !
 ! D61   D(21,19,22,23)        -61.6674                                         !
 ! D62   D(21,19,22,24)       -177.5005                                         !
 ! D63   D(21,19,22,26)         59.885                                          !
 ! D64   D(19,21,36,37)         -3.4214                                         !
 ! D65   D(19,21,36,38)       -174.7142                                         !
 ! D66   D(25,21,36,37)        177.1427                                         !
 ! D67   D(25,21,36,38)          5.85                                           !
 ! D68   D(19,22,26,27)        -60.1119                                         !
 ! D69   D(19,22,26,28)         59.2881                                         !
 ! D70   D(19,22,26,32)       -177.1162                                         !
 ! D71   D(23,22,26,27)         60.4461                                         !
 ! D72   D(23,22,26,28)        179.8461                                         !
 ! D73   D(23,22,26,32)        -56.5582                                         !
 ! D74   D(24,22,26,27)        177.7582                                         !
 ! D75   D(24,22,26,28)        -62.8418                                         !
 ! D76   D(24,22,26,32)         60.7539                                         !
 ! D77   D(22,26,28,29)         55.3955                                         !
 ! D78   D(22,26,28,30)        174.7674                                         !
 ! D79   D(22,26,28,31)        -65.8676                                         !
 ! D80   D(27,26,28,29)        174.6118                                         !
 ! D81   D(27,26,28,30)        -66.0163                                         !
 ! D82   D(27,26,28,31)         53.3487                                         !
 ! D83   D(32,26,28,29)        -67.4795                                         !
 ! D84   D(32,26,28,30)         51.8924                                         !
 ! D85   D(32,26,28,31)        171.2574                                         !
 ! D86   D(22,26,32,33)        -63.6933                                         !
 ! D87   D(22,26,32,34)         56.4855                                         !
 ! D88   D(22,26,32,35)        176.7533                                         !
 ! D89   D(27,26,32,33)        179.2714                                         !
 ! D90   D(27,26,32,34)        -60.5499                                         !
 ! D91   D(27,26,32,35)         59.7179                                         !
 ! D92   D(28,26,32,33)         61.139                                          !
 ! D93   D(28,26,32,34)       -178.6822                                         !
 ! D94   D(28,26,32,35)        -58.4144                                         !
 ! D95   D(21,36,38,39)        -30.4029                                         !
 ! D96   D(21,36,38,40)       -149.1189                                         !
 ! D97   D(21,36,38,41)         90.9832                                         !
 ! D98   D(37,36,38,39)        157.9824                                         !
 ! D99   D(37,36,38,40)         39.2664                                         !
 ! D100  D(37,36,38,41)        -80.6315                                         !
 ! D101  D(36,38,40,44)        -19.5702                                         !
 ! D102  D(36,38,40,60)        163.2294                                         !
 ! D103  D(39,38,40,44)       -137.502                                          !
 ! D104  D(39,38,40,60)         45.2976                                         !
 ! D105  D(41,38,40,44)        101.8773                                         !
 ! D106  D(41,38,40,60)        -75.3231                                         !
 ! D107  D(36,38,41,42)        163.3537                                         !
 ! D108  D(36,38,41,43)         48.1177                                         !
 ! D109  D(36,38,41,45)        -73.169                                          !
 ! D110  D(39,38,41,42)        -76.1747                                         !
 ! D111  D(39,38,41,43)        168.5893                                         !
 ! D112  D(39,38,41,45)         47.3026                                         !
 ! D113  D(40,38,41,42)         44.2334                                         !
 ! D114  D(40,38,41,43)        -71.0026                                         !
 ! D115  D(40,38,41,45)        167.7107                                         !
 ! D116  D(38,40,60,61)        178.4409                                         !
 ! D117  D(44,40,60,61)          1.2278                                         !
 ! D118  D(38,41,45,46)        -88.7881                                         !
 ! D119  D(38,41,45,47)         28.166                                          !
 ! D120  D(38,41,45,48)        147.1004                                         !
 ! D121  D(42,41,45,46)         33.7607                                         !
 ! D122  D(42,41,45,47)        150.7148                                         !
 ! D123  D(42,41,45,48)        -90.3508                                         !
 ! D124  D(43,41,45,46)        151.7411                                         !
 ! D125  D(43,41,45,47)        -91.3048                                         !
 ! D126  D(43,41,45,48)         27.6296                                         !
 ! D127  D(41,45,48,49)        -60.8386                                         !
 ! D128  D(41,45,48,50)       -179.3021                                         !
 ! D129  D(41,45,48,51)         59.1199                                         !
 ! D130  D(46,45,48,49)        175.2732                                         !
 ! D131  D(46,45,48,50)         56.8098                                         !
 ! D132  D(46,45,48,51)        -64.7682                                         !
 ! D133  D(47,45,48,49)         60.4828                                         !
 ! D134  D(47,45,48,50)        -57.9807                                         !
 ! D135  D(47,45,48,51)       -179.5586                                         !
 ! D136  D(45,48,51,52)         39.9893                                         !
 ! D137  D(45,48,51,59)       -142.9131                                         !
 ! D138  D(49,48,51,52)        160.0664                                         !
 ! D139  D(49,48,51,59)        -22.836                                          !
 ! D140  D(50,48,51,52)        -82.5669                                         !
 ! D141  D(50,48,51,59)         94.5306                                         !
 ! D142  D(48,51,59,53)        -11.6034                                         !
 ! D143  D(48,51,59,56)        167.3498                                         !
 ! D144  D(52,51,59,53)        165.4855                                         !
 ! D145  D(52,51,59,56)        -15.5613                                         !
 ! D146  D(54,53,59,51)        167.6711                                         !
 ! D147  D(54,53,59,56)        -11.281                                          !
 ! D148  D(55,53,59,51)        -19.4706                                         !
 ! D149  D(55,53,59,56)        161.5773                                         !
 ! D150  D(57,56,59,51)        162.2194                                         !
 ! D151  D(57,56,59,53)        -18.803                                          !
 ! D152  D(58,56,59,51)        -15.4138                                         !
 ! D153  D(58,56,59,53)        163.5638                                         !
 --------------------------------------------------------------------------------
 Symmetry turned off by external request.
 Stoichiometry    C17H33N6O6(1+)
 Framework group  C1[X(C17H33N6O6)]
 Deg. of freedom   180
 Full point group                 C1      NOp   1
                          Input orientation:                          
 ---------------------------------------------------------------------
 Center     Atomic      Atomic             Coordinates (Angstroms)
 Number     Number       Type             X           Y           Z
 ---------------------------------------------------------------------
      1          7           0       -1.334367   -1.030309   -3.630918
      2          1           0       -2.126413   -0.396652   -3.720924
      3          1           0       -1.357696   -1.663610   -4.426766
      4          6           0       -0.068350   -0.298442   -3.580046
      5          1           0        0.723900   -1.060908   -3.560747
      6          6           0        0.060194    0.425182   -2.227585
      7          6           0        0.263103    0.647002   -4.750134
      8          1           0        0.255353    0.066531   -5.680672
      9          1           0        1.279921    1.025593   -4.606462
     10          8           0        0.635020    1.515722   -2.119276
     11          6           0       -0.693018    1.851467   -4.880735
     12          1           0       -1.702668    1.529978   -5.149475
     13          1           0       -0.717358    2.389334   -3.929961
     14          6           0       -0.165059    2.795632   -5.926253
     15          8           0        0.801940    3.532706   -5.781092
     16          8           0       -0.829266    2.724183   -7.086340
     17          7           0       -0.442628   -0.242402   -1.172009
     18          1           0       -0.886495   -1.134612   -1.359082
     19          6           0       -0.160337    0.167537    0.200052
     20          1           0       -0.722896    1.083692    0.414284
     21          6           0        1.353951    0.439647    0.322655
     22          6           0       -0.573738   -0.954844    1.163578
     23          1           0       -0.024804   -1.857172    0.865769
     24          1           0       -1.645175   -1.155617    1.020812
     25          8           0        2.181732   -0.394190   -0.027870
     26          6           0       -0.304859   -0.671733    2.654132
     27          1           0        0.776250   -0.514401    2.777906
     28          6           0       -1.032945    0.581908    3.162116
     29          1           0       -2.111807    0.512994    2.971812
     30          1           0       -0.892667    0.697035    4.242232
     31          1           0       -0.662455    1.500777    2.694240
     32          6           0       -0.698873   -1.901385    3.485233
     33          1           0       -1.776092   -2.096832    3.407358
     34          1           0       -0.168564   -2.799379    3.148109
     35          1           0       -0.464353   -1.748872    4.544273
     36          7           0        1.677053    1.647952    0.850425
     37          1           0        0.947512    2.309555    1.079984
     38          6           0        3.033730    2.143752    0.949059
     39          1           0        3.706433    1.290107    1.069995
     40          6           0        3.115130    3.039615    2.178994
     41          6           0        3.436037    2.964329   -0.306664
     42          1           0        4.327934    3.558184   -0.073295
     43          1           0        2.620305    3.673671   -0.498661
     44          8           0        2.158418    3.546152    2.721487
     45          6           0        3.678052    2.086851   -1.551587
     46          1           0        4.727343    1.762638   -1.585202
     47          1           0        3.079251    1.177183   -1.497676
     48          6           0        3.290645    2.775617   -2.858451
     49          1           0        2.225829    3.011505   -2.832362
     50          1           0        3.467194    2.113047   -3.714098
     51          7           0        4.048607    4.026234   -3.052975
     52          1           0        5.026437    4.011283   -2.790835
     53          7           0        2.410103    5.192164   -4.224022
     54          1           0        1.995830    6.083958   -4.455156
     55          1           0        1.927309    4.367957   -4.598198
     56          7           0        4.305506    6.288955   -3.470106
     57          1           0        4.135302    7.083340   -4.068992
     58          1           0        5.059449    6.363317   -2.803226
     59          6           0        3.581988    5.153912   -3.590065
     60          8           0        4.393177    3.248255    2.553655
     61          1           0        4.373724    3.845879    3.325944
     62          1           0       -0.400444    3.332945   -7.718935
 ---------------------------------------------------------------------
 Rotational constants (GHZ):           0.1725817           0.1109503           0.0737094
 Standard basis: 6-31G(d) (6D, 7F)
   501 basis functions,   944 primitive gaussians,   501 cartesian basis functions
   112 alpha electrons      112 beta electrons
       nuclear repulsion energy      3087.9284307790 Hartrees.
 NAtoms=   62 NActive=   62 NUniq=   62 SFac= 1.00D+00 NAtFMM=   60 NAOKFM=T Big=T
 Integral buffers will be    131072 words long.
 Raffenetti 2 integral format.
 Two-electron integral symmetry is turned off.
 Nuclear repulsion after empirical dispersion term =     3087.8504467429 Hartrees.
 One-electron integrals computed using PRISM.
 NBasis=   501 RedAO= T EigKep=  1.71D-03  NBF=   501
 NBsUse=   501 1.00D-06 EigRej= -1.00D+00 NBFU=   501
 Initial guess from the checkpoint file:  "conf-578.chk"
 B after Tr=     0.000000    0.000000    0.000000
         Rot=    1.000000    0.000000    0.000000    0.000000 Ang=   0.00 deg.
 Requested convergence on RMS density matrix=1.00D-08 within 128 cycles.
 Requested convergence on MAX density matrix=1.00D-06.
 Requested convergence on             energy=1.00D-06.
 No special actions if energy rises.
 SCF Done:  E(RB3LYP) =  -1447.50486410     A.U. after    1 cycles
            NFock=  1  Conv=0.68D-08     -V/T= 2.0094

 **********************************************************************

            Population analysis using the SCF Density.

 **********************************************************************

 Alpha  occ. eigenvalues --  -19.30768 -19.28863 -19.25698 -19.23275 -19.20823
 Alpha  occ. eigenvalues --  -19.19200 -14.52011 -14.51780 -14.50620 -14.44446
 Alpha  occ. eigenvalues --  -14.44328 -14.41935 -10.47989 -10.43646 -10.41220
 Alpha  occ. eigenvalues --  -10.37498 -10.36671 -10.34104 -10.33035 -10.32126
 Alpha  occ. eigenvalues --  -10.31497 -10.29844 -10.29365 -10.29174 -10.28745
 Alpha  occ. eigenvalues --  -10.26308 -10.25896 -10.23930 -10.23361  -1.21916
 Alpha  occ. eigenvalues --   -1.19771  -1.16347  -1.12794  -1.12661  -1.11265
 Alpha  occ. eigenvalues --   -1.10774  -1.05687  -1.04251  -1.01399  -1.01214
 Alpha  occ. eigenvalues --   -0.98557  -0.90559  -0.89354  -0.88520  -0.86048
 Alpha  occ. eigenvalues --   -0.82894  -0.80819  -0.80037  -0.77659  -0.74817
 Alpha  occ. eigenvalues --   -0.74331  -0.73832  -0.73111  -0.72167  -0.70689
 Alpha  occ. eigenvalues --   -0.69347  -0.68459  -0.67216  -0.66415  -0.65808
 Alpha  occ. eigenvalues --   -0.64566  -0.62691  -0.61756  -0.61377  -0.60309
 Alpha  occ. eigenvalues --   -0.59836  -0.59015  -0.58711  -0.57999  -0.57474
 Alpha  occ. eigenvalues --   -0.57203  -0.56390  -0.55909  -0.55537  -0.54843
 Alpha  occ. eigenvalues --   -0.54362  -0.53791  -0.52933  -0.52242  -0.51956
 Alpha  occ. eigenvalues --   -0.51283  -0.50397  -0.49617  -0.49351  -0.49094
 Alpha  occ. eigenvalues --   -0.48347  -0.48073  -0.47707  -0.47401  -0.46350
 Alpha  occ. eigenvalues --   -0.45567  -0.45409  -0.45127  -0.44703  -0.44477
 Alpha  occ. eigenvalues --   -0.43823  -0.43669  -0.42987  -0.42714  -0.42596
 Alpha  occ. eigenvalues --   -0.40915  -0.40290  -0.39764  -0.39427  -0.39407
 Alpha  occ. eigenvalues --   -0.39149  -0.36888  -0.35590  -0.35034  -0.33885
 Alpha  occ. eigenvalues --   -0.33328  -0.32417
 Alpha virt. eigenvalues --   -0.11975  -0.10536  -0.08432  -0.08156  -0.07697
 Alpha virt. eigenvalues --   -0.05468  -0.04195  -0.03542  -0.02709  -0.01347
 Alpha virt. eigenvalues --   -0.01113  -0.00574  -0.00056   0.00096   0.01942
 Alpha virt. eigenvalues --    0.02634   0.03014   0.03159   0.04016   0.04255
 Alpha virt. eigenvalues --    0.04918   0.05770   0.06294   0.06444   0.06772
 Alpha virt. eigenvalues --    0.07164   0.07710   0.08516   0.08583   0.08961
 Alpha virt. eigenvalues --    0.09190   0.09461   0.10200   0.10626   0.10768
 Alpha virt. eigenvalues --    0.10933   0.11180   0.12033   0.12297   0.12588
 Alpha virt. eigenvalues --    0.13355   0.13607   0.14386   0.14561   0.14925
 Alpha virt. eigenvalues --    0.15185   0.15882   0.16810   0.17275   0.18201
 Alpha virt. eigenvalues --    0.18246   0.18755   0.19177   0.20170   0.21154
 Alpha virt. eigenvalues --    0.21362   0.22789   0.23196   0.24248   0.25532
 Alpha virt. eigenvalues --    0.26655   0.27930   0.29626   0.30781   0.32903
 Alpha virt. eigenvalues --    0.34614   0.38461   0.39009   0.40853   0.41386
 Alpha virt. eigenvalues --    0.42179   0.42469   0.42659   0.43475   0.43689
 Alpha virt. eigenvalues --    0.43789   0.44424   0.44541   0.45449   0.45803
 Alpha virt. eigenvalues --    0.46453   0.47592   0.48176   0.48696   0.49513
 Alpha virt. eigenvalues --    0.50069   0.50652   0.51242   0.51447   0.52284
 Alpha virt. eigenvalues --    0.52553   0.52974   0.53388   0.54500   0.54709
 Alpha virt. eigenvalues --    0.55276   0.55903   0.56127   0.57829   0.57999
 Alpha virt. eigenvalues --    0.58083   0.58609   0.59132   0.59457   0.60755
 Alpha virt. eigenvalues --    0.60989   0.61799   0.63216   0.63355   0.63901
 Alpha virt. eigenvalues --    0.65557   0.66043   0.66594   0.66888   0.67295
 Alpha virt. eigenvalues --    0.67757   0.69016   0.69563   0.69843   0.70752
 Alpha virt. eigenvalues --    0.71576   0.71967   0.72483   0.73073   0.73525
 Alpha virt. eigenvalues --    0.73745   0.74616   0.75166   0.75751   0.75858
 Alpha virt. eigenvalues --    0.76371   0.76950   0.77239   0.77783   0.78911
 Alpha virt. eigenvalues --    0.79273   0.79872   0.79968   0.80320   0.80662
 Alpha virt. eigenvalues --    0.81470   0.82046   0.82246   0.82323   0.82961
 Alpha virt. eigenvalues --    0.84104   0.84291   0.84501   0.85179   0.85232
 Alpha virt. eigenvalues --    0.85640   0.86317   0.86859   0.87264   0.88085
 Alpha virt. eigenvalues --    0.88169   0.89206   0.89442   0.89582   0.89711
 Alpha virt. eigenvalues --    0.90347   0.91317   0.91519   0.91902   0.92509
 Alpha virt. eigenvalues --    0.93968   0.94325   0.95143   0.96158   0.96693
 Alpha virt. eigenvalues --    0.97491   0.98219   0.99236   1.00049   1.00998
 Alpha virt. eigenvalues --    1.01616   1.02947   1.03604   1.04308   1.05207
 Alpha virt. eigenvalues --    1.06931   1.07856   1.09162   1.10099   1.11586
 Alpha virt. eigenvalues --    1.12362   1.13144   1.16247   1.18195   1.18921
 Alpha virt. eigenvalues --    1.19404   1.20304   1.20999   1.22696   1.24473
 Alpha virt. eigenvalues --    1.25009   1.25827   1.27632   1.28076   1.29584
 Alpha virt. eigenvalues --    1.30112   1.30681   1.32514   1.33692   1.34833
 Alpha virt. eigenvalues --    1.36779   1.36964   1.38233   1.39098   1.39889
 Alpha virt. eigenvalues --    1.42147   1.42970   1.43248   1.44799   1.45677
 Alpha virt. eigenvalues --    1.47766   1.48950   1.49954   1.50223   1.52401
 Alpha virt. eigenvalues --    1.53676   1.54381   1.54856   1.55551   1.57135
 Alpha virt. eigenvalues --    1.57618   1.58134   1.58769   1.60257   1.61359
 Alpha virt. eigenvalues --    1.62081   1.63441   1.64319   1.65484   1.66497
 Alpha virt. eigenvalues --    1.66700   1.67626   1.68488   1.70032   1.70206
 Alpha virt. eigenvalues --    1.70638   1.71074   1.71289   1.71781   1.72717
 Alpha virt. eigenvalues --    1.73402   1.74416   1.75463   1.76701   1.77429
 Alpha virt. eigenvalues --    1.78171   1.78551   1.79410   1.79770   1.80608
 Alpha virt. eigenvalues --    1.80959   1.81482   1.81894   1.82808   1.83613
 Alpha virt. eigenvalues --    1.84527   1.84714   1.85954   1.86574   1.87749
 Alpha virt. eigenvalues --    1.89024   1.89189   1.89540   1.90483   1.91969
 Alpha virt. eigenvalues --    1.92377   1.93479   1.93972   1.94881   1.94956
 Alpha virt. eigenvalues --    1.97278   1.97696   1.98379   1.98642   1.99021
 Alpha virt. eigenvalues --    2.00288   2.01192   2.01982   2.02669   2.03399
 Alpha virt. eigenvalues --    2.04111   2.05709   2.06738   2.08552   2.10651
 Alpha virt. eigenvalues --    2.11846   2.12895   2.14093   2.15728   2.17271
 Alpha virt. eigenvalues --    2.17956   2.19124   2.19418   2.20932   2.22552
 Alpha virt. eigenvalues --    2.23253   2.23625   2.24252   2.24524   2.25821
 Alpha virt. eigenvalues --    2.27319   2.28699   2.29718   2.30546   2.31844
 Alpha virt. eigenvalues --    2.32831   2.34258   2.34609   2.35082   2.37684
 Alpha virt. eigenvalues --    2.38405   2.38779   2.39762   2.40142   2.42498
 Alpha virt. eigenvalues --    2.42555   2.43092   2.44761   2.46385   2.47833
 Alpha virt. eigenvalues --    2.48243   2.48757   2.51242   2.52166   2.52770
 Alpha virt. eigenvalues --    2.55505   2.55987   2.57789   2.58642   2.60200
 Alpha virt. eigenvalues --    2.60702   2.61333   2.63161   2.64185   2.65975
 Alpha virt. eigenvalues --    2.66943   2.69591   2.70435   2.72676   2.73020
 Alpha virt. eigenvalues --    2.74321   2.77648   2.79385   2.85619   2.88663
 Alpha virt. eigenvalues --    2.89796   2.90766   2.91737   2.94893   2.95774
 Alpha virt. eigenvalues --    2.98883   2.99709   3.02216   3.10240   3.12151
 Alpha virt. eigenvalues --    3.64848   3.72184   3.73291   3.78046   3.80261
 Alpha virt. eigenvalues --    3.86164   3.91475   3.98806   4.03488   4.04727
 Alpha virt. eigenvalues --    4.07672   4.09026   4.10235   4.12503   4.15763
 Alpha virt. eigenvalues --    4.21623   4.22295   4.22863   4.26106   4.28979
 Alpha virt. eigenvalues --    4.33823   4.37643   4.43457   4.44389   4.49120
 Alpha virt. eigenvalues --    4.51145   4.56237   4.57311   4.68313
          Condensed to atoms (all electrons):
 Mulliken charges:
               1
     1  N   -0.733427
     2  H    0.316234
     3  H    0.324339
     4  C   -0.088792
     5  H    0.190030
     6  C    0.637646
     7  C   -0.276502
     8  H    0.156212
     9  H    0.160780
    10  O   -0.574275
    11  C   -0.344084
    12  H    0.171898
    13  H    0.199056
    14  C    0.580631
    15  O   -0.507077
    16  O   -0.528339
    17  N   -0.603215
    18  H    0.363946
    19  C   -0.001436
    20  H    0.152014
    21  C    0.646435
    22  C   -0.302505
    23  H    0.167011
    24  H    0.146426
    25  O   -0.547142
    26  C   -0.086296
    27  H    0.143275
    28  C   -0.449867
    29  H    0.146152
    30  H    0.160721
    31  H    0.133373
    32  C   -0.445725
    33  H    0.146590
    34  H    0.151372
    35  H    0.154686
    36  N   -0.591220
    37  H    0.349421
    38  C   -0.051186
    39  H    0.209430
    40  C    0.580971
    41  C   -0.263586
    42  H    0.148172
    43  H    0.149554
    44  O   -0.456100
    45  C   -0.309943
    46  H    0.148762
    47  H    0.227612
    48  C   -0.175018
    49  H    0.219283
    50  H    0.181858
    51  N   -0.598220
    52  H    0.356825
    53  N   -0.780382
    54  H    0.368536
    55  H    0.435063
    56  N   -0.768111
    57  H    0.379248
    58  H    0.377623
    59  C    0.815600
    60  O   -0.563314
    61  H    0.425140
    62  H    0.423837
 Sum of Mulliken charges =   1.00000
 Mulliken charges with hydrogens summed into heavy atoms:
               1
     1  N   -0.092854
     4  C    0.101237
     6  C    0.637646
     7  C    0.040489
    10  O   -0.574275
    11  C    0.026870
    14  C    0.580631
    15  O   -0.507077
    16  O   -0.104502
    17  N   -0.239269
    19  C    0.150578
    21  C    0.646435
    22  C    0.010932
    25  O   -0.547142
    26  C    0.056980
    28  C   -0.009622
    32  C    0.006923
    36  N   -0.241799
    38  C    0.158244
    40  C    0.580971
    41  C    0.034140
    44  O   -0.456100
    45  C    0.066431
    48  C    0.226122
    51  N   -0.241395
    53  N    0.023217
    56  N   -0.011240
    59  C    0.815600
    60  O   -0.138175
 Electronic spatial extent (au):  <R**2>=          19750.5119
 Charge=              1.0000 electrons
 Dipole moment (field-independent basis, Debye):
    X=             11.1794    Y=             19.1204    Z=            -16.1755  Tot=             27.4265
 Quadrupole moment (field-independent basis, Debye-Ang):
   XX=           -104.0449   YY=            -54.8170   ZZ=            -74.4196
   XY=             79.5494   XZ=            -26.4905   YZ=            -68.7109
 Traceless Quadrupole moment (field-independent basis, Debye-Ang):
   XX=            -26.2844   YY=             22.9435   ZZ=              3.3409
   XY=             79.5494   XZ=            -26.4905   YZ=            -68.7109
 Octapole moment (field-independent basis, Debye-Ang**2):
  XXX=           -346.6922  YYY=           -159.2476  ZZZ=            213.3208  XYY=            232.4974
  XXY=             71.1599  XXZ=             87.7145  XZZ=            -84.3334  YZZ=             49.4429
  YYZ=           -209.5853  XYZ=           -187.1357
 Hexadecapole moment (field-independent basis, Debye-Ang**3):
 XXXX=          -4008.5249 YYYY=          -2951.1380 ZZZZ=          -8087.6983 XXXY=           -846.9083
 XXXZ=             93.8082 YYYX=            269.8153 YYYZ=           -396.1671 ZZZX=            545.9482
 ZZZY=            615.9431 XXYY=           -143.7604 XXZZ=          -2145.8908 YYZZ=          -1095.8013
 XXYZ=             13.1607 YYXZ=          -1007.4652 ZZXY=             24.9711
 N-N= 3.087850446743D+03 E-N=-9.528399153658D+03  KE= 1.434093092813D+03
 Unable to Open any file for archive entry.
 1\1\GINC-AMR-139\SP\RB3LYP\6-31G(d)\C17H33N6O6(1+)\KENGMITH\01-Jun-202
 2\0\\# B3LYP/6-31G* empiricaldispersion=gd3 guess=read geom=check nosy
 mm integral(ultrafinegrid)\\Candidate Structure: Conf:578 Charge calc 
 in gas phase\\1,1\N,0,-1.3343671443,-1.0303088978,-3.6309180735\H,0,-2
 .1264134241,-0.3966521906,-3.7209235205\H,0,-1.3576959363,-1.663609665
 1,-4.4267655473\C,0,-0.0683501547,-0.2984419922,-3.5800463615\H,0,0.72
 389975,-1.0609083593,-3.5607469551\C,0,0.0601939253,0.4251819204,-2.22
 75853362\C,0,0.2631034243,0.6470017769,-4.7501337237\H,0,0.2553530437,
 0.0665305022,-5.6806724095\H,0,1.2799208229,1.0255927634,-4.6064620158
 \O,0,0.635019725,1.5157217569,-2.1192756019\C,0,-0.6930177883,1.851467
 4337,-4.8807352987\H,0,-1.7026684047,1.5299779947,-5.149474895\H,0,-0.
 7173578297,2.3893343583,-3.9299613589\C,0,-0.1650593348,2.7956318359,-
 5.9262533986\O,0,0.8019401032,3.5327060704,-5.7810917217\O,0,-0.829265
 7739,2.72418346,-7.0863397576\N,0,-0.4426279707,-0.2424021942,-1.17200
 93961\H,0,-0.8864950508,-1.1346119071,-1.3590816121\C,0,-0.1603368515,
 0.1675365131,0.2000522973\H,0,-0.7228959964,1.0836917353,0.4142842212\
 C,0,1.353950518,0.4396466862,0.3226551605\C,0,-0.5737381263,-0.9548436
 32,1.163578065\H,0,-0.0248036554,-1.8571716324,0.865769074\H,0,-1.6451
 745754,-1.1556170065,1.0208123983\O,0,2.1817315005,-0.3941898096,-0.02
 78702731\C,0,-0.3048592767,-0.6717331892,2.6541319817\H,0,0.7762501231
 ,-0.5144013512,2.7779059334\C,0,-1.0329448692,0.5819082476,3.162115592
 3\H,0,-2.11180689,0.5129939954,2.9718122506\H,0,-0.8926668085,0.697034
 739,4.2422324035\H,0,-0.6624549802,1.5007766739,2.6942404878\C,0,-0.69
 88726089,-1.901384776,3.4852333883\H,0,-1.7760920621,-2.0968323946,3.4
 073584782\H,0,-0.1685640024,-2.7993793344,3.1481089788\H,0,-0.46435320
 1,-1.7488721839,4.5442725992\N,0,1.6770531778,1.6479522082,0.850425332
 5\H,0,0.9475115872,2.3095554807,1.0799837582\C,0,3.0337300027,2.143751
 5264,0.9490594355\H,0,3.7064326444,1.2901072556,1.0699945204\C,0,3.115
 1298291,3.0396150451,2.1789941894\C,0,3.4360373473,2.9643286308,-0.306
 6644086\H,0,4.3279337246,3.5581840481,-0.073295456\H,0,2.6203048308,3.
 6736710427,-0.4986609533\O,0,2.1584177513,3.5461520579,2.721486726\C,0
 ,3.6780524017,2.0868509437,-1.5515866965\H,0,4.7273427378,1.7626376587
 ,-1.585202424\H,0,3.0792505957,1.1771829425,-1.4976763381\C,0,3.290645
 21,2.7756171939,-2.8584507965\H,0,2.2258286615,3.011504917,-2.83236200
 31\H,0,3.4671935559,2.1130472584,-3.7140976146\N,0,4.0486074563,4.0262
 338301,-3.0529747725\H,0,5.0264374453,4.0112825612,-2.7908354132\N,0,2
 .4101030101,5.1921636185,-4.2240219919\H,0,1.9958297941,6.0839584556,-
 4.4551558199\H,0,1.9273094514,4.3679565538,-4.598198401\N,0,4.30550612
 4,6.288955081,-3.4701064771\H,0,4.1353023238,7.0833403143,-4.068992105
 8\H,0,5.0594486266,6.3633172199,-2.8032261131\C,0,3.5819875119,5.15391
 17737,-3.5900651857\O,0,4.3931769927,3.248254625,2.5536551552\H,0,4.37
 37243047,3.8458786704,3.3259435203\H,0,-0.4004436387,3.3329448396,-7.7
 189347599\\Version=ES64L-G16RevC.01\HF=-1447.5048641\RMSD=6.789e-09\Di
 pole=1.9368946,4.1596573,-3.7463998\Quadrupole=-19.541819,17.0579498,2
 .4838692,59.1430643,-19.6950736,-51.0848424\PG=C01 [X(C17H33N6O6)]\\@
 The archive entry for this job was punched.


    WHAT WE HAVE LEARNED
 IS LIKE A HANDFUL OF EARTH;
  WHAT WE HAVE YET TO LEARN
   IS LIKE THE WHOLE WORLD.

         -- AVVAYIAR
 Job cpu time:       0 days  0 hours  0 minutes 57.4 seconds.
 Elapsed time:       0 days  0 hours  0 minutes 15.1 seconds.
 File lengths (MBytes):  RWF=    248 Int=      0 D2E=      0 Chk=     32 Scr=     16
 Normal termination of Gaussian 16 at Wed Jun  1 02:02:58 2022.
