 Entering Gaussian System, Link 0=/opt/software/Gaussian/g16-AVX2-C.01/g16/g16
 Input=charge-conf-602.com
 Output=charge-conf-602.log
 Initial command:
 /opt/software/Gaussian/g16-AVX2-C.01/g16/l1.exe "/mnt/gs18/scratch/users/kengmith/Gau-20873.inp" -scrdir="/mnt/gs18/scratch/users/kengmith/"
 Entering Link 1 = /opt/software/Gaussian/g16-AVX2-C.01/g16/l1.exe PID=     20883.
  
 Copyright (c) 1988-2019, Gaussian, Inc.  All Rights Reserved.
  
 This is part of the Gaussian(R) 16 program.  It is based on
 the Gaussian(R) 09 system (copyright 2009, Gaussian, Inc.),
 the Gaussian(R) 03 system (copyright 2003, Gaussian, Inc.),
 the Gaussian(R) 98 system (copyright 1998, Gaussian, Inc.),
 the Gaussian(R) 94 system (copyright 1995, Gaussian, Inc.),
 the Gaussian 92(TM) system (copyright 1992, Gaussian, Inc.),
 the Gaussian 90(TM) system (copyright 1990, Gaussian, Inc.),
 the Gaussian 88(TM) system (copyright 1988, Gaussian, Inc.),
 the Gaussian 86(TM) system (copyright 1986, Carnegie Mellon
 University), and the Gaussian 82(TM) system (copyright 1983,
 Carnegie Mellon University). Gaussian is a federally registered
 trademark of Gaussian, Inc.
  
 This software contains proprietary and confidential information,
 including trade secrets, belonging to Gaussian, Inc.
  
 This software is provided under written license and may be
 used, copied, transmitted, or stored only in accord with that
 written license.
  
 The following legend is applicable only to US Government
 contracts under FAR:
  
                    RESTRICTED RIGHTS LEGEND
  
 Use, reproduction and disclosure by the US Government is
 subject to restrictions as set forth in subparagraphs (a)
 and (c) of the Commercial Computer Software - Restricted
 Rights clause in FAR 52.227-19.
  
 Gaussian, Inc.
 340 Quinnipiac St., Bldg. 40, Wallingford CT 06492
  
  
 ---------------------------------------------------------------
 Warning -- This program may not be used in any manner that
 competes with the business of Gaussian, Inc. or will provide
 assistance to any competitor of Gaussian, Inc.  The licensee
 of this program is prohibited from giving any competitor of
 Gaussian, Inc. access to this program.  By using this program,
 the user acknowledges that Gaussian, Inc. is engaged in the
 business of creating and licensing software in the field of
 computational chemistry and represents and warrants to the
 licensee that it is not a competitor of Gaussian, Inc. and that
 it will not use this program in any manner prohibited above.
 ---------------------------------------------------------------
  

 Cite this work as:
 Gaussian 16, Revision C.01,
 M. J. Frisch, G. W. Trucks, H. B. Schlegel, G. E. Scuseria, 
 M. A. Robb, J. R. Cheeseman, G. Scalmani, V. Barone, 
 G. A. Petersson, H. Nakatsuji, X. Li, M. Caricato, A. V. Marenich, 
 J. Bloino, B. G. Janesko, R. Gomperts, B. Mennucci, H. P. Hratchian, 
 J. V. Ortiz, A. F. Izmaylov, J. L. Sonnenberg, D. Williams-Young, 
 F. Ding, F. Lipparini, F. Egidi, J. Goings, B. Peng, A. Petrone, 
 T. Henderson, D. Ranasinghe, V. G. Zakrzewski, J. Gao, N. Rega, 
 G. Zheng, W. Liang, M. Hada, M. Ehara, K. Toyota, R. Fukuda, 
 J. Hasegawa, M. Ishida, T. Nakajima, Y. Honda, O. Kitao, H. Nakai, 
 T. Vreven, K. Throssell, J. A. Montgomery, Jr., J. E. Peralta, 
 F. Ogliaro, M. J. Bearpark, J. J. Heyd, E. N. Brothers, K. N. Kudin, 
 V. N. Staroverov, T. A. Keith, R. Kobayashi, J. Normand, 
 K. Raghavachari, A. P. Rendell, J. C. Burant, S. S. Iyengar, 
 J. Tomasi, M. Cossi, J. M. Millam, M. Klene, C. Adamo, R. Cammi, 
 J. W. Ochterski, R. L. Martin, K. Morokuma, O. Farkas, 
 J. B. Foresman, and D. J. Fox, Gaussian, Inc., Wallingford CT, 2019.
 
 ******************************************
 Gaussian 16:  ES64L-G16RevC.01  3-Jul-2019
                26-May-2022 
 ******************************************
 %mem=8gb
 %nproc=4
 Will use up to    4 processors via shared memory.
 %chk=conf-602.chk
 -------------------------------------------------------------------
 # B3LYP/6-31G* guess=read geom=check nosymm integral(ultrafinegrid)
 -------------------------------------------------------------------
 1/29=2,38=1,172=1/1;
 2/12=2,15=1,40=1/2;
 3/5=1,6=6,7=1,11=2,14=-4,25=1,30=1,74=-5,75=-5,116=-2/1,2,3;
 4/5=1/1;
 5/5=2,38=6/2;
 6/7=2,8=2,9=2,10=2,28=1/1;
 99/5=1,9=1/99;
 ------------------------------------------------------
 Candidate Structure: Conf:602 Charge calc in gas phase
 ------------------------------------------------------
 Structure from the checkpoint file:  "conf-602.chk"
 Charge =  1 Multiplicity = 1
 Redundant internal coordinates found in file.  (old form).
 N,0,-3.8364553262,-0.7507034191,4.6778846655
 H,0,-4.5721223943,-1.3445160205,4.2999972645
 H,0,-3.0013435705,-1.321903114,4.8031924563
 H,0,-3.8784691525,-0.1469770776,6.4309083872
 C,0,-3.5610560274,0.4054188826,3.8309375814
 H,0,-4.5192991512,0.8778349841,3.5867471916
 C,0,-2.8670542076,0.0426639325,2.5216950243
 C,0,-2.6793308259,1.4469760466,4.5666771614
 H,0,-1.7461816041,0.964565584,4.8814725184
 H,0,-2.3914610958,2.2156635451,3.8403183222
 O,0,-1.8655532442,-0.766128085,2.6576465607
 C,0,-3.3808623735,2.1316587317,5.7657815913
 H,0,-4.462983268,2.1939604287,5.5839121969
 H,0,-3.0118703667,3.1549717716,5.8547275196
 C,0,-3.1435752373,1.4904573917,7.1420697467
 O,0,-2.6567211297,2.1095263427,8.0556183497
 O,0,-3.5162612999,0.2046399242,7.2800079665
 N,0,-3.306619371,0.5659072663,1.4016871155
 H,0,-4.1484608842,1.1398817315,1.4863599524
 C,0,-2.7378014809,0.5255433544,0.0425089877
 H,0,-3.0068302277,-0.4371054195,-0.4078646344
 C,0,-1.2110216447,0.6857163709,0.1439763686
 C,0,-3.3589834071,1.6817128878,-0.8010549818
 H,0,-3.0267545143,1.5342923558,-1.8340613863
 H,0,-2.9114581783,2.621762313,-0.4577680986
 O,0,-0.7178428104,1.3674572462,1.030529355
 C,0,-4.8553507991,1.7491568808,-0.7168191743
 C,0,-5.7673615532,1.116480091,-1.5316954668
 H,0,-5.6031166717,0.5081202695,-2.4111297547
 C,0,-5.6234759646,2.4508282515,0.2895812825
 C,0,-6.9957942376,2.1841200217,0.0249102922
 C,0,-5.2915501282,3.2879167705,1.3771959135
 H,0,-4.2575747568,3.5642353205,1.57554596
 N,0,-7.0438542571,1.370644951,-1.0894448966
 H,0,-7.8877502768,1.0635042904,-1.5507925978
 C,0,-7.666153449,3.5163796181,1.8846964804
 H,0,-8.4420211664,3.943114067,2.5127026783
 C,0,-8.0256096006,2.709704129,0.811792816
 H,0,-9.0685301589,2.5008766909,0.5916214982
 C,0,-6.3143898817,3.8063909287,2.1631168341
 H,0,-6.0728959835,4.4652510398,2.991882937
 N,0,-0.4855633788,0.0164999434,-0.8009141068
 H,0,-0.9857368667,-0.6528012599,-1.3751205789
 C,0,0.906325648,-0.3166653163,-0.5031476056
 H,0,1.2562677346,0.4733848131,0.1689816413
 C,0,1.8045893203,-0.2995576157,-1.7586503618
 C,0,1.022167061,-1.68647259,0.220708125
 H,0,1.088844335,-2.4778652966,-0.5336300742
 O,0,2.788280074,-1.0295477873,-1.8305866769
 C,0,2.2188811975,-1.7539271057,1.1572791448
 H,0,3.1348054244,-1.5992574709,0.5821354613
 H,0,2.2860630281,-2.7378427304,1.6370704943
 H,0,2.1468820262,-0.9874150624,1.9367283624
 O,0,-0.2290729826,-1.9064981381,0.9519099786
 H,0,-0.1259949068,-2.7476754137,1.4274724465
 N,0,1.4352702301,0.5755798705,-2.7188864318
 H,0,0.6437011262,1.1949936194,-2.5844759316
 C,0,2.241817553,0.8196062234,-3.9109009328
 H,0,3.2982914751,0.8645838019,-3.6244774052
 C,0,1.8023709184,2.1830752829,-4.4323372521
 C,0,2.059824389,-0.307360199,-4.9623238592
 H,0,1.0267440353,-0.2777746973,-5.334457305
 H,0,2.1768202048,-1.2465017126,-4.4102999343
 O,0,0.7615404313,2.7233767543,-4.1144289585
 C,0,3.0585354168,-0.2841051248,-6.1261677999
 H,0,2.9429559566,0.6353553512,-6.7121735339
 H,0,4.0856669897,-0.2788952401,-5.7404233664
 C,0,2.8804273583,-1.5024295249,-7.0395386652
 H,0,3.04665464,-2.4250381566,-6.4788177883
 H,0,1.840011269,-1.5440657387,-7.4062698144
 N,0,3.8363009241,-1.475430361,-8.1490825541
 H,0,3.6508136074,-0.7279537731,-8.8090917594
 N,0,4.4843718246,-3.7190807002,-7.9453741052
 H,0,4.8690099381,-4.4976148212,-8.470227577
 H,0,5.0829557443,-3.4708104176,-7.1633284594
 N,0,4.3730515779,-2.8118510534,-10.0747539641
 H,0,4.0159028975,-2.0101872611,-10.598752935
 C,0,4.2248176039,-2.6512607338,-8.8118854363
 O,0,2.6827992431,2.713130479,-5.2934663497
 H,0,2.3169111584,3.5675462258,-5.5953547657
 H,0,-1.2535644186,-0.990892739,1.8834419303
 Recover connectivity data from disk.
                           ----------------------------
                           !    Current Parameters    !
                           ! (Angstroms and Degrees)  !
 --------------------------                            --------------------------
 ! Name  Definition              Value                                          !
 --------------------------------------------------------------------------------
 ! R1    R(1,2)                  1.0181                                         !
 ! R2    R(1,3)                  1.0195                                         !
 ! R3    R(1,4)                  1.8545                                         !
 ! R4    R(1,5)                  1.4594                                         !
 ! R5    R(5,6)                  1.0959                                         !
 ! R6    R(5,7)                  1.5256                                         !
 ! R7    R(5,8)                  1.5504                                         !
 ! R8    R(7,11)                 1.2945                                         !
 ! R9    R(7,18)                 1.312                                          !
 ! R10   R(8,9)                  1.0966                                         !
 ! R11   R(8,10)                 1.0961                                         !
 ! R12   R(8,12)                 1.5488                                         !
 ! R13   R(11,81)                1.0121                                         !
 ! R14   R(12,13)                1.0991                                         !
 ! R15   R(12,14)                1.0914                                         !
 ! R16   R(12,15)                1.5368                                         !
 ! R17   R(15,16)                1.2062                                         !
 ! R18   R(15,17)                1.3458                                         !
 ! R19   R(18,19)                1.0224                                         !
 ! R20   R(18,20)                1.474                                          !
 ! R21   R(20,21)                1.0963                                         !
 ! R22   R(20,22)                1.5385                                         !
 ! R23   R(20,23)                1.5602                                         !
 ! R24   R(22,26)                1.2223                                         !
 ! R25   R(22,42)                1.3664                                         !
 ! R26   R(23,24)                1.0951                                         !
 ! R27   R(23,25)                1.0963                                         !
 ! R28   R(23,27)                1.5003                                         !
 ! R29   R(27,28)                1.377                                          !
 ! R30   R(27,30)                1.4475                                         !
 ! R31   R(28,29)                1.0819                                         !
 ! R32   R(28,34)                1.3746                                         !
 ! R33   R(30,31)                1.4228                                         !
 ! R34   R(30,32)                1.412                                          !
 ! R35   R(31,34)                1.3805                                         !
 ! R36   R(31,38)                1.3986                                         !
 ! R37   R(32,33)                1.0885                                         !
 ! R38   R(32,40)                1.3902                                         !
 ! R39   R(34,35)                1.0096                                         !
 ! R40   R(36,37)                1.0856                                         !
 ! R41   R(36,38)                1.3896                                         !
 ! R42   R(36,40)                1.4103                                         !
 ! R43   R(38,39)                1.0862                                         !
 ! R44   R(40,41)                1.0859                                         !
 ! R45   R(42,43)                1.0138                                         !
 ! R46   R(42,44)                1.4619                                         !
 ! R47   R(44,45)                1.0947                                         !
 ! R48   R(44,46)                1.5438                                         !
 ! R49   R(44,47)                1.5536                                         !
 ! R50   R(46,49)                1.2271                                         !
 ! R51   R(46,56)                1.3507                                         !
 ! R52   R(47,48)                1.0953                                         !
 ! R53   R(47,50)                1.5211                                         !
 ! R54   R(47,54)                1.4658                                         !
 ! R55   R(50,51)                1.0925                                         !
 ! R56   R(50,52)                1.0967                                         !
 ! R57   R(50,53)                1.0956                                         !
 ! R58   R(54,55)                0.9718                                         !
 ! R59   R(56,57)                1.0141                                         !
 ! R60   R(56,58)                1.4598                                         !
 ! R61   R(58,59)                1.0955                                         !
 ! R62   R(58,60)                1.5245                                         !
 ! R63   R(58,61)                1.552                                          !
 ! R64   R(60,64)                1.215                                          !
 ! R65   R(60,79)                1.3408                                         !
 ! R66   R(61,62)                1.0985                                         !
 ! R67   R(61,63)                1.0956                                         !
 ! R68   R(61,65)                1.5338                                         !
 ! R69   R(65,66)                1.0964                                         !
 ! R70   R(65,67)                1.0972                                         !
 ! R71   R(65,68)                1.5331                                         !
 ! R72   R(68,69)                1.0924                                         !
 ! R73   R(68,70)                1.1039                                         !
 ! R74   R(68,71)                1.4648                                         !
 ! R75   R(71,72)                1.0143                                         !
 ! R76   R(71,78)                1.4046                                         !
 ! R77   R(73,74)                1.0147                                         !
 ! R78   R(73,75)                1.0156                                         !
 ! R79   R(73,78)                1.3994                                         !
 ! R80   R(76,77)                1.0222                                         !
 ! R81   R(76,78)                1.2816                                         !
 ! R82   R(79,80)                0.9773                                         !
 ! A1    A(2,1,3)              108.1028                                         !
 ! A2    A(2,1,4)              121.6231                                         !
 ! A3    A(2,1,5)              112.5191                                         !
 ! A4    A(3,1,4)               94.8625                                         !
 ! A5    A(3,1,5)              111.1372                                         !
 ! A6    A(4,1,5)              107.1552                                         !
 ! A7    A(1,5,6)              107.8065                                         !
 ! A8    A(1,5,7)              113.299                                          !
 ! A9    A(1,5,8)              111.354                                          !
 ! A10   A(6,5,7)              108.0017                                         !
 ! A11   A(6,5,8)              108.2655                                         !
 ! A12   A(7,5,8)              107.9566                                         !
 ! A13   A(5,7,11)             114.2297                                         !
 ! A14   A(5,7,18)             119.0362                                         !
 ! A15   A(11,7,18)            126.7294                                         !
 ! A16   A(5,8,9)              108.9435                                         !
 ! A17   A(5,8,10)             107.8206                                         !
 ! A18   A(5,8,12)             114.004                                          !
 ! A19   A(9,8,10)             105.9775                                         !
 ! A20   A(9,8,12)             110.9562                                         !
 ! A21   A(10,8,12)            108.784                                          !
 ! A22   A(7,11,81)            121.7501                                         !
 ! A23   A(8,12,13)            110.0545                                         !
 ! A24   A(8,12,14)            108.9317                                         !
 ! A25   A(8,12,15)            116.0388                                         !
 ! A26   A(13,12,14)           107.0499                                         !
 ! A27   A(13,12,15)           108.8976                                         !
 ! A28   A(14,12,15)           105.4272                                         !
 ! A29   A(12,15,16)           121.7682                                         !
 ! A30   A(12,15,17)           116.5944                                         !
 ! A31   A(16,15,17)           121.6355                                         !
 ! A32   A(7,18,19)            115.4073                                         !
 ! A33   A(7,18,20)            130.3127                                         !
 ! A34   A(19,18,20)           114.1734                                         !
 ! A35   A(18,20,21)           107.9485                                         !
 ! A36   A(18,20,22)           108.6208                                         !
 ! A37   A(18,20,23)           108.9434                                         !
 ! A38   A(21,20,22)           111.2251                                         !
 ! A39   A(21,20,23)           109.322                                          !
 ! A40   A(22,20,23)           110.7088                                         !
 ! A41   A(20,22,26)           120.419                                          !
 ! A42   A(20,22,42)           115.4862                                         !
 ! A43   A(26,22,42)           124.0931                                         !
 ! A44   A(20,23,24)           106.8269                                         !
 ! A45   A(20,23,25)           107.674                                          !
 ! A46   A(20,23,27)           113.5825                                         !
 ! A47   A(24,23,25)           106.677                                          !
 ! A48   A(24,23,27)           111.1993                                         !
 ! A49   A(25,23,27)           110.5507                                         !
 ! A50   A(23,27,28)           127.3534                                         !
 ! A51   A(23,27,30)           126.1655                                         !
 ! A52   A(28,27,30)           106.4221                                         !
 ! A53   A(27,28,29)           129.7068                                         !
 ! A54   A(27,28,34)           109.8584                                         !
 ! A55   A(29,28,34)           120.4285                                         !
 ! A56   A(27,30,31)           106.9552                                         !
 ! A57   A(27,30,32)           134.2807                                         !
 ! A58   A(31,30,32)           118.7595                                         !
 ! A59   A(30,31,34)           107.1087                                         !
 ! A60   A(30,31,38)           122.3506                                         !
 ! A61   A(34,31,38)           130.5396                                         !
 ! A62   A(30,32,33)           120.9409                                         !
 ! A63   A(30,32,40)           118.9198                                         !
 ! A64   A(33,32,40)           120.0799                                         !
 ! A65   A(28,34,31)           109.6526                                         !
 ! A66   A(28,34,35)           124.954                                          !
 ! A67   A(31,34,35)           125.2543                                         !
 ! A68   A(37,36,38)           119.3385                                         !
 ! A69   A(37,36,40)           119.3411                                         !
 ! A70   A(38,36,40)           121.3147                                         !
 ! A71   A(31,38,36)           117.522                                          !
 ! A72   A(31,38,39)           121.3807                                         !
 ! A73   A(36,38,39)           121.0966                                         !
 ! A74   A(32,40,36)           121.1256                                         !
 ! A75   A(32,40,41)           119.6104                                         !
 ! A76   A(36,40,41)           119.2479                                         !
 ! A77   A(22,42,43)           116.9405                                         !
 ! A78   A(22,42,44)           118.4435                                         !
 ! A79   A(43,42,44)           115.7628                                         !
 ! A80   A(42,44,45)           105.3639                                         !
 ! A81   A(42,44,46)           112.6943                                         !
 ! A82   A(42,44,47)           111.5206                                         !
 ! A83   A(45,44,46)           107.7772                                         !
 ! A84   A(45,44,47)           109.0512                                         !
 ! A85   A(46,44,47)           110.199                                          !
 ! A86   A(44,46,49)           120.4984                                         !
 ! A87   A(44,46,56)           115.2291                                         !
 ! A88   A(49,46,56)           124.2619                                         !
 ! A89   A(44,47,48)           108.7051                                         !
 ! A90   A(44,47,50)           112.6204                                         !
 ! A91   A(44,47,54)           107.5242                                         !
 ! A92   A(48,47,50)           110.1265                                         !
 ! A93   A(48,47,54)           106.6811                                         !
 ! A94   A(50,47,54)           110.9629                                         !
 ! A95   A(47,50,51)           109.2169                                         !
 ! A96   A(47,50,52)           110.9365                                         !
 ! A97   A(47,50,53)           110.8131                                         !
 ! A98   A(51,50,52)           107.8156                                         !
 ! A99   A(51,50,53)           109.304                                          !
 ! A100  A(52,50,53)           108.6909                                         !
 ! A101  A(47,54,55)           106.4692                                         !
 ! A102  A(46,56,57)           120.996                                          !
 ! A103  A(46,56,58)           122.5314                                         !
 ! A104  A(57,56,58)           115.9388                                         !
 ! A105  A(56,58,59)           109.0374                                         !
 ! A106  A(56,58,60)           105.6371                                         !
 ! A107  A(56,58,61)           111.5322                                         !
 ! A108  A(59,58,60)           109.3105                                         !
 ! A109  A(59,58,61)           108.664                                          !
 ! A110  A(60,58,61)           112.577                                          !
 ! A111  A(58,60,64)           123.7209                                         !
 ! A112  A(58,60,79)           112.5801                                         !
 ! A113  A(64,60,79)           123.694                                          !
 ! A114  A(58,61,62)           108.6774                                         !
 ! A115  A(58,61,63)           105.5792                                         !
 ! A116  A(58,61,65)           115.2584                                         !
 ! A117  A(62,61,63)           107.1099                                         !
 ! A118  A(62,61,65)           110.788                                          !
 ! A119  A(63,61,65)           109.013                                          !
 ! A120  A(61,65,66)           110.4647                                         !
 ! A121  A(61,65,67)           110.0512                                         !
 ! A122  A(61,65,68)           111.3697                                         !
 ! A123  A(66,65,67)           106.4158                                         !
 ! A124  A(66,65,68)           109.6186                                         !
 ! A125  A(67,65,68)           108.7836                                         !
 ! A126  A(65,68,69)           110.347                                          !
 ! A127  A(65,68,70)           109.7176                                         !
 ! A128  A(65,68,71)           111.1516                                         !
 ! A129  A(69,68,70)           106.3846                                         !
 ! A130  A(69,68,71)           107.7638                                         !
 ! A131  A(70,68,71)           111.3512                                         !
 ! A132  A(68,71,72)           112.778                                          !
 ! A133  A(68,71,78)           121.5022                                         !
 ! A134  A(72,71,78)           111.1284                                         !
 ! A135  A(74,73,75)           111.2502                                         !
 ! A136  A(74,73,78)           109.6021                                         !
 ! A137  A(75,73,78)           113.5506                                         !
 ! A138  A(77,76,78)           111.4969                                         !
 ! A139  A(71,78,73)           113.4459                                         !
 ! A140  A(71,78,76)           127.0035                                         !
 ! A141  A(73,78,76)           119.5415                                         !
 ! A142  A(60,79,80)           107.349                                          !
 ! D1    D(2,1,5,6)             48.7241                                         !
 ! D2    D(2,1,5,7)            -70.7304                                         !
 ! D3    D(2,1,5,8)            167.3463                                         !
 ! D4    D(3,1,5,6)            170.1186                                         !
 ! D5    D(3,1,5,7)             50.664                                          !
 ! D6    D(3,1,5,8)            -71.2593                                         !
 ! D7    D(4,1,5,6)            -87.4978                                         !
 ! D8    D(4,1,5,7)            153.0476                                         !
 ! D9    D(4,1,5,8)             31.1243                                         !
 ! D10   D(1,5,7,11)           -46.9021                                         !
 ! D11   D(1,5,7,18)           133.8342                                         !
 ! D12   D(6,5,7,11)          -166.2448                                         !
 ! D13   D(6,5,7,18)            14.4916                                         !
 ! D14   D(8,5,7,11)            76.8999                                         !
 ! D15   D(8,5,7,18)          -102.3637                                         !
 ! D16   D(1,5,8,9)             57.5456                                         !
 ! D17   D(1,5,8,10)           172.1293                                         !
 ! D18   D(1,5,8,12)           -66.98                                           !
 ! D19   D(6,5,8,9)            175.8923                                         !
 ! D20   D(6,5,8,10)           -69.524                                          !
 ! D21   D(6,5,8,12)            51.3666                                         !
 ! D22   D(7,5,8,9)            -67.4237                                         !
 ! D23   D(7,5,8,10)            47.16                                           !
 ! D24   D(7,5,8,12)           168.0506                                         !
 ! D25   D(5,7,11,81)         -172.2502                                         !
 ! D26   D(18,7,11,81)           6.9465                                         !
 ! D27   D(5,7,18,19)           -4.4368                                         !
 ! D28   D(5,7,18,20)          171.5409                                         !
 ! D29   D(11,7,18,19)         176.401                                          !
 ! D30   D(11,7,18,20)          -7.6213                                         !
 ! D31   D(5,8,12,13)          -30.4324                                         !
 ! D32   D(5,8,12,14)         -147.5094                                         !
 ! D33   D(5,8,12,15)           93.7677                                         !
 ! D34   D(9,8,12,13)         -153.8742                                         !
 ! D35   D(9,8,12,14)           89.0488                                         !
 ! D36   D(9,8,12,15)          -29.6741                                         !
 ! D37   D(10,8,12,13)          89.9199                                         !
 ! D38   D(10,8,12,14)         -27.1572                                         !
 ! D39   D(10,8,12,15)        -145.8801                                         !
 ! D40   D(8,12,15,16)         121.5183                                         !
 ! D41   D(8,12,15,17)         -58.9752                                         !
 ! D42   D(13,12,15,16)       -113.6863                                         !
 ! D43   D(13,12,15,17)         65.8202                                         !
 ! D44   D(14,12,15,16)          0.8935                                         !
 ! D45   D(14,12,15,17)       -179.6                                            !
 ! D46   D(7,18,20,21)          80.7462                                         !
 ! D47   D(7,18,20,22)         -39.9655                                         !
 ! D48   D(7,18,20,23)        -160.6404                                         !
 ! D49   D(19,18,20,21)       -103.2363                                         !
 ! D50   D(19,18,20,22)        136.0521                                         !
 ! D51   D(19,18,20,23)         15.3772                                         !
 ! D52   D(18,20,22,26)        -32.3886                                         !
 ! D53   D(18,20,22,42)        147.1442                                         !
 ! D54   D(21,20,22,26)       -151.055                                          !
 ! D55   D(21,20,22,42)         28.4778                                         !
 ! D56   D(23,20,22,26)         87.1894                                         !
 ! D57   D(23,20,22,42)        -93.2778                                         !
 ! D58   D(18,20,23,24)       -172.0517                                         !
 ! D59   D(18,20,23,25)         73.6786                                         !
 ! D60   D(18,20,23,27)        -49.0795                                         !
 ! D61   D(21,20,23,24)        -54.3027                                         !
 ! D62   D(21,20,23,25)       -168.5724                                         !
 ! D63   D(21,20,23,27)         68.6695                                         !
 ! D64   D(22,20,23,24)         68.5644                                         !
 ! D65   D(22,20,23,25)        -45.7053                                         !
 ! D66   D(22,20,23,27)       -168.4634                                         !
 ! D67   D(20,22,42,43)        -10.7424                                         !
 ! D68   D(20,22,42,44)       -156.8189                                         !
 ! D69   D(26,22,42,43)        168.7711                                         !
 ! D70   D(26,22,42,44)         22.6945                                         !
 ! D71   D(20,23,27,28)        -90.0354                                         !
 ! D72   D(20,23,27,30)         86.7841                                         !
 ! D73   D(24,23,27,28)         30.5017                                         !
 ! D74   D(24,23,27,30)       -152.6788                                         !
 ! D75   D(25,23,27,28)        148.8046                                         !
 ! D76   D(25,23,27,30)        -34.3759                                         !
 ! D77   D(23,27,28,29)         -4.1285                                         !
 ! D78   D(23,27,28,34)        176.7985                                         !
 ! D79   D(30,27,28,29)        178.548                                          !
 ! D80   D(30,27,28,34)         -0.525                                          !
 ! D81   D(23,27,30,31)       -176.8228                                         !
 ! D82   D(23,27,30,32)          4.004                                          !
 ! D83   D(28,27,30,31)          0.5419                                         !
 ! D84   D(28,27,30,32)       -178.6313                                         !
 ! D85   D(27,28,34,31)          0.3096                                         !
 ! D86   D(27,28,34,35)        176.205                                          !
 ! D87   D(29,28,34,31)       -178.8634                                         !
 ! D88   D(29,28,34,35)         -2.968                                          !
 ! D89   D(27,30,31,34)         -0.3621                                         !
 ! D90   D(27,30,31,38)        179.9753                                         !
 ! D91   D(32,30,31,34)        178.9627                                         !
 ! D92   D(32,30,31,38)         -0.6999                                         !
 ! D93   D(27,30,32,33)          2.8289                                         !
 ! D94   D(27,30,32,40)       -179.9701                                         !
 ! D95   D(31,30,32,33)       -176.2689                                         !
 ! D96   D(31,30,32,40)          0.9321                                         !
 ! D97   D(30,31,34,28)          0.0463                                         !
 ! D98   D(30,31,34,35)       -175.8339                                         !
 ! D99   D(38,31,34,28)        179.6712                                         !
 ! D100  D(38,31,34,35)          3.7909                                         !
 ! D101  D(30,31,38,36)         -0.0833                                         !
 ! D102  D(30,31,38,39)        179.6085                                         !
 ! D103  D(34,31,38,36)       -179.6589                                         !
 ! D104  D(34,31,38,39)          0.0329                                         !
 ! D105  D(30,32,40,36)         -0.4162                                         !
 ! D106  D(30,32,40,41)       -178.9436                                         !
 ! D107  D(33,32,40,36)        176.8095                                         !
 ! D108  D(33,32,40,41)         -1.7179                                         !
 ! D109  D(37,36,38,31)        179.7602                                         !
 ! D110  D(37,36,38,39)          0.0675                                         !
 ! D111  D(40,36,38,31)          0.6287                                         !
 ! D112  D(40,36,38,39)       -179.064                                          !
 ! D113  D(37,36,40,32)       -179.5205                                         !
 ! D114  D(37,36,40,41)         -0.9879                                         !
 ! D115  D(38,36,40,32)         -0.3891                                         !
 ! D116  D(38,36,40,41)        178.1436                                         !
 ! D117  D(22,42,44,45)        -29.9653                                         !
 ! D118  D(22,42,44,46)       -147.2305                                         !
 ! D119  D(22,42,44,47)         88.2136                                         !
 ! D120  D(43,42,44,45)       -176.4313                                         !
 ! D121  D(43,42,44,46)         66.3035                                         !
 ! D122  D(43,42,44,47)        -58.2525                                         !
 ! D123  D(42,44,46,49)       -150.3903                                         !
 ! D124  D(42,44,46,56)         30.7452                                         !
 ! D125  D(45,44,46,49)         93.7819                                         !
 ! D126  D(45,44,46,56)        -85.0826                                         !
 ! D127  D(47,44,46,49)        -25.1129                                         !
 ! D128  D(47,44,46,56)        156.0226                                         !
 ! D129  D(42,44,47,48)         87.7042                                         !
 ! D130  D(42,44,47,50)       -149.9766                                         !
 ! D131  D(42,44,47,54)        -27.4282                                         !
 ! D132  D(45,44,47,48)       -156.3526                                         !
 ! D133  D(45,44,47,50)        -34.0335                                         !
 ! D134  D(45,44,47,54)         88.5149                                         !
 ! D135  D(46,44,47,48)        -38.2389                                         !
 ! D136  D(46,44,47,50)         84.0803                                         !
 ! D137  D(46,44,47,54)       -153.3713                                         !
 ! D138  D(44,46,56,57)          2.4911                                         !
 ! D139  D(44,46,56,58)        173.7687                                         !
 ! D140  D(49,46,56,57)       -176.325                                          !
 ! D141  D(49,46,56,58)         -5.0475                                         !
 ! D142  D(44,47,50,51)        -60.1244                                         !
 ! D143  D(44,47,50,52)       -178.8277                                         !
 ! D144  D(44,47,50,53)         60.3416                                         !
 ! D145  D(48,47,50,51)         61.3904                                         !
 ! D146  D(48,47,50,52)        -57.3128                                         !
 ! D147  D(48,47,50,53)       -178.1436                                         !
 ! D148  D(54,47,50,51)        179.281                                          !
 ! D149  D(54,47,50,52)         60.5777                                         !
 ! D150  D(54,47,50,53)        -60.253                                          !
 ! D151  D(44,47,54,55)       -177.7084                                         !
 ! D152  D(48,47,54,55)         65.8235                                         !
 ! D153  D(50,47,54,55)        -54.1417                                         !
 ! D154  D(46,56,58,59)        -41.3416                                         !
 ! D155  D(46,56,58,60)       -158.7189                                         !
 ! D156  D(46,56,58,61)         78.6636                                         !
 ! D157  D(57,56,58,59)        130.3469                                         !
 ! D158  D(57,56,58,60)         12.9695                                         !
 ! D159  D(57,56,58,61)       -109.648                                          !
 ! D160  D(56,58,60,64)        -17.8882                                         !
 ! D161  D(56,58,60,79)        162.8989                                         !
 ! D162  D(59,58,60,64)       -135.0814                                         !
 ! D163  D(59,58,60,79)         45.7057                                         !
 ! D164  D(61,58,60,64)        104.0594                                         !
 ! D165  D(61,58,60,79)        -75.1535                                         !
 ! D166  D(56,58,61,62)         66.1708                                         !
 ! D167  D(56,58,61,63)        -48.4528                                         !
 ! D168  D(56,58,61,65)       -168.8179                                         !
 ! D169  D(59,58,61,62)       -173.6042                                         !
 ! D170  D(59,58,61,63)         71.7721                                         !
 ! D171  D(59,58,61,65)        -48.593                                          !
 ! D172  D(60,58,61,62)        -52.3754                                         !
 ! D173  D(60,58,61,63)       -166.9991                                         !
 ! D174  D(60,58,61,65)         72.6358                                         !
 ! D175  D(58,60,79,80)        178.5155                                         !
 ! D176  D(64,60,79,80)         -0.6976                                         !
 ! D177  D(58,61,65,66)        -63.0752                                         !
 ! D178  D(58,61,65,67)         54.1385                                         !
 ! D179  D(58,61,65,68)        174.8616                                         !
 ! D180  D(62,61,65,66)         60.8327                                         !
 ! D181  D(62,61,65,67)        178.0464                                         !
 ! D182  D(62,61,65,68)        -61.2305                                         !
 ! D183  D(63,61,65,66)        178.4563                                         !
 ! D184  D(63,61,65,67)        -64.3299                                         !
 ! D185  D(63,61,65,68)         56.3932                                         !
 ! D186  D(61,65,68,69)        -60.5026                                         !
 ! D187  D(61,65,68,70)         56.4019                                         !
 ! D188  D(61,65,68,71)       -179.9999                                         !
 ! D189  D(66,65,68,69)        176.9462                                         !
 ! D190  D(66,65,68,70)        -66.1494                                         !
 ! D191  D(66,65,68,71)         57.4488                                         !
 ! D192  D(67,65,68,69)         60.9615                                         !
 ! D193  D(67,65,68,70)        177.8659                                         !
 ! D194  D(67,65,68,71)        -58.5359                                         !
 ! D195  D(65,68,71,72)        -68.4086                                         !
 ! D196  D(65,68,71,78)        155.877                                          !
 ! D197  D(69,68,71,72)        170.5647                                         !
 ! D198  D(69,68,71,78)         34.8503                                         !
 ! D199  D(70,68,71,72)         54.2519                                         !
 ! D200  D(70,68,71,78)        -81.4625                                         !
 ! D201  D(68,71,78,73)        -43.2271                                         !
 ! D202  D(68,71,78,76)        137.8827                                         !
 ! D203  D(72,71,78,73)       -179.5829                                         !
 ! D204  D(72,71,78,76)          1.527                                          !
 ! D205  D(74,73,78,71)       -172.9845                                         !
 ! D206  D(74,73,78,76)          5.9968                                         !
 ! D207  D(75,73,78,71)        -47.8906                                         !
 ! D208  D(75,73,78,76)        131.0906                                         !
 ! D209  D(77,76,78,71)         -9.9564                                         !
 ! D210  D(77,76,78,73)        171.214                                          !
 --------------------------------------------------------------------------------
 Symmetry turned off by external request.
 Stoichiometry    C26H39N8O8(1+)
 Framework group  C1[X(C26H39N8O8)]
 Deg. of freedom   237
 Full point group                 C1      NOp   1
                          Input orientation:                          
 ---------------------------------------------------------------------
 Center     Atomic      Atomic             Coordinates (Angstroms)
 Number     Number       Type             X           Y           Z
 ---------------------------------------------------------------------
      1          7           0       -3.836455   -0.750703    4.677885
      2          1           0       -4.572122   -1.344516    4.299997
      3          1           0       -3.001344   -1.321903    4.803192
      4          1           0       -3.878469   -0.146977    6.430908
      5          6           0       -3.561056    0.405419    3.830938
      6          1           0       -4.519299    0.877835    3.586747
      7          6           0       -2.867054    0.042664    2.521695
      8          6           0       -2.679331    1.446976    4.566677
      9          1           0       -1.746182    0.964566    4.881473
     10          1           0       -2.391461    2.215664    3.840318
     11          8           0       -1.865553   -0.766128    2.657647
     12          6           0       -3.380862    2.131659    5.765782
     13          1           0       -4.462983    2.193960    5.583912
     14          1           0       -3.011870    3.154972    5.854728
     15          6           0       -3.143575    1.490457    7.142070
     16          8           0       -2.656721    2.109526    8.055618
     17          8           0       -3.516261    0.204640    7.280008
     18          7           0       -3.306619    0.565907    1.401687
     19          1           0       -4.148461    1.139882    1.486360
     20          6           0       -2.737801    0.525543    0.042509
     21          1           0       -3.006830   -0.437105   -0.407865
     22          6           0       -1.211022    0.685716    0.143976
     23          6           0       -3.358983    1.681713   -0.801055
     24          1           0       -3.026755    1.534292   -1.834061
     25          1           0       -2.911458    2.621762   -0.457768
     26          8           0       -0.717843    1.367457    1.030529
     27          6           0       -4.855351    1.749157   -0.716819
     28          6           0       -5.767362    1.116480   -1.531695
     29          1           0       -5.603117    0.508120   -2.411130
     30          6           0       -5.623476    2.450828    0.289581
     31          6           0       -6.995794    2.184120    0.024910
     32          6           0       -5.291550    3.287917    1.377196
     33          1           0       -4.257575    3.564235    1.575546
     34          7           0       -7.043854    1.370645   -1.089445
     35          1           0       -7.887750    1.063504   -1.550793
     36          6           0       -7.666153    3.516380    1.884696
     37          1           0       -8.442021    3.943114    2.512703
     38          6           0       -8.025610    2.709704    0.811793
     39          1           0       -9.068530    2.500877    0.591621
     40          6           0       -6.314390    3.806391    2.163117
     41          1           0       -6.072896    4.465251    2.991883
     42          7           0       -0.485563    0.016500   -0.800914
     43          1           0       -0.985737   -0.652801   -1.375121
     44          6           0        0.906326   -0.316665   -0.503148
     45          1           0        1.256268    0.473385    0.168982
     46          6           0        1.804589   -0.299558   -1.758650
     47          6           0        1.022167   -1.686473    0.220708
     48          1           0        1.088844   -2.477865   -0.533630
     49          8           0        2.788280   -1.029548   -1.830587
     50          6           0        2.218881   -1.753927    1.157279
     51          1           0        3.134805   -1.599257    0.582135
     52          1           0        2.286063   -2.737843    1.637070
     53          1           0        2.146882   -0.987415    1.936728
     54          8           0       -0.229073   -1.906498    0.951910
     55          1           0       -0.125995   -2.747675    1.427472
     56          7           0        1.435270    0.575580   -2.718886
     57          1           0        0.643701    1.194994   -2.584476
     58          6           0        2.241818    0.819606   -3.910901
     59          1           0        3.298291    0.864584   -3.624477
     60          6           0        1.802371    2.183075   -4.432337
     61          6           0        2.059824   -0.307360   -4.962324
     62          1           0        1.026744   -0.277775   -5.334457
     63          1           0        2.176820   -1.246502   -4.410300
     64          8           0        0.761540    2.723377   -4.114429
     65          6           0        3.058535   -0.284105   -6.126168
     66          1           0        2.942956    0.635355   -6.712174
     67          1           0        4.085667   -0.278895   -5.740423
     68          6           0        2.880427   -1.502430   -7.039539
     69          1           0        3.046655   -2.425038   -6.478818
     70          1           0        1.840011   -1.544066   -7.406270
     71          7           0        3.836301   -1.475430   -8.149083
     72          1           0        3.650814   -0.727954   -8.809092
     73          7           0        4.484372   -3.719081   -7.945374
     74          1           0        4.869010   -4.497615   -8.470228
     75          1           0        5.082956   -3.470810   -7.163328
     76          7           0        4.373052   -2.811851  -10.074754
     77          1           0        4.015903   -2.010187  -10.598753
     78          6           0        4.224818   -2.651261   -8.811885
     79          8           0        2.682799    2.713130   -5.293466
     80          1           0        2.316911    3.567546   -5.595355
     81          1           0       -1.253564   -0.990893    1.883442
 ---------------------------------------------------------------------
 Rotational constants (GHZ):           0.1165505           0.0282729           0.0248718
 Standard basis: 6-31G(d) (6D, 7F)
   708 basis functions,  1332 primitive gaussians,   708 cartesian basis functions
   157 alpha electrons      157 beta electrons
       nuclear repulsion energy      4930.5258974032 Hartrees.
 NAtoms=   81 NActive=   81 NUniq=   81 SFac= 1.00D+00 NAtFMM=   60 NAOKFM=T Big=T
 Integral buffers will be    131072 words long.
 Raffenetti 2 integral format.
 Two-electron integral symmetry is turned off.
 One-electron integrals computed using PRISM.
 NBasis=   708 RedAO= T EigKep=  3.80D-04  NBF=   708
 NBsUse=   708 1.00D-06 EigRej= -1.00D+00 NBFU=   708
 Initial guess from the checkpoint file:  "conf-602.chk"
 B after Tr=     0.000000    0.000000    0.000000
         Rot=    1.000000    0.000000    0.000000    0.000000 Ang=   0.00 deg.
 Requested convergence on RMS density matrix=1.00D-08 within 128 cycles.
 Requested convergence on MAX density matrix=1.00D-06.
 Requested convergence on             energy=1.00D-06.
 No special actions if energy rises.
 SCF Done:  E(RB3LYP) =  -2053.88983240     A.U. after    1 cycles
            NFock=  1  Conv=0.63D-08     -V/T= 2.0093

 **********************************************************************

            Population analysis using the SCF Density.

 **********************************************************************

 Alpha  occ. eigenvalues --  -19.36224 -19.30981 -19.29740 -19.26194 -19.24289
 Alpha  occ. eigenvalues --  -19.24281 -19.22017 -19.19013 -14.55429 -14.50339
 Alpha  occ. eigenvalues --  -14.49409 -14.47523 -14.46328 -14.40048 -14.38423
 Alpha  occ. eigenvalues --  -14.32996 -10.48687 -10.43366 -10.42266 -10.39694
 Alpha  occ. eigenvalues --  -10.39599 -10.38354 -10.37976 -10.37286 -10.35821
 Alpha  occ. eigenvalues --  -10.33775 -10.33722 -10.33625 -10.33034 -10.32426
 Alpha  occ. eigenvalues --  -10.31921 -10.30417 -10.30152 -10.29849 -10.29522
 Alpha  occ. eigenvalues --  -10.29296 -10.28877 -10.28824 -10.28502 -10.28330
 Alpha  occ. eigenvalues --  -10.27987 -10.26022  -1.26401  -1.20831  -1.18559
 Alpha  occ. eigenvalues --   -1.16956  -1.15340  -1.14112  -1.12359  -1.11864
 Alpha  occ. eigenvalues --   -1.09345  -1.07288  -1.06754  -1.04572  -1.02807
 Alpha  occ. eigenvalues --   -1.01989  -0.95644  -0.94609  -0.93557  -0.91154
 Alpha  occ. eigenvalues --   -0.90779  -0.89121  -0.88876  -0.88169  -0.85379
 Alpha  occ. eigenvalues --   -0.84476  -0.83867  -0.82792  -0.81517  -0.79806
 Alpha  occ. eigenvalues --   -0.79399  -0.75902  -0.74941  -0.74296  -0.74011
 Alpha  occ. eigenvalues --   -0.73241  -0.72510  -0.71409  -0.70238  -0.68903
 Alpha  occ. eigenvalues --   -0.68569  -0.67221  -0.67063  -0.66712  -0.66303
 Alpha  occ. eigenvalues --   -0.65477  -0.64960  -0.64701  -0.64411  -0.62746
 Alpha  occ. eigenvalues --   -0.60886  -0.60646  -0.60064  -0.59647  -0.59582
 Alpha  occ. eigenvalues --   -0.59266  -0.58928  -0.58740  -0.58035  -0.57419
 Alpha  occ. eigenvalues --   -0.56915  -0.56482  -0.56199  -0.55865  -0.55451
 Alpha  occ. eigenvalues --   -0.55281  -0.54625  -0.54294  -0.54002  -0.53540
 Alpha  occ. eigenvalues --   -0.53407  -0.53197  -0.52819  -0.52758  -0.52222
 Alpha  occ. eigenvalues --   -0.51807  -0.51301  -0.50763  -0.50512  -0.50064
 Alpha  occ. eigenvalues --   -0.49797  -0.49754  -0.49521  -0.49198  -0.49020
 Alpha  occ. eigenvalues --   -0.48862  -0.48477  -0.47339  -0.47111  -0.46607
 Alpha  occ. eigenvalues --   -0.46174  -0.45959  -0.45744  -0.45681  -0.44694
 Alpha  occ. eigenvalues --   -0.44568  -0.44220  -0.43784  -0.43410  -0.42351
 Alpha  occ. eigenvalues --   -0.42320  -0.41050  -0.40756  -0.40637  -0.39716
 Alpha  occ. eigenvalues --   -0.39471  -0.38783  -0.38011  -0.36918  -0.35826
 Alpha  occ. eigenvalues --   -0.35550  -0.33376  -0.32651  -0.31702  -0.31180
 Alpha  occ. eigenvalues --   -0.30031  -0.27380
 Alpha virt. eigenvalues --   -0.17643  -0.13588  -0.12290  -0.09501  -0.08944
 Alpha virt. eigenvalues --   -0.08468  -0.07466  -0.05940  -0.05497  -0.04791
 Alpha virt. eigenvalues --   -0.04286  -0.02657  -0.02285  -0.01941  -0.01561
 Alpha virt. eigenvalues --   -0.00893  -0.00225  -0.00041   0.00686   0.00787
 Alpha virt. eigenvalues --    0.01179   0.01586   0.01667   0.01914   0.02665
 Alpha virt. eigenvalues --    0.02835   0.03208   0.03711   0.03749   0.03953
 Alpha virt. eigenvalues --    0.04226   0.04443   0.04878   0.05104   0.05449
 Alpha virt. eigenvalues --    0.06028   0.06078   0.06502   0.06721   0.07261
 Alpha virt. eigenvalues --    0.07440   0.07692   0.08460   0.08653   0.08734
 Alpha virt. eigenvalues --    0.09280   0.09608   0.09879   0.10251   0.10478
 Alpha virt. eigenvalues --    0.10588   0.10870   0.11083   0.11305   0.12091
 Alpha virt. eigenvalues --    0.12236   0.12365   0.13118   0.13227   0.13561
 Alpha virt. eigenvalues --    0.13700   0.13972   0.15252   0.15495   0.15949
 Alpha virt. eigenvalues --    0.16267   0.16622   0.17064   0.17645   0.18356
 Alpha virt. eigenvalues --    0.19142   0.19899   0.20968   0.21428   0.21518
 Alpha virt. eigenvalues --    0.22621   0.22801   0.23546   0.23946   0.24819
 Alpha virt. eigenvalues --    0.26164   0.26478   0.28751   0.29238   0.29592
 Alpha virt. eigenvalues --    0.30075   0.31542   0.32289   0.34024   0.34812
 Alpha virt. eigenvalues --    0.37283   0.37300   0.39260   0.39704   0.39941
 Alpha virt. eigenvalues --    0.40493   0.40701   0.40755   0.41102   0.41691
 Alpha virt. eigenvalues --    0.42014   0.42247   0.42499   0.42821   0.43003
 Alpha virt. eigenvalues --    0.43320   0.43829   0.44736   0.45195   0.45246
 Alpha virt. eigenvalues --    0.45755   0.46199   0.46958   0.47293   0.47525
 Alpha virt. eigenvalues --    0.47797   0.48251   0.48969   0.49315   0.49592
 Alpha virt. eigenvalues --    0.49826   0.50588   0.51064   0.51148   0.51388
 Alpha virt. eigenvalues --    0.51781   0.51980   0.52167   0.52250   0.52815
 Alpha virt. eigenvalues --    0.52823   0.53843   0.54223   0.54411   0.55105
 Alpha virt. eigenvalues --    0.55377   0.55888   0.56253   0.56430   0.56763
 Alpha virt. eigenvalues --    0.57479   0.57577   0.57679   0.58150   0.59053
 Alpha virt. eigenvalues --    0.59281   0.60222   0.60646   0.61698   0.62396
 Alpha virt. eigenvalues --    0.63107   0.63769   0.64100   0.64644   0.65332
 Alpha virt. eigenvalues --    0.65611   0.65933   0.66272   0.66480   0.67550
 Alpha virt. eigenvalues --    0.67716   0.67935   0.68289   0.68582   0.69198
 Alpha virt. eigenvalues --    0.69390   0.70045   0.70560   0.70629   0.71009
 Alpha virt. eigenvalues --    0.71227   0.72145   0.72286   0.72362   0.72916
 Alpha virt. eigenvalues --    0.73098   0.73497   0.74120   0.74198   0.74769
 Alpha virt. eigenvalues --    0.74991   0.75197   0.75426   0.75908   0.76101
 Alpha virt. eigenvalues --    0.76437   0.77043   0.77215   0.77458   0.77848
 Alpha virt. eigenvalues --    0.78031   0.78572   0.78940   0.79228   0.79394
 Alpha virt. eigenvalues --    0.79865   0.80162   0.80770   0.80913   0.81331
 Alpha virt. eigenvalues --    0.81637   0.81827   0.82070   0.82245   0.82451
 Alpha virt. eigenvalues --    0.82598   0.83535   0.83945   0.84289   0.84743
 Alpha virt. eigenvalues --    0.85063   0.85782   0.85830   0.85984   0.86123
 Alpha virt. eigenvalues --    0.86724   0.87085   0.87348   0.87663   0.88407
 Alpha virt. eigenvalues --    0.88620   0.88736   0.89191   0.89749   0.90034
 Alpha virt. eigenvalues --    0.90816   0.91879   0.92411   0.92827   0.93862
 Alpha virt. eigenvalues --    0.94477   0.94691   0.95757   0.96261   0.97188
 Alpha virt. eigenvalues --    0.97884   0.98712   0.98891   0.99170   1.00181
 Alpha virt. eigenvalues --    1.00694   1.00895   1.01813   1.02561   1.02798
 Alpha virt. eigenvalues --    1.03268   1.04340   1.05174   1.06259   1.06412
 Alpha virt. eigenvalues --    1.07418   1.08054   1.09249   1.10387   1.10596
 Alpha virt. eigenvalues --    1.11470   1.12187   1.12647   1.14325   1.14699
 Alpha virt. eigenvalues --    1.15096   1.15616   1.16419   1.17293   1.17519
 Alpha virt. eigenvalues --    1.20180   1.20944   1.21520   1.22341   1.22357
 Alpha virt. eigenvalues --    1.22994   1.23325   1.24596   1.25198   1.25944
 Alpha virt. eigenvalues --    1.26467   1.27281   1.28758   1.29162   1.30017
 Alpha virt. eigenvalues --    1.30425   1.30858   1.31156   1.32482   1.32687
 Alpha virt. eigenvalues --    1.32886   1.34123   1.34616   1.35108   1.35673
 Alpha virt. eigenvalues --    1.35694   1.36955   1.37871   1.39689   1.39928
 Alpha virt. eigenvalues --    1.40110   1.41264   1.41530   1.42131   1.42289
 Alpha virt. eigenvalues --    1.43168   1.43541   1.44983   1.46217   1.46678
 Alpha virt. eigenvalues --    1.48222   1.49508   1.49742   1.51059   1.51937
 Alpha virt. eigenvalues --    1.51989   1.53068   1.53964   1.54414   1.54849
 Alpha virt. eigenvalues --    1.56001   1.56959   1.57723   1.58498   1.59392
 Alpha virt. eigenvalues --    1.59852   1.61164   1.61540   1.61924   1.63004
 Alpha virt. eigenvalues --    1.63198   1.64310   1.65023   1.65979   1.66255
 Alpha virt. eigenvalues --    1.66668   1.67489   1.68210   1.68376   1.68746
 Alpha virt. eigenvalues --    1.69351   1.69720   1.70389   1.70936   1.71333
 Alpha virt. eigenvalues --    1.71537   1.72398   1.72951   1.74102   1.74501
 Alpha virt. eigenvalues --    1.74792   1.75034   1.75310   1.75739   1.75845
 Alpha virt. eigenvalues --    1.76577   1.77545   1.77761   1.78042   1.79262
 Alpha virt. eigenvalues --    1.79369   1.79556   1.80598   1.80670   1.81268
 Alpha virt. eigenvalues --    1.81789   1.82140   1.82665   1.83025   1.83694
 Alpha virt. eigenvalues --    1.84028   1.84227   1.84431   1.84731   1.85125
 Alpha virt. eigenvalues --    1.86115   1.86407   1.86938   1.87370   1.88442
 Alpha virt. eigenvalues --    1.88924   1.89346   1.90017   1.90683   1.91103
 Alpha virt. eigenvalues --    1.92031   1.92742   1.93162   1.93898   1.95169
 Alpha virt. eigenvalues --    1.96114   1.96507   1.96786   1.97504   1.97745
 Alpha virt. eigenvalues --    1.97974   1.98614   1.99885   2.00250   2.00659
 Alpha virt. eigenvalues --    2.01409   2.02478   2.03761   2.04072   2.04163
 Alpha virt. eigenvalues --    2.05425   2.06093   2.06547   2.07666   2.08243
 Alpha virt. eigenvalues --    2.09173   2.09446   2.11494   2.12581   2.13109
 Alpha virt. eigenvalues --    2.14344   2.14600   2.15114   2.15977   2.16353
 Alpha virt. eigenvalues --    2.17611   2.17990   2.19078   2.20323   2.21248
 Alpha virt. eigenvalues --    2.21674   2.22201   2.23354   2.23774   2.25482
 Alpha virt. eigenvalues --    2.25787   2.26169   2.26871   2.28009   2.28591
 Alpha virt. eigenvalues --    2.29577   2.30457   2.30729   2.31124   2.31929
 Alpha virt. eigenvalues --    2.32817   2.33805   2.34170   2.34332   2.35418
 Alpha virt. eigenvalues --    2.36686   2.37877   2.38405   2.38931   2.39878
 Alpha virt. eigenvalues --    2.40538   2.41851   2.42086   2.42560   2.42986
 Alpha virt. eigenvalues --    2.44290   2.45319   2.46286   2.47184   2.47573
 Alpha virt. eigenvalues --    2.48022   2.50019   2.50859   2.51709   2.51986
 Alpha virt. eigenvalues --    2.53294   2.53974   2.54649   2.55180   2.55751
 Alpha virt. eigenvalues --    2.56850   2.57410   2.58200   2.58634   2.58873
 Alpha virt. eigenvalues --    2.60070   2.60915   2.62318   2.63471   2.63987
 Alpha virt. eigenvalues --    2.65779   2.66472   2.67199   2.67632   2.69359
 Alpha virt. eigenvalues --    2.69890   2.70602   2.71162   2.73263   2.73766
 Alpha virt. eigenvalues --    2.74304   2.76088   2.76322   2.77281   2.78680
 Alpha virt. eigenvalues --    2.79406   2.81661   2.83484   2.86591   2.87761
 Alpha virt. eigenvalues --    2.88545   2.89739   2.91745   2.92046   2.94293
 Alpha virt. eigenvalues --    2.97785   2.99260   3.01202   3.01521   3.02881
 Alpha virt. eigenvalues --    3.05030   3.10328   3.13033   3.32854   3.73186
 Alpha virt. eigenvalues --    3.74394   3.77356   3.80179   3.83906   3.86731
 Alpha virt. eigenvalues --    3.87846   3.91352   3.92756   3.94400   3.96549
 Alpha virt. eigenvalues --    3.99204   3.99920   4.01822   4.03741   4.06494
 Alpha virt. eigenvalues --    4.07950   4.08824   4.09677   4.11090   4.12724
 Alpha virt. eigenvalues --    4.15036   4.15860   4.19393   4.20048   4.23295
 Alpha virt. eigenvalues --    4.23939   4.26085   4.26771   4.28916   4.31100
 Alpha virt. eigenvalues --    4.31889   4.39156   4.43427   4.44022   4.46490
 Alpha virt. eigenvalues --    4.48304   4.51241   4.53624   4.55827   4.58377
 Alpha virt. eigenvalues --    4.68352
          Condensed to atoms (all electrons):
 Mulliken charges:
               1
     1  N   -0.746359
     2  H    0.341775
     3  H    0.352176
     4  H    0.448051
     5  C   -0.079383
     6  H    0.189006
     7  C    0.655010
     8  C   -0.291557
     9  H    0.189833
    10  H    0.181917
    11  O   -0.593688
    12  C   -0.386486
    13  H    0.169498
    14  H    0.200380
    15  C    0.583047
    16  O   -0.428781
    17  O   -0.588433
    18  N   -0.589212
    19  H    0.396884
    20  C   -0.038725
    21  H    0.184217
    22  C    0.581921
    23  C   -0.395591
    24  H    0.188940
    25  H    0.203569
    26  O   -0.492994
    27  C    0.040967
    28  C    0.017154
    29  H    0.172795
    30  C    0.041928
    31  C    0.320965
    32  C   -0.250422
    33  H    0.143057
    34  N   -0.680203
    35  H    0.351645
    36  C   -0.149859
    37  H    0.160210
    38  C   -0.152651
    39  H    0.156596
    40  C   -0.137093
    41  H    0.153172
    42  N   -0.608197
    43  H    0.342915
    44  C   -0.102317
    45  H    0.229121
    46  C    0.624272
    47  C    0.144907
    48  H    0.173177
    49  O   -0.518738
    50  C   -0.487864
    51  H    0.218629
    52  H    0.159012
    53  H    0.169846
    54  O   -0.689776
    55  H    0.429580
    56  N   -0.626473
    57  H    0.358628
    58  C   -0.020950
    59  H    0.203151
    60  C    0.583014
    61  C   -0.279106
    62  H    0.141995
    63  H    0.177291
    64  O   -0.472399
    65  C   -0.269496
    66  H    0.150373
    67  H    0.158976
    68  C   -0.133400
    69  H    0.173481
    70  H    0.134480
    71  N   -0.595773
    72  H    0.309048
    73  N   -0.735815
    74  H    0.341621
    75  H    0.320456
    76  N   -0.620744
    77  H    0.264488
    78  C    0.548889
    79  O   -0.547600
    80  H    0.428492
    81  H    0.499529
 Sum of Mulliken charges =   1.00000
 Mulliken charges with hydrogens summed into heavy atoms:
               1
     1  N   -0.052408
     5  C    0.109623
     7  C    0.655010
     8  C    0.080193
    11  O   -0.094160
    12  C   -0.016608
    15  C    0.583047
    16  O   -0.428781
    17  O   -0.140382
    18  N   -0.192328
    20  C    0.145493
    22  C    0.581921
    23  C   -0.003083
    26  O   -0.492994
    27  C    0.040967
    28  C    0.189949
    30  C    0.041928
    31  C    0.320965
    32  C   -0.107365
    34  N   -0.328558
    36  C    0.010351
    38  C    0.003944
    40  C    0.016080
    42  N   -0.265282
    44  C    0.126804
    46  C    0.624272
    47  C    0.318084
    49  O   -0.518738
    50  C    0.059624
    54  O   -0.260196
    56  N   -0.267845
    58  C    0.182201
    60  C    0.583014
    61  C    0.040180
    64  O   -0.472399
    65  C    0.039853
    68  C    0.174561
    71  N   -0.286725
    73  N   -0.073738
    76  N   -0.356256
    78  C    0.548889
    79  O   -0.119108
 Electronic spatial extent (au):  <R**2>=          43433.6758
 Charge=              1.0000 electrons
 Dipole moment (field-independent basis, Debye):
    X=            -15.9392    Y=             -0.0668    Z=             -3.6621  Tot=             16.3546
 Quadrupole moment (field-independent basis, Debye-Ang):
   XX=           -134.0735   YY=           -227.1555   ZZ=           -288.5911
   XY=             -1.8101   XZ=              5.7192   YZ=            -43.4998
 Traceless Quadrupole moment (field-independent basis, Debye-Ang):
   XX=             82.5332   YY=            -10.5488   ZZ=            -71.9844
   XY=             -1.8101   XZ=              5.7192   YZ=            -43.4998
 Octapole moment (field-independent basis, Debye-Ang**2):
  XXX=             91.5552  YYY=           -347.2716  ZZZ=             83.7660  XYY=            281.9650
  XXY=             16.7904  XXZ=            221.7973  XZZ=            222.8384  YZZ=             75.3280
  YYZ=            207.8239  XYZ=           -112.3226
 Hexadecapole moment (field-independent basis, Debye-Ang**3):
 XXXX=         -15633.8385 YYYY=          -5177.6651 ZZZZ=         -38626.4645 XXXY=           2617.3649
 XXXZ=           7631.8640 YYYX=           3760.2474 YYYZ=          -2648.1346 ZZZX=          10834.2887
 ZZZY=          -6672.7430 XXYY=          -4099.5086 XXZZ=          -9124.1720 YYZZ=          -6309.6202
 XXYZ=           -836.1200 YYXZ=           2201.0430 ZZXY=           2538.5099
 N-N= 4.930525897403D+03 E-N=-1.461616434521D+04  KE= 2.034970600746D+03
 Unable to Open any file for archive entry.
 1\1\GINC-LAC-304\SP\RB3LYP\6-31G(d)\C26H39N8O8(1+)\KENGMITH\26-May-202
 2\0\\# B3LYP/6-31G* guess=read geom=check nosymm integral(ultrafinegri
 d)\\Candidate Structure: Conf:602 Charge calc in gas phase\\1,1\N,0,-3
 .8364553262,-0.7507034191,4.6778846655\H,0,-4.5721223943,-1.3445160205
 ,4.2999972645\H,0,-3.0013435705,-1.321903114,4.8031924563\H,0,-3.87846
 91525,-0.1469770776,6.4309083872\C,0,-3.5610560274,0.4054188826,3.8309
 375814\H,0,-4.5192991512,0.8778349841,3.5867471916\C,0,-2.8670542076,0
 .0426639325,2.5216950243\C,0,-2.6793308259,1.4469760466,4.5666771614\H
 ,0,-1.7461816041,0.964565584,4.8814725184\H,0,-2.3914610958,2.21566354
 51,3.8403183222\O,0,-1.8655532442,-0.766128085,2.6576465607\C,0,-3.380
 8623735,2.1316587317,5.7657815913\H,0,-4.462983268,2.1939604287,5.5839
 121969\H,0,-3.0118703667,3.1549717716,5.8547275196\C,0,-3.1435752373,1
 .4904573917,7.1420697467\O,0,-2.6567211297,2.1095263427,8.0556183497\O
 ,0,-3.5162612999,0.2046399242,7.2800079665\N,0,-3.306619371,0.56590726
 63,1.4016871155\H,0,-4.1484608842,1.1398817315,1.4863599524\C,0,-2.737
 8014809,0.5255433544,0.0425089877\H,0,-3.0068302277,-0.4371054195,-0.4
 078646344\C,0,-1.2110216447,0.6857163709,0.1439763686\C,0,-3.358983407
 1,1.6817128878,-0.8010549818\H,0,-3.0267545143,1.5342923558,-1.8340613
 863\H,0,-2.9114581783,2.621762313,-0.4577680986\O,0,-0.7178428104,1.36
 74572462,1.030529355\C,0,-4.8553507991,1.7491568808,-0.7168191743\C,0,
 -5.7673615532,1.116480091,-1.5316954668\H,0,-5.6031166717,0.5081202695
 ,-2.4111297547\C,0,-5.6234759646,2.4508282515,0.2895812825\C,0,-6.9957
 942376,2.1841200217,0.0249102922\C,0,-5.2915501282,3.2879167705,1.3771
 959135\H,0,-4.2575747568,3.5642353205,1.57554596\N,0,-7.0438542571,1.3
 70644951,-1.0894448966\H,0,-7.8877502768,1.0635042904,-1.5507925978\C,
 0,-7.666153449,3.5163796181,1.8846964804\H,0,-8.4420211664,3.943114067
 ,2.5127026783\C,0,-8.0256096006,2.709704129,0.811792816\H,0,-9.0685301
 589,2.5008766909,0.5916214982\C,0,-6.3143898817,3.8063909287,2.1631168
 341\H,0,-6.0728959835,4.4652510398,2.991882937\N,0,-0.4855633788,0.016
 4999434,-0.8009141068\H,0,-0.9857368667,-0.6528012599,-1.3751205789\C,
 0,0.906325648,-0.3166653163,-0.5031476056\H,0,1.2562677346,0.473384813
 1,0.1689816413\C,0,1.8045893203,-0.2995576157,-1.7586503618\C,0,1.0221
 67061,-1.68647259,0.220708125\H,0,1.088844335,-2.4778652966,-0.5336300
 742\O,0,2.788280074,-1.0295477873,-1.8305866769\C,0,2.2188811975,-1.75
 39271057,1.1572791448\H,0,3.1348054244,-1.5992574709,0.5821354613\H,0,
 2.2860630281,-2.7378427304,1.6370704943\H,0,2.1468820262,-0.9874150624
 ,1.9367283624\O,0,-0.2290729826,-1.9064981381,0.9519099786\H,0,-0.1259
 949068,-2.7476754137,1.4274724465\N,0,1.4352702301,0.5755798705,-2.718
 8864318\H,0,0.6437011262,1.1949936194,-2.5844759316\C,0,2.241817553,0.
 8196062234,-3.9109009328\H,0,3.2982914751,0.8645838019,-3.6244774052\C
 ,0,1.8023709184,2.1830752829,-4.4323372521\C,0,2.059824389,-0.30736019
 9,-4.9623238592\H,0,1.0267440353,-0.2777746973,-5.334457305\H,0,2.1768
 202048,-1.2465017126,-4.4102999343\O,0,0.7615404313,2.7233767543,-4.11
 44289585\C,0,3.0585354168,-0.2841051248,-6.1261677999\H,0,2.9429559566
 ,0.6353553512,-6.7121735339\H,0,4.0856669897,-0.2788952401,-5.74042336
 64\C,0,2.8804273583,-1.5024295249,-7.0395386652\H,0,3.04665464,-2.4250
 381566,-6.4788177883\H,0,1.840011269,-1.5440657387,-7.4062698144\N,0,3
 .8363009241,-1.475430361,-8.1490825541\H,0,3.6508136074,-0.7279537731,
 -8.8090917594\N,0,4.4843718246,-3.7190807002,-7.9453741052\H,0,4.86900
 99381,-4.4976148212,-8.470227577\H,0,5.0829557443,-3.4708104176,-7.163
 3284594\N,0,4.3730515779,-2.8118510534,-10.0747539641\H,0,4.0159028975
 ,-2.0101872611,-10.598752935\C,0,4.2248176039,-2.6512607338,-8.8118854
 363\O,0,2.6827992431,2.713130479,-5.2934663497\H,0,2.3169111584,3.5675
 462258,-5.5953547657\H,0,-1.2535644186,-0.990892739,1.8834419303\\Vers
 ion=ES64L-G16RevC.01\HF=-2053.8898324\RMSD=6.253e-09\Dipole=-4.0581808
 ,-0.9014256,-0.2990002\Quadrupole=61.3613809,-7.8427662,-53.5186148,-1
 .3457755,4.2520863,-32.3410684\PG=C01 [X(C26H39N8O8)]\\@
 The archive entry for this job was punched.


 TOM, TOM, THE BURGLAR'S SON
 STOLE A MACHINE AND AWAY HE RUN
 THE JOB WAS NEAT, BUT TOM GOT BEAT
 BY THE TIME HE GOT HOME IT WAS OBSOLETE.
 Job cpu time:       0 days  0 hours  1 minutes 58.8 seconds.
 Elapsed time:       0 days  0 hours  0 minutes 30.4 seconds.
 File lengths (MBytes):  RWF=    376 Int=      0 D2E=      0 Chk=     56 Scr=     16
 Normal termination of Gaussian 16 at Thu May 26 18:14:19 2022.
