 Entering Gaussian System, Link 0=/opt/software/Gaussian/g16-AVX2-C.01/g16/g16
 Input=charge-conf-883.com
 Output=charge-conf-883.log
 Initial command:
 /opt/software/Gaussian/g16-AVX2-C.01/g16/l1.exe "/mnt/gs18/scratch/users/kengmith/Gau-64762.inp" -scrdir="/mnt/gs18/scratch/users/kengmith/"
 Entering Link 1 = /opt/software/Gaussian/g16-AVX2-C.01/g16/l1.exe PID=     64772.
  
 Copyright (c) 1988-2019, Gaussian, Inc.  All Rights Reserved.
  
 This is part of the Gaussian(R) 16 program.  It is based on
 the Gaussian(R) 09 system (copyright 2009, Gaussian, Inc.),
 the Gaussian(R) 03 system (copyright 2003, Gaussian, Inc.),
 the Gaussian(R) 98 system (copyright 1998, Gaussian, Inc.),
 the Gaussian(R) 94 system (copyright 1995, Gaussian, Inc.),
 the Gaussian 92(TM) system (copyright 1992, Gaussian, Inc.),
 the Gaussian 90(TM) system (copyright 1990, Gaussian, Inc.),
 the Gaussian 88(TM) system (copyright 1988, Gaussian, Inc.),
 the Gaussian 86(TM) system (copyright 1986, Carnegie Mellon
 University), and the Gaussian 82(TM) system (copyright 1983,
 Carnegie Mellon University). Gaussian is a federally registered
 trademark of Gaussian, Inc.
  
 This software contains proprietary and confidential information,
 including trade secrets, belonging to Gaussian, Inc.
  
 This software is provided under written license and may be
 used, copied, transmitted, or stored only in accord with that
 written license.
  
 The following legend is applicable only to US Government
 contracts under FAR:
  
                    RESTRICTED RIGHTS LEGEND
  
 Use, reproduction and disclosure by the US Government is
 subject to restrictions as set forth in subparagraphs (a)
 and (c) of the Commercial Computer Software - Restricted
 Rights clause in FAR 52.227-19.
  
 Gaussian, Inc.
 340 Quinnipiac St., Bldg. 40, Wallingford CT 06492
  
  
 ---------------------------------------------------------------
 Warning -- This program may not be used in any manner that
 competes with the business of Gaussian, Inc. or will provide
 assistance to any competitor of Gaussian, Inc.  The licensee
 of this program is prohibited from giving any competitor of
 Gaussian, Inc. access to this program.  By using this program,
 the user acknowledges that Gaussian, Inc. is engaged in the
 business of creating and licensing software in the field of
 computational chemistry and represents and warrants to the
 licensee that it is not a competitor of Gaussian, Inc. and that
 it will not use this program in any manner prohibited above.
 ---------------------------------------------------------------
  

 Cite this work as:
 Gaussian 16, Revision C.01,
 M. J. Frisch, G. W. Trucks, H. B. Schlegel, G. E. Scuseria, 
 M. A. Robb, J. R. Cheeseman, G. Scalmani, V. Barone, 
 G. A. Petersson, H. Nakatsuji, X. Li, M. Caricato, A. V. Marenich, 
 J. Bloino, B. G. Janesko, R. Gomperts, B. Mennucci, H. P. Hratchian, 
 J. V. Ortiz, A. F. Izmaylov, J. L. Sonnenberg, D. Williams-Young, 
 F. Ding, F. Lipparini, F. Egidi, J. Goings, B. Peng, A. Petrone, 
 T. Henderson, D. Ranasinghe, V. G. Zakrzewski, J. Gao, N. Rega, 
 G. Zheng, W. Liang, M. Hada, M. Ehara, K. Toyota, R. Fukuda, 
 J. Hasegawa, M. Ishida, T. Nakajima, Y. Honda, O. Kitao, H. Nakai, 
 T. Vreven, K. Throssell, J. A. Montgomery, Jr., J. E. Peralta, 
 F. Ogliaro, M. J. Bearpark, J. J. Heyd, E. N. Brothers, K. N. Kudin, 
 V. N. Staroverov, T. A. Keith, R. Kobayashi, J. Normand, 
 K. Raghavachari, A. P. Rendell, J. C. Burant, S. S. Iyengar, 
 J. Tomasi, M. Cossi, J. M. Millam, M. Klene, C. Adamo, R. Cammi, 
 J. W. Ochterski, R. L. Martin, K. Morokuma, O. Farkas, 
 J. B. Foresman, and D. J. Fox, Gaussian, Inc., Wallingford CT, 2019.
 
 ******************************************
 Gaussian 16:  ES64L-G16RevC.01  3-Jul-2019
                26-May-2022 
 ******************************************
 %mem=8gb
 %nproc=4
 Will use up to    4 processors via shared memory.
 %chk=conf-883.chk
 -------------------------------------------------------------------
 # B3LYP/6-31G* guess=read geom=check nosymm integral(ultrafinegrid)
 -------------------------------------------------------------------
 1/29=2,38=1,172=1/1;
 2/12=2,15=1,40=1/2;
 3/5=1,6=6,7=1,11=2,14=-4,25=1,30=1,74=-5,75=-5,116=-2/1,2,3;
 4/5=1/1;
 5/5=2,38=6/2;
 6/7=2,8=2,9=2,10=2,28=1/1;
 99/5=1,9=1/99;
 ------------------------------------------------------
 Candidate Structure: Conf:883 Charge calc in gas phase
 ------------------------------------------------------
 Structure from the checkpoint file:  "conf-883.chk"
 Charge =  1 Multiplicity = 1
 Redundant internal coordinates found in file.  (old form).
 N,0,-4.8436934543,-2.0934408527,0.3928733596
 H,0,-5.7681298354,-1.6579002065,0.4944333942
 H,0,-4.7299586467,-2.3729295095,-0.5910515281
 H,0,-4.7944711594,-2.946376186,0.9787983763
 C,0,-3.6904545663,-1.2005452139,0.8189345687
 H,0,-3.9900494571,-0.7139215156,1.7499825914
 C,0,-3.3705009751,-0.2099674774,-0.2576739849
 C,0,-2.4225086537,-2.070753113,1.0436951276
 H,0,-2.049561643,-2.4133937433,0.0706812858
 H,0,-1.6580759301,-1.397213933,1.4382101496
 O,0,-3.6821549738,-0.5730115394,-1.4846080597
 C,0,-2.574332615,-3.2337068346,2.0062342352
 H,0,-3.1341694727,-4.0860354012,1.5979701476
 H,0,-3.0416112018,-2.9263234316,2.9512360806
 C,0,-1.0990779591,-3.8111939286,2.3831535666
 O,0,-1.1467180009,-4.9068241166,2.9330076454
 O,0,-0.1420415753,-3.0527503824,2.0804340845
 N,0,-2.6286172576,0.8199282083,0.0152236999
 H,0,-2.3674921963,1.0663439618,0.993591906
 C,0,-1.5921244424,1.3996455075,-0.8772712642
 H,0,-1.2523166066,0.5987710776,-1.5419381733
 C,0,-0.4624046719,1.679446187,0.1632299205
 C,0,-2.107043467,2.586213627,-1.7110227132
 H,0,-1.2615035488,2.9563447127,-2.3062531161
 H,0,-2.4059562582,3.3951687981,-1.0352016179
 O,0,-0.7980417472,1.8730550156,1.3372656252
 C,0,-3.2686670894,2.1987275861,-2.5953482221
 C,0,-3.196175759,1.6336226934,-3.8597348168
 H,0,-2.3251000926,1.3739185522,-4.4472283781
 C,0,-4.6766780384,2.4293625043,-2.3381866897
 C,0,-5.3916548348,1.979338241,-3.4805334648
 C,0,-5.3938299153,2.9768452053,-1.2572757487
 H,0,-4.8747964981,3.3503152088,-0.3783093572
 N,0,-4.4620298442,1.494474856,-4.3822350064
 H,0,-4.6682731159,1.1609961323,-5.3127901622
 C,0,-7.4656670555,2.5956235041,-2.4865644372
 H,0,-8.5475141201,2.6801342538,-2.5253383503
 C,0,-6.7871854308,2.0505614071,-3.5684942373
 H,0,-7.318111631,1.7068208331,-4.451571125
 C,0,-6.7767640487,3.0562012206,-1.3433736781
 H,0,-7.3418660056,3.4924303408,-0.5249734643
 N,0,0.7883589194,1.5946809377,-0.2919647417
 H,0,0.970305716,1.5307369955,-1.2908885714
 C,0,1.8834265579,1.1504648826,0.5719206574
 H,0,1.7890466475,1.66402094,1.5319436928
 C,0,3.1665263522,1.5159117345,-0.186866333
 C,0,1.8108467997,-0.4071341164,0.7787898714
 H,0,2.3453850544,-0.8618486132,-0.068035396
 O,0,3.2907693256,1.1485052717,-1.3544883623
 C,0,2.4809287948,-0.8122514427,2.0907287241
 H,0,3.5399845704,-0.5283003542,2.1015554273
 H,0,2.4137113361,-1.8959740536,2.2272171496
 H,0,1.9786429216,-0.3358316099,2.9403251661
 O,0,0.4487201693,-0.7980584098,0.7301210535
 H,0,0.3328361141,-1.664830604,1.2040263319
 N,0,4.0924412912,2.2509050479,0.4685113063
 H,0,3.987563952,2.4914584662,1.4481457165
 C,0,5.3612510601,2.6158365771,-0.1519424979
 H,0,5.8346414155,1.7109488992,-0.5529437196
 C,0,6.2497635689,3.1648742616,0.9543603604
 C,0,5.1930075977,3.6093029525,-1.3285353336
 H,0,4.4902074129,3.1436522138,-2.0227633784
 H,0,6.1548396687,3.6779783936,-1.8490197763
 O,0,5.8826918031,3.3635291264,2.093572541
 C,0,4.7212770304,5.0168702169,-0.9269246127
 H,0,4.0197420777,4.9612083261,-0.083209612
 H,0,5.5779854888,5.6066470472,-0.5753401395
 C,0,4.0315447177,5.7838284016,-2.075876828
 H,0,4.1179041351,6.8621890396,-1.9058860473
 H,0,4.5319922583,5.5779598281,-3.0262413383
 N,0,2.5965610907,5.5027489172,-2.2214402276
 H,0,2.0487044549,5.832481104,-1.4360200172
 N,0,2.7400848131,3.898669987,-3.9121869803
 H,0,2.2532238879,3.1429185221,-4.3765808367
 H,0,3.0989198027,4.5971703128,-4.5518891328
 N,0,0.9514943641,3.7933667276,-2.4343756536
 H,0,0.6682414408,4.1686403861,-1.5268943333
 C,0,2.0429641398,4.3804794567,-2.8173184098
 O,0,7.4928679409,3.4221523791,0.5132701563
 H,0,8.0000713648,3.7719805902,1.2710185156
 H,0,-3.4691433414,0.1606424118,-2.1404934499
 Recover connectivity data from disk.
                           ----------------------------
                           !    Current Parameters    !
                           ! (Angstroms and Degrees)  !
 --------------------------                            --------------------------
 ! Name  Definition              Value                                          !
 --------------------------------------------------------------------------------
 ! R1    R(1,2)                  1.0269                                         !
 ! R2    R(1,3)                  1.0292                                         !
 ! R3    R(1,4)                  1.036                                          !
 ! R4    R(1,5)                  1.5195                                         !
 ! R5    R(5,6)                  1.0924                                         !
 ! R6    R(5,7)                  1.4976                                         !
 ! R7    R(5,8)                  1.5542                                         !
 ! R8    R(7,11)                 1.3169                                         !
 ! R9    R(7,18)                 1.2983                                         !
 ! R10   R(8,9)                  1.0969                                         !
 ! R11   R(8,10)                 1.0925                                         !
 ! R12   R(8,12)                 1.5172                                         !
 ! R13   R(11,81)                1.0069                                         !
 ! R14   R(12,13)                1.0984                                         !
 ! R15   R(12,14)                1.0981                                         !
 ! R16   R(12,15)                1.6285                                         !
 ! R17   R(15,16)                1.2268                                         !
 ! R18   R(15,17)                1.2581                                         !
 ! R19   R(18,19)                1.0422                                         !
 ! R20   R(18,20)                1.4856                                         !
 ! R21   R(20,21)                1.0948                                         !
 ! R22   R(20,22)                1.5612                                         !
 ! R23   R(20,23)                1.5389                                         !
 ! R24   R(22,26)                1.2363                                         !
 ! R25   R(22,42)                1.3337                                         !
 ! R26   R(23,24)                1.0983                                         !
 ! R27   R(23,25)                1.0957                                         !
 ! R28   R(23,27)                1.5105                                         !
 ! R29   R(27,28)                1.3868                                         !
 ! R30   R(27,30)                1.4498                                         !
 ! R31   R(28,29)                1.0823                                         !
 ! R32   R(28,34)                1.3765                                         !
 ! R33   R(30,31)                1.4208                                         !
 ! R34   R(30,32)                1.408                                          !
 ! R35   R(31,34)                1.3829                                         !
 ! R36   R(31,38)                1.4001                                         !
 ! R37   R(32,33)                1.0869                                         !
 ! R38   R(32,40)                1.3879                                         !
 ! R39   R(34,35)                1.0098                                         !
 ! R40   R(36,37)                1.0858                                         !
 ! R41   R(36,38)                1.3885                                         !
 ! R42   R(36,40)                1.412                                          !
 ! R43   R(38,39)                1.0862                                         !
 ! R44   R(40,41)                1.086                                          !
 ! R45   R(42,43)                1.0174                                         !
 ! R46   R(42,44)                1.4638                                         !
 ! R47   R(44,45)                1.0928                                         !
 ! R48   R(44,46)                1.5348                                         !
 ! R49   R(44,47)                1.573                                          !
 ! R50   R(46,49)                1.2304                                         !
 ! R51   R(46,56)                1.3517                                         !
 ! R52   R(47,48)                1.0998                                         !
 ! R53   R(47,50)                1.5278                                         !
 ! R54   R(47,54)                1.4179                                         !
 ! R55   R(50,51)                1.0965                                         !
 ! R56   R(50,52)                1.0944                                         !
 ! R57   R(50,53)                1.0959                                         !
 ! R58   R(54,55)                0.9946                                         !
 ! R59   R(56,57)                1.0142                                         !
 ! R60   R(56,58)                1.4588                                         !
 ! R61   R(58,59)                1.0971                                         !
 ! R62   R(58,60)                1.5214                                         !
 ! R63   R(58,61)                1.5491                                         !
 ! R64   R(60,64)                1.2133                                         !
 ! R65   R(60,79)                1.3439                                         !
 ! R66   R(61,62)                1.0921                                         !
 ! R67   R(61,63)                1.0958                                         !
 ! R68   R(61,65)                1.5379                                         !
 ! R69   R(65,66)                1.0987                                         !
 ! R70   R(65,67)                1.0979                                         !
 ! R71   R(65,68)                1.544                                          !
 ! R72   R(68,69)                1.0951                                         !
 ! R73   R(68,70)                1.0936                                         !
 ! R74   R(68,71)                1.4695                                         !
 ! R75   R(71,72)                1.0128                                         !
 ! R76   R(71,78)                1.386                                          !
 ! R77   R(73,74)                1.0119                                         !
 ! R78   R(73,75)                1.0129                                         !
 ! R79   R(73,78)                1.3845                                         !
 ! R80   R(76,77)                1.022                                          !
 ! R81   R(76,78)                1.2972                                         !
 ! R82   R(79,80)                0.9766                                         !
 ! A1    A(2,1,3)              108.0117                                         !
 ! A2    A(2,1,4)              109.6347                                         !
 ! A3    A(2,1,5)              113.9706                                         !
 ! A4    A(3,1,4)              108.1728                                         !
 ! A5    A(3,1,5)              110.1079                                         !
 ! A6    A(4,1,5)              106.808                                          !
 ! A7    A(1,5,6)              107.0135                                         !
 ! A8    A(1,5,7)              110.4428                                         !
 ! A9    A(1,5,8)              109.3126                                         !
 ! A10   A(6,5,7)              112.1262                                         !
 ! A11   A(6,5,8)              110.4812                                         !
 ! A12   A(7,5,8)              107.4591                                         !
 ! A13   A(5,7,11)             115.9044                                         !
 ! A14   A(5,7,18)             119.7153                                         !
 ! A15   A(11,7,18)            123.3499                                         !
 ! A16   A(5,8,9)              108.9046                                         !
 ! A17   A(5,8,10)             106.1326                                         !
 ! A18   A(5,8,12)             116.0581                                         !
 ! A19   A(9,8,10)             105.9613                                         !
 ! A20   A(9,8,12)             110.9367                                         !
 ! A21   A(10,8,12)            108.2683                                         !
 ! A22   A(7,11,81)            110.8521                                         !
 ! A23   A(8,12,13)            114.2028                                         !
 ! A24   A(8,12,14)            111.9607                                         !
 ! A25   A(8,12,15)            109.1473                                         !
 ! A26   A(13,12,14)           108.6737                                         !
 ! A27   A(13,12,15)           105.8176                                         !
 ! A28   A(14,12,15)           106.593                                          !
 ! A29   A(12,15,16)           112.6602                                         !
 ! A30   A(12,15,17)           114.8129                                         !
 ! A31   A(16,15,17)           132.5152                                         !
 ! A32   A(7,18,19)            121.8754                                         !
 ! A33   A(7,18,20)            125.5891                                         !
 ! A34   A(19,18,20)           107.2722                                         !
 ! A35   A(18,20,21)           107.2068                                         !
 ! A36   A(18,20,22)           100.0447                                         !
 ! A37   A(18,20,23)           113.1365                                         !
 ! A38   A(21,20,22)           108.1274                                         !
 ! A39   A(21,20,23)           109.8137                                         !
 ! A40   A(22,20,23)           117.7125                                         !
 ! A41   A(20,22,26)           117.6797                                         !
 ! A42   A(20,22,42)           116.0893                                         !
 ! A43   A(26,22,42)           126.0613                                         !
 ! A44   A(20,23,24)           107.21                                           !
 ! A45   A(20,23,25)           109.0496                                         !
 ! A46   A(20,23,27)           112.1304                                         !
 ! A47   A(24,23,25)           107.1875                                         !
 ! A48   A(24,23,27)           111.1752                                         !
 ! A49   A(25,23,27)           109.9205                                         !
 ! A50   A(23,27,28)           126.7344                                         !
 ! A51   A(23,27,30)           127.0301                                         !
 ! A52   A(28,27,30)           106.0998                                         !
 ! A53   A(27,28,29)           129.4012                                         !
 ! A54   A(27,28,34)           109.8279                                         !
 ! A55   A(29,28,34)           120.6532                                         !
 ! A56   A(27,30,31)           107.2009                                         !
 ! A57   A(27,30,32)           133.8452                                         !
 ! A58   A(31,30,32)           118.9531                                         !
 ! A59   A(30,31,34)           107.2791                                         !
 ! A60   A(30,31,38)           122.41                                           !
 ! A61   A(34,31,38)           130.309                                          !
 ! A62   A(30,32,33)           120.7431                                         !
 ! A63   A(30,32,40)           118.8253                                         !
 ! A64   A(33,32,40)           120.4198                                         !
 ! A65   A(28,34,31)           109.5878                                         !
 ! A66   A(28,34,35)           124.8207                                         !
 ! A67   A(31,34,35)           125.4063                                         !
 ! A68   A(37,36,38)           119.3122                                         !
 ! A69   A(37,36,40)           119.3169                                         !
 ! A70   A(38,36,40)           121.3669                                         !
 ! A71   A(31,38,36)           117.2615                                         !
 ! A72   A(31,38,39)           121.4774                                         !
 ! A73   A(36,38,39)           121.2558                                         !
 ! A74   A(32,40,36)           121.1811                                         !
 ! A75   A(32,40,41)           119.6507                                         !
 ! A76   A(36,40,41)           119.1626                                         !
 ! A77   A(22,42,43)           120.4524                                         !
 ! A78   A(22,42,44)           121.2936                                         !
 ! A79   A(43,42,44)           115.2515                                         !
 ! A80   A(42,44,45)           108.1328                                         !
 ! A81   A(42,44,46)           105.1518                                         !
 ! A82   A(42,44,47)           110.0961                                         !
 ! A83   A(45,44,46)           113.2415                                         !
 ! A84   A(45,44,47)           110.2321                                         !
 ! A85   A(46,44,47)           109.8388                                         !
 ! A86   A(44,46,49)           118.8485                                         !
 ! A87   A(44,46,56)           117.544                                          !
 ! A88   A(49,46,56)           123.5967                                         !
 ! A89   A(44,47,48)           106.6018                                         !
 ! A90   A(44,47,50)           110.8095                                         !
 ! A91   A(44,47,54)           108.2291                                         !
 ! A92   A(48,47,50)           109.7777                                         !
 ! A93   A(48,47,54)           109.055                                          !
 ! A94   A(50,47,54)           112.1903                                         !
 ! A95   A(47,50,51)           111.3098                                         !
 ! A96   A(47,50,52)           110.0438                                         !
 ! A97   A(47,50,53)           110.4505                                         !
 ! A98   A(51,50,52)           108.3328                                         !
 ! A99   A(51,50,53)           108.8101                                         !
 ! A100  A(52,50,53)           107.7976                                         !
 ! A101  A(47,54,55)           109.6225                                         !
 ! A102  A(46,56,57)           121.7682                                         !
 ! A103  A(46,56,58)           121.7094                                         !
 ! A104  A(57,56,58)           116.1964                                         !
 ! A105  A(56,58,59)           108.9302                                         !
 ! A106  A(56,58,60)           106.795                                          !
 ! A107  A(56,58,61)           112.8938                                         !
 ! A108  A(59,58,60)           108.1447                                         !
 ! A109  A(59,58,61)           107.3494                                         !
 ! A110  A(60,58,61)           112.5995                                         !
 ! A111  A(58,60,64)           124.4132                                         !
 ! A112  A(58,60,79)           111.7537                                         !
 ! A113  A(64,60,79)           123.8276                                         !
 ! A114  A(58,61,62)           106.2165                                         !
 ! A115  A(58,61,63)           107.7964                                         !
 ! A116  A(58,61,65)           114.9576                                         !
 ! A117  A(62,61,63)           106.8365                                         !
 ! A118  A(62,61,65)           111.03                                           !
 ! A119  A(63,61,65)           109.6287                                         !
 ! A120  A(61,65,66)           110.4894                                         !
 ! A121  A(61,65,67)           109.6297                                         !
 ! A122  A(61,65,68)           113.4115                                         !
 ! A123  A(66,65,67)           106.2331                                         !
 ! A124  A(66,65,68)           108.1417                                         !
 ! A125  A(67,65,68)           108.6648                                         !
 ! A126  A(65,68,69)           109.7793                                         !
 ! A127  A(65,68,70)           110.4093                                         !
 ! A128  A(65,68,71)           114.5143                                         !
 ! A129  A(69,68,70)           106.5097                                         !
 ! A130  A(69,68,71)           106.3045                                         !
 ! A131  A(70,68,71)           108.9518                                         !
 ! A132  A(68,71,72)           112.9012                                         !
 ! A133  A(68,71,78)           125.9804                                         !
 ! A134  A(72,71,78)           112.3932                                         !
 ! A135  A(74,73,75)           113.3085                                         !
 ! A136  A(74,73,78)           112.3703                                         !
 ! A137  A(75,73,78)           115.9666                                         !
 ! A138  A(77,76,78)           109.2158                                         !
 ! A139  A(71,78,73)           114.8757                                         !
 ! A140  A(71,78,76)           125.1447                                         !
 ! A141  A(73,78,76)           119.9746                                         !
 ! A142  A(60,79,80)           107.1158                                         !
 ! D1    D(2,1,5,6)             43.0073                                         !
 ! D2    D(2,1,5,7)            -79.2971                                         !
 ! D3    D(2,1,5,8)            162.6745                                         !
 ! D4    D(3,1,5,6)            164.5502                                         !
 ! D5    D(3,1,5,7)             42.2458                                         !
 ! D6    D(3,1,5,8)            -75.7826                                         !
 ! D7    D(4,1,5,6)            -78.2213                                         !
 ! D8    D(4,1,5,7)            159.4743                                         !
 ! D9    D(4,1,5,8)             41.4459                                         !
 ! D10   D(1,5,7,11)           -26.328                                          !
 ! D11   D(1,5,7,18)           164.8923                                         !
 ! D12   D(6,5,7,11)          -145.5794                                         !
 ! D13   D(6,5,7,18)            45.6409                                         !
 ! D14   D(8,5,7,11)            92.8307                                         !
 ! D15   D(8,5,7,18)           -75.949                                          !
 ! D16   D(1,5,8,9)             71.629                                          !
 ! D17   D(1,5,8,10)          -174.6902                                         !
 ! D18   D(1,5,8,12)           -54.3799                                         !
 ! D19   D(6,5,8,9)           -170.8639                                         !
 ! D20   D(6,5,8,10)           -57.1831                                         !
 ! D21   D(6,5,8,12)            63.1272                                         !
 ! D22   D(7,5,8,9)            -48.2514                                         !
 ! D23   D(7,5,8,10)            65.4295                                         !
 ! D24   D(7,5,8,12)          -174.2603                                         !
 ! D25   D(5,7,11,81)          177.7435                                         !
 ! D26   D(18,7,11,81)         -13.9286                                         !
 ! D27   D(5,7,18,19)           -9.8175                                         !
 ! D28   D(5,7,18,20)          141.2237                                         !
 ! D29   D(11,7,18,19)        -177.7224                                         !
 ! D30   D(11,7,18,20)         -26.6811                                         !
 ! D31   D(5,8,12,13)           74.7749                                         !
 ! D32   D(5,8,12,14)          -49.2629                                         !
 ! D33   D(5,8,12,15)         -167.0345                                         !
 ! D34   D(9,8,12,13)          -50.2012                                         !
 ! D35   D(9,8,12,14)         -174.239                                          !
 ! D36   D(9,8,12,15)           67.9894                                         !
 ! D37   D(10,8,12,13)        -166.0725                                         !
 ! D38   D(10,8,12,14)          69.8897                                         !
 ! D39   D(10,8,12,15)         -47.882                                          !
 ! D40   D(8,12,15,16)        -166.1506                                         !
 ! D41   D(8,12,15,17)          14.9352                                         !
 ! D42   D(13,12,15,16)        -42.8234                                         !
 ! D43   D(13,12,15,17)        138.2625                                         !
 ! D44   D(14,12,15,16)         72.7494                                         !
 ! D45   D(14,12,15,17)       -106.1648                                         !
 ! D46   D(7,18,20,21)         -25.2326                                         !
 ! D47   D(7,18,20,22)        -137.9157                                         !
 ! D48   D(7,18,20,23)          95.9793                                         !
 ! D49   D(19,18,20,21)        129.263                                          !
 ! D50   D(19,18,20,22)         16.5799                                         !
 ! D51   D(19,18,20,23)       -109.5251                                         !
 ! D52   D(18,20,22,26)        -26.5793                                         !
 ! D53   D(18,20,22,42)        148.9771                                         !
 ! D54   D(21,20,22,26)       -138.5483                                         !
 ! D55   D(21,20,22,42)         37.008                                          !
 ! D56   D(23,20,22,26)         96.3626                                         !
 ! D57   D(23,20,22,42)        -88.081                                          !
 ! D58   D(18,20,23,24)        178.26                                           !
 ! D59   D(18,20,23,25)         62.5239                                         !
 ! D60   D(18,20,23,27)        -59.4509                                         !
 ! D61   D(21,20,23,24)        -62.0118                                         !
 ! D62   D(21,20,23,25)       -177.7478                                         !
 ! D63   D(21,20,23,27)         60.2773                                         !
 ! D64   D(22,20,23,24)         62.2391                                         !
 ! D65   D(22,20,23,25)        -53.4969                                         !
 ! D66   D(22,20,23,27)       -175.4718                                         !
 ! D67   D(20,22,42,43)         11.3236                                         !
 ! D68   D(20,22,42,44)       -148.1456                                         !
 ! D69   D(26,22,42,43)       -173.5452                                         !
 ! D70   D(26,22,42,44)         26.9856                                         !
 ! D71   D(20,23,27,28)        -85.1285                                         !
 ! D72   D(20,23,27,30)         99.7042                                         !
 ! D73   D(24,23,27,28)         34.8761                                         !
 ! D74   D(24,23,27,30)       -140.2912                                         !
 ! D75   D(25,23,27,28)        153.3951                                         !
 ! D76   D(25,23,27,30)        -21.7722                                         !
 ! D77   D(23,27,28,29)         -0.5146                                         !
 ! D78   D(23,27,28,34)       -176.5197                                         !
 ! D79   D(30,27,28,29)        175.4714                                         !
 ! D80   D(30,27,28,34)         -0.5338                                         !
 ! D81   D(23,27,30,31)        176.135                                          !
 ! D82   D(23,27,30,32)         -3.5165                                         !
 ! D83   D(28,27,30,31)          0.1646                                         !
 ! D84   D(28,27,30,32)       -179.4868                                         !
 ! D85   D(27,28,34,31)          0.7188                                         !
 ! D86   D(27,28,34,35)        175.9915                                         !
 ! D87   D(29,28,34,31)       -175.6934                                         !
 ! D88   D(29,28,34,35)         -0.4208                                         !
 ! D89   D(27,30,31,34)          0.2567                                         !
 ! D90   D(27,30,31,38)        179.7961                                         !
 ! D91   D(32,30,31,34)        179.9693                                         !
 ! D92   D(32,30,31,38)         -0.4912                                         !
 ! D93   D(27,30,32,33)          0.9856                                         !
 ! D94   D(27,30,32,40)        179.7371                                         !
 ! D95   D(31,30,32,33)       -178.6338                                         !
 ! D96   D(31,30,32,40)          0.1176                                         !
 ! D97   D(30,31,34,28)         -0.5939                                         !
 ! D98   D(30,31,34,35)       -175.8324                                         !
 ! D99   D(38,31,34,28)        179.916                                          !
 ! D100  D(38,31,34,35)          4.6775                                         !
 ! D101  D(30,31,38,36)          0.498                                          !
 ! D102  D(30,31,38,39)        179.6692                                         !
 ! D103  D(34,31,38,36)        179.9213                                         !
 ! D104  D(34,31,38,39)         -0.9075                                         !
 ! D105  D(30,32,40,36)          0.2217                                         !
 ! D106  D(30,32,40,41)       -178.906                                          !
 ! D107  D(33,32,40,36)        178.9773                                         !
 ! D108  D(33,32,40,41)         -0.1503                                         !
 ! D109  D(37,36,38,31)        179.1235                                         !
 ! D110  D(37,36,38,39)         -0.0497                                         !
 ! D111  D(40,36,38,31)         -0.1461                                         !
 ! D112  D(40,36,38,39)       -179.3193                                         !
 ! D113  D(37,36,40,32)       -179.4814                                         !
 ! D114  D(37,36,40,41)         -0.3496                                         !
 ! D115  D(38,36,40,32)         -0.2118                                         !
 ! D116  D(38,36,40,41)        178.92                                           !
 ! D117  D(22,42,44,45)        -45.1887                                         !
 ! D118  D(22,42,44,46)       -166.4446                                         !
 ! D119  D(22,42,44,47)         75.2958                                         !
 ! D120  D(43,42,44,45)        154.3397                                         !
 ! D121  D(43,42,44,46)         33.0837                                         !
 ! D122  D(43,42,44,47)        -85.1759                                         !
 ! D123  D(42,44,46,49)        -52.0425                                         !
 ! D124  D(42,44,46,56)        126.8035                                         !
 ! D125  D(45,44,46,49)       -169.8951                                         !
 ! D126  D(45,44,46,56)          8.9509                                         !
 ! D127  D(47,44,46,49)         66.3903                                         !
 ! D128  D(47,44,46,56)       -114.7636                                         !
 ! D129  D(42,44,47,48)         85.9527                                         !
 ! D130  D(42,44,47,50)       -154.6382                                         !
 ! D131  D(42,44,47,54)        -31.2328                                         !
 ! D132  D(45,44,47,48)       -154.8358                                         !
 ! D133  D(45,44,47,50)        -35.4266                                         !
 ! D134  D(45,44,47,54)         87.9788                                         !
 ! D135  D(46,44,47,48)        -29.3807                                         !
 ! D136  D(46,44,47,50)         90.0284                                         !
 ! D137  D(46,44,47,54)       -146.5662                                         !
 ! D138  D(44,46,56,57)          4.9728                                         !
 ! D139  D(44,46,56,58)        178.1661                                         !
 ! D140  D(49,46,56,57)       -176.2407                                         !
 ! D141  D(49,46,56,58)         -3.0474                                         !
 ! D142  D(44,47,50,51)        -60.502                                          !
 ! D143  D(44,47,50,52)        179.3853                                         !
 ! D144  D(44,47,50,53)         60.4845                                         !
 ! D145  D(48,47,50,51)         56.9806                                         !
 ! D146  D(48,47,50,52)        -63.1321                                         !
 ! D147  D(48,47,50,53)        177.9671                                         !
 ! D148  D(54,47,50,51)        178.4044                                         !
 ! D149  D(54,47,50,52)         58.2917                                         !
 ! D150  D(54,47,50,53)        -60.6091                                         !
 ! D151  D(44,47,54,55)       -157.3952                                         !
 ! D152  D(48,47,54,55)         87.0095                                         !
 ! D153  D(50,47,54,55)        -34.8278                                         !
 ! D154  D(46,56,58,59)        -51.5275                                         !
 ! D155  D(46,56,58,60)       -168.105                                          !
 ! D156  D(46,56,58,61)         67.6184                                         !
 ! D157  D(57,56,58,59)        122.0247                                         !
 ! D158  D(57,56,58,60)          5.4472                                         !
 ! D159  D(57,56,58,61)       -118.8294                                         !
 ! D160  D(56,58,60,64)         -6.4087                                         !
 ! D161  D(56,58,60,79)        174.4149                                         !
 ! D162  D(59,58,60,64)       -123.5068                                         !
 ! D163  D(59,58,60,79)         57.3168                                         !
 ! D164  D(61,58,60,64)        118.0483                                         !
 ! D165  D(61,58,60,79)        -61.128                                          !
 ! D166  D(56,58,61,62)        -55.2141                                         !
 ! D167  D(56,58,61,63)       -169.429                                          !
 ! D168  D(56,58,61,65)         67.9868                                         !
 ! D169  D(59,58,61,62)         64.8434                                         !
 ! D170  D(59,58,61,63)        -49.3715                                         !
 ! D171  D(59,58,61,65)       -171.9556                                         !
 ! D172  D(60,58,61,62)       -176.2464                                         !
 ! D173  D(60,58,61,63)         69.5387                                         !
 ! D174  D(60,58,61,65)        -53.0454                                         !
 ! D175  D(58,60,79,80)        179.772                                          !
 ! D176  D(64,60,79,80)          0.5899                                         !
 ! D177  D(58,61,65,66)        -35.1832                                         !
 ! D178  D(58,61,65,67)         81.568                                          !
 ! D179  D(58,61,65,68)       -156.7847                                         !
 ! D180  D(62,61,65,66)         85.4104                                         !
 ! D181  D(62,61,65,67)       -157.8385                                         !
 ! D182  D(62,61,65,68)        -36.1912                                         !
 ! D183  D(63,61,65,66)       -156.7774                                         !
 ! D184  D(63,61,65,67)        -40.0263                                         !
 ! D185  D(63,61,65,68)         81.621                                          !
 ! D186  D(61,65,68,69)       -155.0864                                         !
 ! D187  D(61,65,68,70)        -37.9554                                         !
 ! D188  D(61,65,68,71)         85.4484                                         !
 ! D189  D(66,65,68,69)         82.0079                                         !
 ! D190  D(66,65,68,70)       -160.8611                                         !
 ! D191  D(66,65,68,71)        -37.4573                                         !
 ! D192  D(67,65,68,69)        -32.9012                                         !
 ! D193  D(67,65,68,70)         84.2298                                         !
 ! D194  D(67,65,68,71)       -152.3665                                         !
 ! D195  D(65,68,71,72)         66.4281                                         !
 ! D196  D(65,68,71,78)        -78.433                                          !
 ! D197  D(69,68,71,72)        -54.9645                                         !
 ! D198  D(69,68,71,78)        160.1744                                         !
 ! D199  D(70,68,71,72)       -169.3892                                         !
 ! D200  D(70,68,71,78)         45.7497                                         !
 ! D201  D(68,71,78,73)        -36.0001                                         !
 ! D202  D(68,71,78,76)        144.8155                                         !
 ! D203  D(72,71,78,73)        178.99                                           !
 ! D204  D(72,71,78,76)         -0.1944                                         !
 ! D205  D(74,73,78,71)       -173.8815                                         !
 ! D206  D(74,73,78,76)          5.3486                                         !
 ! D207  D(75,73,78,71)        -41.3214                                         !
 ! D208  D(75,73,78,76)        137.9087                                         !
 ! D209  D(77,76,78,71)        -11.06                                           !
 ! D210  D(77,76,78,73)        169.7942                                         !
 --------------------------------------------------------------------------------
 Symmetry turned off by external request.
 Stoichiometry    C26H39N8O8(1+)
 Framework group  C1[X(C26H39N8O8)]
 Deg. of freedom   237
 Full point group                 C1      NOp   1
                          Input orientation:                          
 ---------------------------------------------------------------------
 Center     Atomic      Atomic             Coordinates (Angstroms)
 Number     Number       Type             X           Y           Z
 ---------------------------------------------------------------------
      1          7           0       -4.843693   -2.093441    0.392873
      2          1           0       -5.768130   -1.657900    0.494433
      3          1           0       -4.729959   -2.372930   -0.591052
      4          1           0       -4.794471   -2.946376    0.978798
      5          6           0       -3.690455   -1.200545    0.818935
      6          1           0       -3.990049   -0.713922    1.749983
      7          6           0       -3.370501   -0.209967   -0.257674
      8          6           0       -2.422509   -2.070753    1.043695
      9          1           0       -2.049562   -2.413394    0.070681
     10          1           0       -1.658076   -1.397214    1.438210
     11          8           0       -3.682155   -0.573012   -1.484608
     12          6           0       -2.574333   -3.233707    2.006234
     13          1           0       -3.134169   -4.086035    1.597970
     14          1           0       -3.041611   -2.926323    2.951236
     15          6           0       -1.099078   -3.811194    2.383154
     16          8           0       -1.146718   -4.906824    2.933008
     17          8           0       -0.142042   -3.052750    2.080434
     18          7           0       -2.628617    0.819928    0.015224
     19          1           0       -2.367492    1.066344    0.993592
     20          6           0       -1.592124    1.399646   -0.877271
     21          1           0       -1.252317    0.598771   -1.541938
     22          6           0       -0.462405    1.679446    0.163230
     23          6           0       -2.107043    2.586214   -1.711023
     24          1           0       -1.261504    2.956345   -2.306253
     25          1           0       -2.405956    3.395169   -1.035202
     26          8           0       -0.798042    1.873055    1.337266
     27          6           0       -3.268667    2.198728   -2.595348
     28          6           0       -3.196176    1.633623   -3.859735
     29          1           0       -2.325100    1.373919   -4.447228
     30          6           0       -4.676678    2.429363   -2.338187
     31          6           0       -5.391655    1.979338   -3.480533
     32          6           0       -5.393830    2.976845   -1.257276
     33          1           0       -4.874796    3.350315   -0.378309
     34          7           0       -4.462030    1.494475   -4.382235
     35          1           0       -4.668273    1.160996   -5.312790
     36          6           0       -7.465667    2.595624   -2.486564
     37          1           0       -8.547514    2.680134   -2.525338
     38          6           0       -6.787185    2.050561   -3.568494
     39          1           0       -7.318112    1.706821   -4.451571
     40          6           0       -6.776764    3.056201   -1.343374
     41          1           0       -7.341866    3.492430   -0.524973
     42          7           0        0.788359    1.594681   -0.291965
     43          1           0        0.970306    1.530737   -1.290889
     44          6           0        1.883427    1.150465    0.571921
     45          1           0        1.789047    1.664021    1.531944
     46          6           0        3.166526    1.515912   -0.186866
     47          6           0        1.810847   -0.407134    0.778790
     48          1           0        2.345385   -0.861849   -0.068035
     49          8           0        3.290769    1.148505   -1.354488
     50          6           0        2.480929   -0.812251    2.090729
     51          1           0        3.539985   -0.528300    2.101555
     52          1           0        2.413711   -1.895974    2.227217
     53          1           0        1.978643   -0.335832    2.940325
     54          8           0        0.448720   -0.798058    0.730121
     55          1           0        0.332836   -1.664831    1.204026
     56          7           0        4.092441    2.250905    0.468511
     57          1           0        3.987564    2.491458    1.448146
     58          6           0        5.361251    2.615837   -0.151942
     59          1           0        5.834641    1.710949   -0.552944
     60          6           0        6.249764    3.164874    0.954360
     61          6           0        5.193008    3.609303   -1.328535
     62          1           0        4.490207    3.143652   -2.022763
     63          1           0        6.154840    3.677978   -1.849020
     64          8           0        5.882692    3.363529    2.093573
     65          6           0        4.721277    5.016870   -0.926925
     66          1           0        4.019742    4.961208   -0.083210
     67          1           0        5.577985    5.606647   -0.575340
     68          6           0        4.031545    5.783828   -2.075877
     69          1           0        4.117904    6.862189   -1.905886
     70          1           0        4.531992    5.577960   -3.026241
     71          7           0        2.596561    5.502749   -2.221440
     72          1           0        2.048704    5.832481   -1.436020
     73          7           0        2.740085    3.898670   -3.912187
     74          1           0        2.253224    3.142919   -4.376581
     75          1           0        3.098920    4.597170   -4.551889
     76          7           0        0.951494    3.793367   -2.434376
     77          1           0        0.668241    4.168640   -1.526894
     78          6           0        2.042964    4.380479   -2.817318
     79          8           0        7.492868    3.422152    0.513270
     80          1           0        8.000071    3.771981    1.271019
     81          1           0       -3.469143    0.160642   -2.140493
 ---------------------------------------------------------------------
 Rotational constants (GHZ):           0.0963528           0.0483087           0.0345465
 Standard basis: 6-31G(d) (6D, 7F)
   708 basis functions,  1332 primitive gaussians,   708 cartesian basis functions
   157 alpha electrons      157 beta electrons
       nuclear repulsion energy      5277.3446473877 Hartrees.
 NAtoms=   81 NActive=   81 NUniq=   81 SFac= 1.00D+00 NAtFMM=   60 NAOKFM=T Big=T
 Integral buffers will be    131072 words long.
 Raffenetti 2 integral format.
 Two-electron integral symmetry is turned off.
 One-electron integrals computed using PRISM.
 NBasis=   708 RedAO= T EigKep=  3.76D-04  NBF=   708
 NBsUse=   708 1.00D-06 EigRej= -1.00D+00 NBFU=   708
 Initial guess from the checkpoint file:  "conf-883.chk"
 B after Tr=     0.000000    0.000000    0.000000
         Rot=    1.000000    0.000000    0.000000    0.000000 Ang=   0.00 deg.
 Requested convergence on RMS density matrix=1.00D-08 within 128 cycles.
 Requested convergence on MAX density matrix=1.00D-06.
 Requested convergence on             energy=1.00D-06.
 No special actions if energy rises.
 SCF Done:  E(RB3LYP) =  -2053.81403076     A.U. after    2 cycles
            NFock=  2  Conv=0.77D-08     -V/T= 2.0093

 **********************************************************************

            Population analysis using the SCF Density.

 **********************************************************************

 Alpha  occ. eigenvalues --  -19.38289 -19.27912 -19.23279 -19.22508 -19.19588
 Alpha  occ. eigenvalues --  -19.19386 -19.14028 -19.12999 -14.63916 -14.54588
 Alpha  occ. eigenvalues --  -14.50199 -14.45911 -14.44473 -14.42934 -14.42013
 Alpha  occ. eigenvalues --  -14.36867 -10.49896 -10.43669 -10.40428 -10.40396
 Alpha  occ. eigenvalues --  -10.37837 -10.36984 -10.36405 -10.34807 -10.33592
 Alpha  occ. eigenvalues --  -10.32455 -10.32017 -10.31916 -10.31663 -10.31610
 Alpha  occ. eigenvalues --  -10.31380 -10.30599 -10.30353 -10.30081 -10.29916
 Alpha  occ. eigenvalues --  -10.29832 -10.29323 -10.29015 -10.27558 -10.26259
 Alpha  occ. eigenvalues --  -10.25965 -10.23430  -1.28139  -1.18991  -1.18236
 Alpha  occ. eigenvalues --   -1.15834  -1.11917  -1.11381  -1.10129  -1.10080
 Alpha  occ. eigenvalues --   -1.07362  -1.06594  -1.05454  -1.02494  -1.00779
 Alpha  occ. eigenvalues --   -0.98816  -0.97018  -0.96429  -0.95160  -0.93011
 Alpha  occ. eigenvalues --   -0.92211  -0.89439  -0.87639  -0.86213  -0.84897
 Alpha  occ. eigenvalues --   -0.84735  -0.83464  -0.81851  -0.81111  -0.79554
 Alpha  occ. eigenvalues --   -0.78066  -0.76598  -0.76215  -0.75123  -0.74150
 Alpha  occ. eigenvalues --   -0.73612  -0.72818  -0.71031  -0.70674  -0.69981
 Alpha  occ. eigenvalues --   -0.69307  -0.68592  -0.67989  -0.67600  -0.66535
 Alpha  occ. eigenvalues --   -0.65383  -0.64848  -0.64388  -0.63709  -0.62635
 Alpha  occ. eigenvalues --   -0.61649  -0.60991  -0.59708  -0.59566  -0.58711
 Alpha  occ. eigenvalues --   -0.58052  -0.57477  -0.57031  -0.56744  -0.56506
 Alpha  occ. eigenvalues --   -0.56198  -0.55950  -0.55627  -0.55174  -0.55006
 Alpha  occ. eigenvalues --   -0.54845  -0.54191  -0.53772  -0.53683  -0.53367
 Alpha  occ. eigenvalues --   -0.52798  -0.52688  -0.52370  -0.52052  -0.51517
 Alpha  occ. eigenvalues --   -0.50829  -0.50168  -0.49717  -0.49647  -0.48701
 Alpha  occ. eigenvalues --   -0.48561  -0.48235  -0.47542  -0.47406  -0.46971
 Alpha  occ. eigenvalues --   -0.46459  -0.46324  -0.46167  -0.45965  -0.45484
 Alpha  occ. eigenvalues --   -0.45065  -0.44732  -0.44690  -0.43888  -0.43661
 Alpha  occ. eigenvalues --   -0.43083  -0.42743  -0.41867  -0.41392  -0.41324
 Alpha  occ. eigenvalues --   -0.40080  -0.39555  -0.38962  -0.37841  -0.36161
 Alpha  occ. eigenvalues --   -0.35728  -0.35255  -0.33996  -0.33962  -0.33610
 Alpha  occ. eigenvalues --   -0.33083  -0.32487  -0.31769  -0.30346  -0.28924
 Alpha  occ. eigenvalues --   -0.28602  -0.26882
 Alpha virt. eigenvalues --   -0.19726  -0.13766  -0.12932  -0.09659  -0.08831
 Alpha virt. eigenvalues --   -0.07885  -0.07442  -0.06680  -0.06529  -0.06115
 Alpha virt. eigenvalues --   -0.05539  -0.04583  -0.03157  -0.02841  -0.02490
 Alpha virt. eigenvalues --   -0.01478  -0.00720  -0.00108   0.00041   0.00720
 Alpha virt. eigenvalues --    0.01131   0.01668   0.01931   0.02121   0.02381
 Alpha virt. eigenvalues --    0.02608   0.03353   0.03636   0.04050   0.04447
 Alpha virt. eigenvalues --    0.04754   0.05721   0.06039   0.06315   0.06442
 Alpha virt. eigenvalues --    0.06570   0.06895   0.07137   0.07547   0.07867
 Alpha virt. eigenvalues --    0.08105   0.08629   0.09013   0.09352   0.09754
 Alpha virt. eigenvalues --    0.09809   0.10051   0.10352   0.11060   0.11495
 Alpha virt. eigenvalues --    0.11645   0.11984   0.12594   0.12937   0.13406
 Alpha virt. eigenvalues --    0.13627   0.14130   0.14457   0.14926   0.15380
 Alpha virt. eigenvalues --    0.15526   0.15977   0.16471   0.16698   0.16962
 Alpha virt. eigenvalues --    0.17274   0.17618   0.18919   0.19187   0.19958
 Alpha virt. eigenvalues --    0.20430   0.20944   0.21185   0.21440   0.22768
 Alpha virt. eigenvalues --    0.22837   0.23688   0.24160   0.25289   0.26563
 Alpha virt. eigenvalues --    0.27508   0.29079   0.30064   0.30206   0.31215
 Alpha virt. eigenvalues --    0.31395   0.32574   0.33050   0.34804   0.35415
 Alpha virt. eigenvalues --    0.36086   0.36729   0.36781   0.37727   0.38794
 Alpha virt. eigenvalues --    0.39315   0.40226   0.40319   0.41126   0.41755
 Alpha virt. eigenvalues --    0.42676   0.42999   0.43432   0.43958   0.44489
 Alpha virt. eigenvalues --    0.44930   0.45200   0.45728   0.46112   0.46549
 Alpha virt. eigenvalues --    0.47126   0.47206   0.47591   0.47966   0.48326
 Alpha virt. eigenvalues --    0.48666   0.49313   0.49451   0.49832   0.49980
 Alpha virt. eigenvalues --    0.50202   0.50483   0.51156   0.51868   0.52063
 Alpha virt. eigenvalues --    0.52415   0.52722   0.53132   0.53410   0.54186
 Alpha virt. eigenvalues --    0.54496   0.54745   0.55820   0.55942   0.56060
 Alpha virt. eigenvalues --    0.56458   0.56820   0.57088   0.57462   0.57501
 Alpha virt. eigenvalues --    0.58766   0.58936   0.59368   0.59760   0.60266
 Alpha virt. eigenvalues --    0.60645   0.60880   0.61362   0.61679   0.62589
 Alpha virt. eigenvalues --    0.62993   0.63422   0.63883   0.64601   0.64736
 Alpha virt. eigenvalues --    0.65692   0.65780   0.66358   0.66430   0.67384
 Alpha virt. eigenvalues --    0.67774   0.68120   0.68462   0.69141   0.69426
 Alpha virt. eigenvalues --    0.69581   0.70110   0.70355   0.70545   0.70756
 Alpha virt. eigenvalues --    0.71113   0.71838   0.72202   0.72592   0.72858
 Alpha virt. eigenvalues --    0.72974   0.73069   0.74297   0.74465   0.74604
 Alpha virt. eigenvalues --    0.74929   0.75390   0.75655   0.76030   0.76593
 Alpha virt. eigenvalues --    0.76899   0.77364   0.77764   0.77833   0.78690
 Alpha virt. eigenvalues --    0.79243   0.79345   0.79929   0.80102   0.80740
 Alpha virt. eigenvalues --    0.81201   0.81450   0.81621   0.82184   0.82596
 Alpha virt. eigenvalues --    0.82644   0.82912   0.83294   0.83476   0.83639
 Alpha virt. eigenvalues --    0.84394   0.84916   0.85106   0.85830   0.86374
 Alpha virt. eigenvalues --    0.86563   0.87367   0.87626   0.87729   0.88010
 Alpha virt. eigenvalues --    0.88635   0.88705   0.89073   0.89653   0.90046
 Alpha virt. eigenvalues --    0.90163   0.90463   0.90870   0.91517   0.91825
 Alpha virt. eigenvalues --    0.92559   0.93243   0.94009   0.94590   0.95278
 Alpha virt. eigenvalues --    0.96688   0.97413   0.97586   0.98587   0.98888
 Alpha virt. eigenvalues --    0.99160   0.99986   1.00873   1.01255   1.01685
 Alpha virt. eigenvalues --    1.02189   1.03166   1.03365   1.04306   1.04731
 Alpha virt. eigenvalues --    1.05802   1.06150   1.06760   1.07625   1.08642
 Alpha virt. eigenvalues --    1.08912   1.10054   1.10634   1.11648   1.12262
 Alpha virt. eigenvalues --    1.12582   1.13258   1.13353   1.14717   1.15070
 Alpha virt. eigenvalues --    1.16682   1.17338   1.17711   1.18711   1.18791
 Alpha virt. eigenvalues --    1.21394   1.21809   1.22081   1.22187   1.23586
 Alpha virt. eigenvalues --    1.24676   1.25143   1.25724   1.25887   1.28127
 Alpha virt. eigenvalues --    1.28525   1.29158   1.29932   1.30698   1.30718
 Alpha virt. eigenvalues --    1.31549   1.31729   1.32014   1.32507   1.32924
 Alpha virt. eigenvalues --    1.33539   1.35042   1.35927   1.36636   1.38209
 Alpha virt. eigenvalues --    1.39302   1.39452   1.39808   1.40631   1.41070
 Alpha virt. eigenvalues --    1.42687   1.43260   1.43953   1.45005   1.45495
 Alpha virt. eigenvalues --    1.46763   1.48136   1.48774   1.49413   1.49974
 Alpha virt. eigenvalues --    1.50863   1.51941   1.52181   1.53827   1.54495
 Alpha virt. eigenvalues --    1.54792   1.55124   1.55511   1.57269   1.57808
 Alpha virt. eigenvalues --    1.57971   1.58904   1.59342   1.60485   1.61203
 Alpha virt. eigenvalues --    1.61738   1.62525   1.63405   1.63753   1.64844
 Alpha virt. eigenvalues --    1.65248   1.65857   1.66339   1.66876   1.67679
 Alpha virt. eigenvalues --    1.68286   1.68661   1.69239   1.69591   1.69785
 Alpha virt. eigenvalues --    1.70371   1.70731   1.71202   1.71804   1.72395
 Alpha virt. eigenvalues --    1.72865   1.73115   1.73512   1.73814   1.74770
 Alpha virt. eigenvalues --    1.75275   1.76020   1.76337   1.77113   1.77508
 Alpha virt. eigenvalues --    1.78213   1.78438   1.78937   1.79223   1.79890
 Alpha virt. eigenvalues --    1.80459   1.80687   1.81130   1.81910   1.82471
 Alpha virt. eigenvalues --    1.82874   1.83614   1.84056   1.84640   1.85128
 Alpha virt. eigenvalues --    1.86498   1.86736   1.86908   1.87133   1.87548
 Alpha virt. eigenvalues --    1.88447   1.88779   1.89507   1.89733   1.90517
 Alpha virt. eigenvalues --    1.90800   1.91281   1.91360   1.92038   1.92507
 Alpha virt. eigenvalues --    1.92704   1.93354   1.94507   1.95268   1.96111
 Alpha virt. eigenvalues --    1.96411   1.96892   1.97320   1.98506   1.99315
 Alpha virt. eigenvalues --    1.99721   2.00403   2.01231   2.02040   2.02930
 Alpha virt. eigenvalues --    2.03378   2.03655   2.04358   2.04943   2.06608
 Alpha virt. eigenvalues --    2.07437   2.07884   2.08411   2.09883   2.10633
 Alpha virt. eigenvalues --    2.10863   2.12036   2.12591   2.13123   2.13739
 Alpha virt. eigenvalues --    2.14011   2.14120   2.14638   2.15382   2.16131
 Alpha virt. eigenvalues --    2.16519   2.17548   2.19025   2.20670   2.21449
 Alpha virt. eigenvalues --    2.22288   2.23381   2.23828   2.24520   2.25129
 Alpha virt. eigenvalues --    2.26305   2.26818   2.27958   2.28211   2.28541
 Alpha virt. eigenvalues --    2.29055   2.30026   2.30515   2.31292   2.32131
 Alpha virt. eigenvalues --    2.33349   2.34146   2.34685   2.34940   2.35792
 Alpha virt. eigenvalues --    2.36448   2.37597   2.38448   2.39451   2.40294
 Alpha virt. eigenvalues --    2.41791   2.43097   2.43131   2.44102   2.45184
 Alpha virt. eigenvalues --    2.45716   2.46416   2.46641   2.47043   2.48218
 Alpha virt. eigenvalues --    2.49368   2.50285   2.52018   2.52657   2.53611
 Alpha virt. eigenvalues --    2.54603   2.55431   2.56203   2.56858   2.57290
 Alpha virt. eigenvalues --    2.58125   2.58721   2.59063   2.59593   2.61178
 Alpha virt. eigenvalues --    2.61859   2.62249   2.63970   2.64752   2.65498
 Alpha virt. eigenvalues --    2.65612   2.67123   2.68461   2.69582   2.70988
 Alpha virt. eigenvalues --    2.71093   2.73087   2.73609   2.74381   2.74946
 Alpha virt. eigenvalues --    2.76862   2.78018   2.80132   2.81804   2.83132
 Alpha virt. eigenvalues --    2.84910   2.86425   2.87550   2.89305   2.89634
 Alpha virt. eigenvalues --    2.90145   2.90913   2.91883   2.93702   2.95250
 Alpha virt. eigenvalues --    2.97477   2.98301   3.00443   3.03244   3.07675
 Alpha virt. eigenvalues --    3.11114   3.12535   3.12757   3.32752   3.59321
 Alpha virt. eigenvalues --    3.76589   3.80011   3.82990   3.85764   3.88728
 Alpha virt. eigenvalues --    3.91686   3.92578   3.94428   3.95993   3.98154
 Alpha virt. eigenvalues --    3.98816   4.02430   4.04058   4.05522   4.06503
 Alpha virt. eigenvalues --    4.09578   4.12046   4.15512   4.16224   4.18352
 Alpha virt. eigenvalues --    4.20784   4.22777   4.23748   4.24240   4.24743
 Alpha virt. eigenvalues --    4.25908   4.27858   4.28330   4.30268   4.32115
 Alpha virt. eigenvalues --    4.36705   4.39689   4.40869   4.44676   4.46176
 Alpha virt. eigenvalues --    4.49800   4.54317   4.56316   4.57995   4.64028
 Alpha virt. eigenvalues --    4.68552
          Condensed to atoms (all electrons):
 Mulliken charges:
               1
     1  N   -0.726397
     2  H    0.424599
     3  H    0.431513
     4  H    0.425211
     5  C   -0.144645
     6  H    0.236182
     7  C    0.641837
     8  C   -0.292422
     9  H    0.181320
    10  H    0.234747
    11  O   -0.597876
    12  C   -0.436929
    13  H    0.142832
    14  H    0.161774
    15  C    0.623261
    16  O   -0.510045
    17  O   -0.588644
    18  N   -0.546928
    19  H    0.410363
    20  C   -0.119788
    21  H    0.197275
    22  C    0.667449
    23  C   -0.356967
    24  H    0.243965
    25  H    0.180341
    26  O   -0.542657
    27  C   -0.069186
    28  C   -0.007871
    29  H    0.190552
    30  C    0.104490
    31  C    0.304118
    32  C   -0.219007
    33  H    0.139940
    34  N   -0.664598
    35  H    0.352193
    36  C   -0.151031
    37  H    0.157659
    38  C   -0.160185
    39  H    0.153979
    40  C   -0.142824
    41  H    0.151374
    42  N   -0.597686
    43  H    0.370732
    44  C   -0.061732
    45  H    0.174135
    46  C    0.618188
    47  C    0.179268
    48  H    0.144507
    49  O   -0.532860
    50  C   -0.493068
    51  H    0.142590
    52  H    0.201902
    53  H    0.159435
    54  O   -0.734538
    55  H    0.468771
    56  N   -0.626108
    57  H    0.360374
    58  C   -0.035276
    59  H    0.203347
    60  C    0.586066
    61  C   -0.296443
    62  H    0.219404
    63  H    0.165249
    64  O   -0.466053
    65  C   -0.273206
    66  H    0.138639
    67  H    0.153833
    68  C   -0.155329
    69  H    0.165135
    70  H    0.163766
    71  N   -0.584985
    72  H    0.318021
    73  N   -0.728311
    74  H    0.340409
    75  H    0.336380
    76  N   -0.706852
    77  H    0.265341
    78  C    0.611196
    79  O   -0.559777
    80  H    0.427534
    81  H    0.459029
 Sum of Mulliken charges =   1.00000
 Mulliken charges with hydrogens summed into heavy atoms:
               1
     1  N    0.554927
     5  C    0.091537
     7  C    0.641837
     8  C    0.123645
    11  O   -0.138847
    12  C   -0.132323
    15  C    0.623261
    16  O   -0.510045
    17  O   -0.588644
    18  N   -0.136565
    20  C    0.077487
    22  C    0.667449
    23  C    0.067339
    26  O   -0.542657
    27  C   -0.069186
    28  C    0.182681
    30  C    0.104490
    31  C    0.304118
    32  C   -0.079068
    34  N   -0.312406
    36  C    0.006628
    38  C   -0.006206
    40  C    0.008550
    42  N   -0.226954
    44  C    0.112403
    46  C    0.618188
    47  C    0.323775
    49  O   -0.532860
    50  C    0.010859
    54  O   -0.265767
    56  N   -0.265735
    58  C    0.168071
    60  C    0.586066
    61  C    0.088209
    64  O   -0.466053
    65  C    0.019267
    68  C    0.173571
    71  N   -0.266964
    73  N   -0.051523
    76  N   -0.441511
    78  C    0.611196
    79  O   -0.132243
 Electronic spatial extent (au):  <R**2>=          31964.8676
 Charge=              1.0000 electrons
 Dipole moment (field-independent basis, Debye):
    X=            -16.9300    Y=             10.8231    Z=            -11.5012  Tot=             23.1526
 Quadrupole moment (field-independent basis, Debye-Ang):
   XX=            -63.0944   YY=           -230.6042   ZZ=           -213.7070
   XY=             55.9966   XZ=             18.4627   YZ=              6.6916
 Traceless Quadrupole moment (field-independent basis, Debye-Ang):
   XX=            106.0408   YY=            -61.4690   ZZ=            -44.5718
   XY=             55.9966   XZ=             18.4627   YZ=              6.6916
 Octapole moment (field-independent basis, Debye-Ang**2):
  XXX=           -180.4843  YYY=           -618.2179  ZZZ=            131.0463  XYY=            189.5492
  XXY=           -221.9704  XXZ=             70.3273  XZZ=            -57.8841  YZZ=           -195.6508
  YYZ=            -33.9456  XYZ=            -28.5100
 Hexadecapole moment (field-independent basis, Debye-Ang**3):
 XXXX=         -15668.0715 YYYY=         -12073.9111 ZZZZ=          -4889.1686 XXXY=           -391.7691
 XXXZ=           -562.6629 YYYX=          -1171.8325 YYYZ=           3195.3221 ZZZX=          -1057.4247
 ZZZY=           2475.6762 XXYY=          -4319.2701 XXZZ=          -3883.1856 YYZZ=          -3316.7374
 XXYZ=            657.9005 YYXZ=           -769.5429 ZZXY=           -696.3054
 N-N= 5.277344647388D+03 E-N=-1.531240359979D+04  KE= 2.034933652516D+03
 Unable to Open any file for archive entry.
 1\1\GINC-SKL-140\SP\RB3LYP\6-31G(d)\C26H39N8O8(1+)\KENGMITH\26-May-202
 2\0\\# B3LYP/6-31G* guess=read geom=check nosymm integral(ultrafinegri
 d)\\Candidate Structure: Conf:883 Charge calc in gas phase\\1,1\N,0,-4
 .8436934543,-2.0934408527,0.3928733596\H,0,-5.7681298354,-1.6579002065
 ,0.4944333942\H,0,-4.7299586467,-2.3729295095,-0.5910515281\H,0,-4.794
 4711594,-2.946376186,0.9787983763\C,0,-3.6904545663,-1.2005452139,0.81
 89345687\H,0,-3.9900494571,-0.7139215156,1.7499825914\C,0,-3.370500975
 1,-0.2099674774,-0.2576739849\C,0,-2.4225086537,-2.070753113,1.0436951
 276\H,0,-2.049561643,-2.4133937433,0.0706812858\H,0,-1.6580759301,-1.3
 97213933,1.4382101496\O,0,-3.6821549738,-0.5730115394,-1.4846080597\C,
 0,-2.574332615,-3.2337068346,2.0062342352\H,0,-3.1341694727,-4.0860354
 012,1.5979701476\H,0,-3.0416112018,-2.9263234316,2.9512360806\C,0,-1.0
 990779591,-3.8111939286,2.3831535666\O,0,-1.1467180009,-4.9068241166,2
 .9330076454\O,0,-0.1420415753,-3.0527503824,2.0804340845\N,0,-2.628617
 2576,0.8199282083,0.0152236999\H,0,-2.3674921963,1.0663439618,0.993591
 906\C,0,-1.5921244424,1.3996455075,-0.8772712642\H,0,-1.2523166066,0.5
 987710776,-1.5419381733\C,0,-0.4624046719,1.679446187,0.1632299205\C,0
 ,-2.107043467,2.586213627,-1.7110227132\H,0,-1.2615035488,2.9563447127
 ,-2.3062531161\H,0,-2.4059562582,3.3951687981,-1.0352016179\O,0,-0.798
 0417472,1.8730550156,1.3372656252\C,0,-3.2686670894,2.1987275861,-2.59
 53482221\C,0,-3.196175759,1.6336226934,-3.8597348168\H,0,-2.3251000926
 ,1.3739185522,-4.4472283781\C,0,-4.6766780384,2.4293625043,-2.33818668
 97\C,0,-5.3916548348,1.979338241,-3.4805334648\C,0,-5.3938299153,2.976
 8452053,-1.2572757487\H,0,-4.8747964981,3.3503152088,-0.3783093572\N,0
 ,-4.4620298442,1.494474856,-4.3822350064\H,0,-4.6682731159,1.160996132
 3,-5.3127901622\C,0,-7.4656670555,2.5956235041,-2.4865644372\H,0,-8.54
 75141201,2.6801342538,-2.5253383503\C,0,-6.7871854308,2.0505614071,-3.
 5684942373\H,0,-7.318111631,1.7068208331,-4.451571125\C,0,-6.776764048
 7,3.0562012206,-1.3433736781\H,0,-7.3418660056,3.4924303408,-0.5249734
 643\N,0,0.7883589194,1.5946809377,-0.2919647417\H,0,0.970305716,1.5307
 369955,-1.2908885714\C,0,1.8834265579,1.1504648826,0.5719206574\H,0,1.
 7890466475,1.66402094,1.5319436928\C,0,3.1665263522,1.5159117345,-0.18
 6866333\C,0,1.8108467997,-0.4071341164,0.7787898714\H,0,2.3453850544,-
 0.8618486132,-0.068035396\O,0,3.2907693256,1.1485052717,-1.3544883623\
 C,0,2.4809287948,-0.8122514427,2.0907287241\H,0,3.5399845704,-0.528300
 3542,2.1015554273\H,0,2.4137113361,-1.8959740536,2.2272171496\H,0,1.97
 86429216,-0.3358316099,2.9403251661\O,0,0.4487201693,-0.7980584098,0.7
 301210535\H,0,0.3328361141,-1.664830604,1.2040263319\N,0,4.0924412912,
 2.2509050479,0.4685113063\H,0,3.987563952,2.4914584662,1.4481457165\C,
 0,5.3612510601,2.6158365771,-0.1519424979\H,0,5.8346414155,1.710948899
 2,-0.5529437196\C,0,6.2497635689,3.1648742616,0.9543603604\C,0,5.19300
 75977,3.6093029525,-1.3285353336\H,0,4.4902074129,3.1436522138,-2.0227
 633784\H,0,6.1548396687,3.6779783936,-1.8490197763\O,0,5.8826918031,3.
 3635291264,2.093572541\C,0,4.7212770304,5.0168702169,-0.9269246127\H,0
 ,4.0197420777,4.9612083261,-0.083209612\H,0,5.5779854888,5.6066470472,
 -0.5753401395\C,0,4.0315447177,5.7838284016,-2.075876828\H,0,4.1179041
 351,6.8621890396,-1.9058860473\H,0,4.5319922583,5.5779598281,-3.026241
 3383\N,0,2.5965610907,5.5027489172,-2.2214402276\H,0,2.0487044549,5.83
 2481104,-1.4360200172\N,0,2.7400848131,3.898669987,-3.9121869803\H,0,2
 .2532238879,3.1429185221,-4.3765808367\H,0,3.0989198027,4.5971703128,-
 4.5518891328\N,0,0.9514943641,3.7933667276,-2.4343756536\H,0,0.6682414
 408,4.1686403861,-1.5268943333\C,0,2.0429641398,4.3804794567,-2.817318
 4098\O,0,7.4928679409,3.4221523791,0.5132701563\H,0,8.0000713648,3.771
 9805902,1.2710185156\H,0,-3.4691433414,0.1606424118,-2.1404934499\\Ver
 sion=ES64L-G16RevC.01\HF=-2053.8140308\RMSD=7.699e-09\Dipole=-6.292238
 4,1.7265694,-3.4450596\Quadrupole=78.8387179,-45.70069,-33.1380279,41.
 6321016,13.726602,4.9750746\PG=C01 [X(C26H39N8O8)]\\@
 The archive entry for this job was punched.


 A CHEMICAL PHYSICIST MAKES PRECISE MEASUREMENTS ON IMPURE COMPOUNDS.
 A THEORETICAL PHYSICAL CHEMIST MAKES IMPRECISE
     MEASUREMENTS ON PURE COMPOUNDS.
 AN EXPERIMENTAL PHYSICAL CHEMIST MAKES IMPRECISE
     MEASUREMENTS ON IMPURE COMPOUNDS.
 Job cpu time:       0 days  0 hours  3 minutes  6.1 seconds.
 Elapsed time:       0 days  0 hours  0 minutes 47.3 seconds.
 File lengths (MBytes):  RWF=    376 Int=      0 D2E=      0 Chk=     56 Scr=     16
 Normal termination of Gaussian 16 at Thu May 26 18:14:36 2022.
