 Entering Gaussian System, Link 0=/opt/software/Gaussian/g16-AVX2-C.01/g16/g16
 Input=charge-conf-538.com
 Output=charge-conf-538.log
 Initial command:
 /opt/software/Gaussian/g16-AVX2-C.01/g16/l1.exe "/mnt/gs18/scratch/users/kengmith/Gau-56706.inp" -scrdir="/mnt/gs18/scratch/users/kengmith/"
 Entering Link 1 = /opt/software/Gaussian/g16-AVX2-C.01/g16/l1.exe PID=     56717.
  
 Copyright (c) 1988-2019, Gaussian, Inc.  All Rights Reserved.
  
 This is part of the Gaussian(R) 16 program.  It is based on
 the Gaussian(R) 09 system (copyright 2009, Gaussian, Inc.),
 the Gaussian(R) 03 system (copyright 2003, Gaussian, Inc.),
 the Gaussian(R) 98 system (copyright 1998, Gaussian, Inc.),
 the Gaussian(R) 94 system (copyright 1995, Gaussian, Inc.),
 the Gaussian 92(TM) system (copyright 1992, Gaussian, Inc.),
 the Gaussian 90(TM) system (copyright 1990, Gaussian, Inc.),
 the Gaussian 88(TM) system (copyright 1988, Gaussian, Inc.),
 the Gaussian 86(TM) system (copyright 1986, Carnegie Mellon
 University), and the Gaussian 82(TM) system (copyright 1983,
 Carnegie Mellon University). Gaussian is a federally registered
 trademark of Gaussian, Inc.
  
 This software contains proprietary and confidential information,
 including trade secrets, belonging to Gaussian, Inc.
  
 This software is provided under written license and may be
 used, copied, transmitted, or stored only in accord with that
 written license.
  
 The following legend is applicable only to US Government
 contracts under FAR:
  
                    RESTRICTED RIGHTS LEGEND
  
 Use, reproduction and disclosure by the US Government is
 subject to restrictions as set forth in subparagraphs (a)
 and (c) of the Commercial Computer Software - Restricted
 Rights clause in FAR 52.227-19.
  
 Gaussian, Inc.
 340 Quinnipiac St., Bldg. 40, Wallingford CT 06492
  
  
 ---------------------------------------------------------------
 Warning -- This program may not be used in any manner that
 competes with the business of Gaussian, Inc. or will provide
 assistance to any competitor of Gaussian, Inc.  The licensee
 of this program is prohibited from giving any competitor of
 Gaussian, Inc. access to this program.  By using this program,
 the user acknowledges that Gaussian, Inc. is engaged in the
 business of creating and licensing software in the field of
 computational chemistry and represents and warrants to the
 licensee that it is not a competitor of Gaussian, Inc. and that
 it will not use this program in any manner prohibited above.
 ---------------------------------------------------------------
  

 Cite this work as:
 Gaussian 16, Revision C.01,
 M. J. Frisch, G. W. Trucks, H. B. Schlegel, G. E. Scuseria, 
 M. A. Robb, J. R. Cheeseman, G. Scalmani, V. Barone, 
 G. A. Petersson, H. Nakatsuji, X. Li, M. Caricato, A. V. Marenich, 
 J. Bloino, B. G. Janesko, R. Gomperts, B. Mennucci, H. P. Hratchian, 
 J. V. Ortiz, A. F. Izmaylov, J. L. Sonnenberg, D. Williams-Young, 
 F. Ding, F. Lipparini, F. Egidi, J. Goings, B. Peng, A. Petrone, 
 T. Henderson, D. Ranasinghe, V. G. Zakrzewski, J. Gao, N. Rega, 
 G. Zheng, W. Liang, M. Hada, M. Ehara, K. Toyota, R. Fukuda, 
 J. Hasegawa, M. Ishida, T. Nakajima, Y. Honda, O. Kitao, H. Nakai, 
 T. Vreven, K. Throssell, J. A. Montgomery, Jr., J. E. Peralta, 
 F. Ogliaro, M. J. Bearpark, J. J. Heyd, E. N. Brothers, K. N. Kudin, 
 V. N. Staroverov, T. A. Keith, R. Kobayashi, J. Normand, 
 K. Raghavachari, A. P. Rendell, J. C. Burant, S. S. Iyengar, 
 J. Tomasi, M. Cossi, J. M. Millam, M. Klene, C. Adamo, R. Cammi, 
 J. W. Ochterski, R. L. Martin, K. Morokuma, O. Farkas, 
 J. B. Foresman, and D. J. Fox, Gaussian, Inc., Wallingford CT, 2019.
 
 ******************************************
 Gaussian 16:  ES64L-G16RevC.01  3-Jul-2019
                26-May-2022 
 ******************************************
 %mem=8gb
 %nproc=4
 Will use up to    4 processors via shared memory.
 %chk=conf-538.chk
 -------------------------------------------------------------------
 # B3LYP/6-31G* guess=read geom=check nosymm integral(ultrafinegrid)
 -------------------------------------------------------------------
 1/29=2,38=1,172=1/1;
 2/12=2,15=1,40=1/2;
 3/5=1,6=6,7=1,11=2,14=-4,25=1,30=1,74=-5,75=-5,116=-2/1,2,3;
 4/5=1/1;
 5/5=2,38=6/2;
 6/7=2,8=2,9=2,10=2,28=1/1;
 99/5=1,9=1/99;
 ------------------------------------------------------
 Candidate Structure: Conf:538 Charge calc in gas phase
 ------------------------------------------------------
 Structure from the checkpoint file:  "conf-538.chk"
 Charge =  1 Multiplicity = 1
 Redundant internal coordinates found in file.  (old form).
 N,0,-4.3835158672,-0.8801885207,2.3057421876
 H,0,-5.2478091828,-1.2537047755,1.9019738373
 H,0,-3.5634806869,-1.395291627,1.8847514248
 H,0,-4.4119072592,-1.0078256051,3.3213369338
 C,0,-4.1072204507,0.5573360222,1.8956803119
 H,0,-5.055287734,1.0230958178,1.6163195465
 C,0,-3.1377405381,0.3959477788,0.7019242873
 C,0,-3.4174253646,1.3297094936,3.0387553958
 H,0,-3.1757255958,2.3219656783,2.6469230807
 H,0,-4.1242644047,1.487600696,3.8604541106
 O,0,-2.4868465559,-0.6613950414,0.6341148341
 C,0,-2.1225446425,0.6662341783,3.5417658569
 H,0,-1.5643459976,0.2238012792,2.7179142425
 H,0,-2.3369038492,-0.1424529175,4.2560761259
 C,0,-1.2433536556,1.6790824825,4.2872401946
 O,0,-1.7257866415,2.5405683172,4.9835709928
 O,0,0.0744985081,1.5075686176,4.1500119978
 N,0,-3.0018404191,1.4406233867,-0.1080525273
 H,0,-3.5839608387,2.2578007271,0.0474550738
 C,0,-1.7962084141,1.6240595584,-0.9262344706
 H,0,-1.6481875854,0.7262564172,-1.531841328
 C,0,-0.6182121249,1.8381446254,0.0575570274
 C,0,-1.954559926,2.872278269,-1.8391882317
 H,0,-1.1547459553,2.8290171611,-2.5860185343
 H,0,-1.7628541851,3.7666719666,-1.2335485002
 O,0,-0.8084554981,2.4425151911,1.1113438142
 C,0,-3.3010989773,2.9891936924,-2.491957061
 C,0,-3.7103525407,2.4628128339,-3.693603452
 H,0,-3.1494910572,1.9042590245,-4.4309919245
 C,0,-4.4533384158,3.6467995299,-1.9217542625
 C,0,-5.5322611577,3.4681808682,-2.8308054589
 C,0,-4.6775006259,4.3718636421,-0.7338627165
 H,0,-3.8616329078,4.577951338,-0.0421105811
 N,0,-5.0455727287,2.740597668,-3.8982708601
 H,0,-5.5631480112,2.5126392749,-4.7337240474
 C,0,-7.0034294579,4.679484675,-1.3962937672
 H,0,-7.9829298948,5.0938166395,-1.1770485679
 C,0,-6.8099500569,3.9796682443,-2.5822239359
 H,0,-7.6224833746,3.8410937751,-3.2901189477
 C,0,-5.9486457985,4.876227609,-0.4816360346
 H,0,-6.1294162261,5.4503502475,0.4225127648
 N,0,0.5808080783,1.3437527248,-0.3408732616
 H,0,0.6281130971,0.8295878146,-1.2380989276
 C,0,1.7823354888,1.5140052227,0.4826784917
 H,0,1.5781507992,2.3658010727,1.1428448902
 C,0,3.0107540546,1.8540764561,-0.3902907992
 C,0,2.054365684,0.2721704058,1.3813817962
 H,0,2.4473673788,-0.5356363566,0.7493344089
 O,0,4.1273359202,1.416045766,-0.1379696484
 C,0,3.0186043004,0.5521818551,2.5256719962
 H,0,4.0020934466,0.8087650832,2.1323948987
 H,0,3.1047976278,-0.3392973177,3.154462602
 H,0,2.6538887739,1.3773203431,3.1481463792
 O,0,0.8237968879,-0.1766226671,1.9872803733
 H,0,0.2903413669,0.8739034355,3.4241732431
 N,0,2.7609679054,2.6674057546,-1.4549065147
 H,0,1.8623327801,3.1305176122,-1.528460527
 C,0,3.826890793,3.2457750301,-2.2628923058
 H,0,4.7568448917,3.2087194986,-1.6877216575
 C,0,3.4465414385,4.696334327,-2.5372503416
 C,0,4.0181924622,2.5034696368,-3.6119332749
 H,0,4.7177589555,3.0753161657,-4.231497536
 H,0,3.047587064,2.5303258603,-4.1251166776
 O,0,2.320459598,5.1357592171,-2.4284499328
 C,0,4.5032607591,1.0485718377,-3.4480353927
 H,0,5.5978497904,1.0138721159,-3.508767958
 H,0,4.2455397316,0.6712764162,-2.4555739029
 C,0,3.9290574284,0.0829590293,-4.4990109023
 H,0,4.2021449103,0.3891851454,-5.5141392438
 H,0,4.3616246773,-0.9139900437,-4.3591034243
 N,0,2.458188345,-0.0184869682,-4.4883549168
 H,0,1.997601672,0.6970282319,-5.0353033681
 N,0,2.3342198713,-1.3025775506,-2.5399754486
 H,0,1.6811444732,-1.7413432317,-1.9035843023
 H,0,2.9596346414,-1.9636404032,-2.9825715369
 N,0,0.5693113203,0.1034764297,-3.0316480028
 H,0,0.2964153015,0.8487094857,-3.6737836393
 C,0,1.7345534383,-0.3707834832,-3.3650191189
 O,0,4.495160974,5.418829417,-2.9641480764
 H,0,4.1703771011,6.3207922668,-3.1518676154
 H,0,0.1835810483,-0.3442870945,1.2750449928
 Recover connectivity data from disk.
                           ----------------------------
                           !    Current Parameters    !
                           ! (Angstroms and Degrees)  !
 --------------------------                            --------------------------
 ! Name  Definition              Value                                          !
 --------------------------------------------------------------------------------
 ! R1    R(1,2)                  1.0245                                         !
 ! R2    R(1,3)                  1.0559                                         !
 ! R3    R(1,4)                  1.024                                          !
 ! R4    R(1,5)                  1.5202                                         !
 ! R5    R(5,6)                  1.0926                                         !
 ! R6    R(5,7)                  1.5463                                         !
 ! R7    R(5,8)                  1.5424                                         !
 ! R8    R(7,11)                 1.2435                                         !
 ! R9    R(7,18)                 1.3289                                         !
 ! R10   R(8,9)                  1.0939                                         !
 ! R11   R(8,10)                 1.0953                                         !
 ! R12   R(8,12)                 1.5395                                         !
 ! R13   R(11,81)                2.7645                                         !
 ! R14   R(12,13)                1.0891                                         !
 ! R15   R(12,14)                1.1001                                         !
 ! R16   R(12,15)                1.5345                                         !
 ! R17   R(15,16)                1.2082                                         !
 ! R18   R(15,17)                1.336                                          !
 ! R19   R(18,19)                1.0153                                         !
 ! R20   R(18,20)                1.4685                                         !
 ! R21   R(20,21)                1.093                                          !
 ! R22   R(20,22)                1.5496                                         !
 ! R23   R(20,23)                1.5545                                         !
 ! R24   R(22,26)                1.2296                                         !
 ! R25   R(22,42)                1.3568                                         !
 ! R26   R(23,24)                1.0951                                         !
 ! R27   R(23,25)                1.097                                          !
 ! R28   R(23,27)                1.501                                          !
 ! R29   R(27,28)                1.3742                                         !
 ! R30   R(27,30)                1.444                                          !
 ! R31   R(28,29)                1.0818                                         !
 ! R32   R(28,34)                1.3791                                         !
 ! R33   R(30,31)                1.4221                                         !
 ! R34   R(30,32)                1.4096                                         !
 ! R35   R(31,34)                1.3805                                         !
 ! R36   R(31,38)                1.3985                                         !
 ! R37   R(32,33)                1.0893                                         !
 ! R38   R(32,40)                1.3906                                         !
 ! R39   R(34,35)                1.0089                                         !
 ! R40   R(36,37)                1.0859                                         !
 ! R41   R(36,38)                1.3905                                         !
 ! R42   R(36,40)                1.4099                                         !
 ! R43   R(38,39)                1.0865                                         !
 ! R44   R(40,41)                1.0862                                         !
 ! R45   R(42,43)                1.0352                                         !
 ! R46   R(42,44)                1.4666                                         !
 ! R47   R(44,45)                1.0968                                         !
 ! R48   R(44,46)                1.5449                                         !
 ! R49   R(44,47)                1.5569                                         !
 ! R50   R(46,49)                1.2257                                         !
 ! R51   R(46,56)                1.3628                                         !
 ! R52   R(47,48)                1.0984                                         !
 ! R53   R(47,50)                1.5224                                         !
 ! R54   R(47,54)                1.4432                                         !
 ! R55   R(50,51)                1.0898                                         !
 ! R56   R(50,52)                1.0943                                         !
 ! R57   R(50,53)                1.0961                                         !
 ! R58   R(54,55)                1.8582                                         !
 ! R59   R(56,57)                1.0136                                         !
 ! R60   R(56,58)                1.4572                                         !
 ! R61   R(58,59)                1.0941                                         !
 ! R62   R(58,60)                1.5245                                         !
 ! R63   R(58,61)                1.5516                                         !
 ! R64   R(60,64)                1.2137                                         !
 ! R65   R(60,79)                1.3431                                         !
 ! R66   R(61,62)                1.0956                                         !
 ! R67   R(61,63)                1.0983                                         !
 ! R68   R(61,65)                1.5424                                         !
 ! R69   R(65,66)                1.0968                                         !
 ! R70   R(65,67)                1.0926                                         !
 ! R71   R(65,68)                1.5384                                         !
 ! R72   R(68,69)                1.0949                                         !
 ! R73   R(68,70)                1.0957                                         !
 ! R74   R(68,71)                1.4744                                         !
 ! R75   R(71,72)                1.0116                                         !
 ! R76   R(71,78)                1.3819                                         !
 ! R77   R(73,74)                1.0119                                         !
 ! R78   R(73,75)                1.0119                                         !
 ! R79   R(73,78)                1.3815                                         !
 ! R80   R(76,77)                1.0209                                         !
 ! R81   R(76,78)                1.3015                                         !
 ! R82   R(79,80)                0.9769                                         !
 ! A1    A(2,1,3)              108.6739                                         !
 ! A2    A(2,1,4)              108.7875                                         !
 ! A3    A(2,1,5)              113.0659                                         !
 ! A4    A(3,1,4)              110.8639                                         !
 ! A5    A(3,1,5)              102.2746                                         !
 ! A6    A(4,1,5)              112.9823                                         !
 ! A7    A(1,5,6)              108.3224                                         !
 ! A8    A(1,5,7)              102.9149                                         !
 ! A9    A(1,5,8)              110.7877                                         !
 ! A10   A(6,5,7)              113.0249                                         !
 ! A11   A(6,5,8)              111.3509                                         !
 ! A12   A(7,5,8)              110.1214                                         !
 ! A13   A(5,7,11)             117.3249                                         !
 ! A14   A(5,7,18)             116.9127                                         !
 ! A15   A(11,7,18)            125.5699                                         !
 ! A16   A(5,8,9)              106.7141                                         !
 ! A17   A(5,8,10)             109.8492                                         !
 ! A18   A(5,8,12)             113.7348                                         !
 ! A19   A(9,8,10)             106.2934                                         !
 ! A20   A(9,8,12)             108.7922                                         !
 ! A21   A(10,8,12)            111.0882                                         !
 ! A22   A(7,11,81)            113.2942                                         !
 ! A23   A(8,12,13)            111.0406                                         !
 ! A24   A(8,12,14)            111.4129                                         !
 ! A25   A(8,12,15)            110.867                                          !
 ! A26   A(13,12,14)           107.0037                                         !
 ! A27   A(13,12,15)           109.9983                                         !
 ! A28   A(14,12,15)           106.3449                                         !
 ! A29   A(12,15,16)           121.457                                          !
 ! A30   A(12,15,17)           115.5012                                         !
 ! A31   A(16,15,17)           122.9969                                         !
 ! A32   A(7,18,19)            118.7341                                         !
 ! A33   A(7,18,20)            121.4495                                         !
 ! A34   A(19,18,20)           117.0973                                         !
 ! A35   A(18,20,21)           108.4977                                         !
 ! A36   A(18,20,22)           106.7167                                         !
 ! A37   A(18,20,23)           110.1126                                         !
 ! A38   A(21,20,22)           111.2403                                         !
 ! A39   A(21,20,23)           110.3612                                         !
 ! A40   A(22,20,23)           109.8369                                         !
 ! A41   A(20,22,26)           119.6282                                         !
 ! A42   A(20,22,42)           115.7866                                         !
 ! A43   A(26,22,42)           124.5765                                         !
 ! A44   A(20,23,24)           107.1206                                         !
 ! A45   A(20,23,25)           108.2165                                         !
 ! A46   A(20,23,27)           114.1628                                         !
 ! A47   A(24,23,25)           106.3238                                         !
 ! A48   A(24,23,27)           111.2037                                         !
 ! A49   A(25,23,27)           109.4726                                         !
 ! A50   A(23,27,28)           128.1414                                         !
 ! A51   A(23,27,30)           125.4206                                         !
 ! A52   A(28,27,30)           106.3845                                         !
 ! A53   A(27,28,29)           129.7469                                         !
 ! A54   A(27,28,34)           109.9347                                         !
 ! A55   A(29,28,34)           120.3183                                         !
 ! A56   A(27,30,31)           107.2035                                         !
 ! A57   A(27,30,32)           133.9383                                         !
 ! A58   A(31,30,32)           118.8579                                         !
 ! A59   A(30,31,34)           107.0386                                         !
 ! A60   A(30,31,38)           122.2471                                         !
 ! A61   A(34,31,38)           130.7143                                         !
 ! A62   A(30,32,33)           120.887                                          !
 ! A63   A(30,32,40)           118.9969                                         !
 ! A64   A(33,32,40)           120.0545                                         !
 ! A65   A(28,34,31)           109.4353                                         !
 ! A66   A(28,34,35)           125.0359                                         !
 ! A67   A(31,34,35)           125.3492                                         !
 ! A68   A(37,36,38)           119.3227                                         !
 ! A69   A(37,36,40)           119.3796                                         !
 ! A70   A(38,36,40)           121.2925                                         !
 ! A71   A(31,38,36)           117.5658                                         !
 ! A72   A(31,38,39)           121.3833                                         !
 ! A73   A(36,38,39)           121.0502                                         !
 ! A74   A(32,40,36)           121.0354                                         !
 ! A75   A(32,40,41)           119.6579                                         !
 ! A76   A(36,40,41)           119.2921                                         !
 ! A77   A(22,42,43)           118.4177                                         !
 ! A78   A(22,42,44)           121.1183                                         !
 ! A79   A(43,42,44)           120.4591                                         !
 ! A80   A(42,44,45)           105.9989                                         !
 ! A81   A(42,44,46)           111.0805                                         !
 ! A82   A(42,44,47)           112.006                                          !
 ! A83   A(45,44,46)           108.4921                                         !
 ! A84   A(45,44,47)           107.7304                                         !
 ! A85   A(46,44,47)           111.2742                                         !
 ! A86   A(44,46,49)           121.9631                                         !
 ! A87   A(44,46,56)           115.2803                                         !
 ! A88   A(49,46,56)           122.7563                                         !
 ! A89   A(44,47,48)           108.4801                                         !
 ! A90   A(44,47,50)           113.4441                                         !
 ! A91   A(44,47,54)           109.9627                                         !
 ! A92   A(48,47,50)           109.9483                                         !
 ! A93   A(48,47,54)           108.5396                                         !
 ! A94   A(50,47,54)           106.3615                                         !
 ! A95   A(47,50,51)           110.0988                                         !
 ! A96   A(47,50,52)           109.387                                          !
 ! A97   A(47,50,53)           110.7684                                         !
 ! A98   A(51,50,52)           109.1511                                         !
 ! A99   A(51,50,53)           109.1462                                         !
 ! A100  A(52,50,53)           108.2501                                         !
 ! A101  A(47,54,55)           113.1803                                         !
 ! A102  A(46,56,57)           119.4621                                         !
 ! A103  A(46,56,58)           122.4072                                         !
 ! A104  A(57,56,58)           115.2721                                         !
 ! A105  A(56,58,59)           108.47                                           !
 ! A106  A(56,58,60)           107.1537                                         !
 ! A107  A(56,58,61)           112.4812                                         !
 ! A108  A(59,58,60)           109.8101                                         !
 ! A109  A(59,58,61)           109.638                                          !
 ! A110  A(60,58,61)           109.2382                                         !
 ! A111  A(58,60,64)           124.0461                                         !
 ! A112  A(58,60,79)           111.9788                                         !
 ! A113  A(64,60,79)           123.9274                                         !
 ! A114  A(58,61,62)           108.7054                                         !
 ! A115  A(58,61,63)           106.5951                                         !
 ! A116  A(58,61,65)           113.4321                                         !
 ! A117  A(62,61,63)           106.6971                                         !
 ! A118  A(62,61,65)           110.5876                                         !
 ! A119  A(63,61,65)           110.528                                          !
 ! A120  A(61,65,66)           109.7438                                         !
 ! A121  A(61,65,67)           110.37                                           !
 ! A122  A(61,65,68)           113.7095                                         !
 ! A123  A(66,65,67)           105.9485                                         !
 ! A124  A(66,65,68)           108.3489                                         !
 ! A125  A(67,65,68)           108.4069                                         !
 ! A126  A(65,68,69)           111.3915                                         !
 ! A127  A(65,68,70)           109.6647                                         !
 ! A128  A(65,68,71)           114.2427                                         !
 ! A129  A(69,68,70)           105.9255                                         !
 ! A130  A(69,68,71)           105.9478                                         !
 ! A131  A(70,68,71)           109.2875                                         !
 ! A132  A(68,71,72)           113.6817                                         !
 ! A133  A(68,71,78)           123.0803                                         !
 ! A134  A(72,71,78)           112.422                                          !
 ! A135  A(74,73,75)           112.9961                                         !
 ! A136  A(74,73,78)           112.8231                                         !
 ! A137  A(75,73,78)           116.5947                                         !
 ! A138  A(77,76,78)           110.1346                                         !
 ! A139  A(71,78,73)           115.4749                                         !
 ! A140  A(71,78,76)           125.7436                                         !
 ! A141  A(73,78,76)           118.7794                                         !
 ! A142  A(60,79,80)           107.349                                          !
 ! D1    D(2,1,5,6)             23.5689                                         !
 ! D2    D(2,1,5,7)            -96.3417                                         !
 ! D3    D(2,1,5,8)            145.9764                                         !
 ! D4    D(3,1,5,6)            140.2351                                         !
 ! D5    D(3,1,5,7)             20.3246                                         !
 ! D6    D(3,1,5,8)            -97.3574                                         !
 ! D7    D(4,1,5,6)           -100.5438                                         !
 ! D8    D(4,1,5,7)            139.5456                                         !
 ! D9    D(4,1,5,8)             21.8637                                         !
 ! D10   D(1,5,7,11)           -23.0475                                         !
 ! D11   D(1,5,7,18)           161.7104                                         !
 ! D12   D(6,5,7,11)          -139.6559                                         !
 ! D13   D(6,5,7,18)            45.1019                                         !
 ! D14   D(8,5,7,11)            95.1035                                         !
 ! D15   D(8,5,7,18)           -80.1386                                         !
 ! D16   D(1,5,8,9)            175.3899                                         !
 ! D17   D(1,5,8,10)           -69.786                                          !
 ! D18   D(1,5,8,12)            55.4259                                         !
 ! D19   D(6,5,8,9)            -63.9845                                         !
 ! D20   D(6,5,8,10)            50.8396                                         !
 ! D21   D(6,5,8,12)           176.0515                                         !
 ! D22   D(7,5,8,9)             62.2057                                         !
 ! D23   D(7,5,8,10)           177.0298                                         !
 ! D24   D(7,5,8,12)           -57.7583                                         !
 ! D25   D(5,7,11,81)         -106.6022                                         !
 ! D26   D(18,7,11,81)          68.1808                                         !
 ! D27   D(5,7,18,19)           -4.6423                                         !
 ! D28   D(5,7,18,20)          156.132                                          !
 ! D29   D(11,7,18,19)        -179.4445                                         !
 ! D30   D(11,7,18,20)         -18.6702                                         !
 ! D31   D(5,8,12,13)           37.3324                                         !
 ! D32   D(5,8,12,14)          -81.8379                                         !
 ! D33   D(5,8,12,15)          159.9333                                         !
 ! D34   D(9,8,12,13)          -81.4494                                         !
 ! D35   D(9,8,12,14)          159.3802                                         !
 ! D36   D(9,8,12,15)           41.1515                                         !
 ! D37   D(10,8,12,13)         161.8809                                         !
 ! D38   D(10,8,12,14)          42.7105                                         !
 ! D39   D(10,8,12,15)         -75.5182                                         !
 ! D40   D(8,12,15,16)          36.5013                                         !
 ! D41   D(8,12,15,17)        -145.8669                                         !
 ! D42   D(13,12,15,16)        159.7051                                         !
 ! D43   D(13,12,15,17)        -22.663                                          !
 ! D44   D(14,12,15,16)        -84.7615                                         !
 ! D45   D(14,12,15,17)         92.8704                                         !
 ! D46   D(7,18,20,21)          55.3746                                         !
 ! D47   D(7,18,20,22)         -64.5824                                         !
 ! D48   D(7,18,20,23)         176.2538                                         !
 ! D49   D(19,18,20,21)       -143.5512                                         !
 ! D50   D(19,18,20,22)         96.4918                                         !
 ! D51   D(19,18,20,23)        -22.672                                          !
 ! D52   D(18,20,22,26)        -34.5968                                         !
 ! D53   D(18,20,22,42)        146.424                                          !
 ! D54   D(21,20,22,26)       -152.7704                                         !
 ! D55   D(21,20,22,42)         28.2505                                         !
 ! D56   D(23,20,22,26)         84.7459                                         !
 ! D57   D(23,20,22,42)        -94.2333                                         !
 ! D58   D(18,20,23,24)       -166.7056                                         !
 ! D59   D(18,20,23,25)         79.0275                                         !
 ! D60   D(18,20,23,27)        -43.133                                          !
 ! D61   D(21,20,23,24)        -46.9505                                         !
 ! D62   D(21,20,23,25)       -161.2175                                         !
 ! D63   D(21,20,23,27)         76.6221                                         !
 ! D64   D(22,20,23,24)         76.0526                                         !
 ! D65   D(22,20,23,25)        -38.2144                                         !
 ! D66   D(22,20,23,27)       -160.3748                                         !
 ! D67   D(20,22,42,43)         -2.5273                                         !
 ! D68   D(20,22,42,44)        178.2734                                         !
 ! D69   D(26,22,42,43)        178.5504                                         !
 ! D70   D(26,22,42,44)         -0.6488                                         !
 ! D71   D(20,23,27,28)        -88.6823                                         !
 ! D72   D(20,23,27,30)         88.2892                                         !
 ! D73   D(24,23,27,28)         32.6587                                         !
 ! D74   D(24,23,27,30)       -150.3698                                         !
 ! D75   D(25,23,27,28)        149.8483                                         !
 ! D76   D(25,23,27,30)        -33.1803                                         !
 ! D77   D(23,27,28,29)         -3.1815                                         !
 ! D78   D(23,27,28,34)        176.8315                                         !
 ! D79   D(30,27,28,29)        179.3906                                         !
 ! D80   D(30,27,28,34)         -0.5964                                         !
 ! D81   D(23,27,30,31)       -177.0362                                         !
 ! D82   D(23,27,30,32)          3.1669                                         !
 ! D83   D(28,27,30,31)          0.4814                                         !
 ! D84   D(28,27,30,32)       -179.3155                                         !
 ! D85   D(27,28,34,31)          0.4927                                         !
 ! D86   D(27,28,34,35)        175.8315                                         !
 ! D87   D(29,28,34,31)       -179.4958                                         !
 ! D88   D(29,28,34,35)         -4.1569                                         !
 ! D89   D(27,30,31,34)         -0.1931                                         !
 ! D90   D(27,30,31,38)        179.7339                                         !
 ! D91   D(32,30,31,34)        179.64                                           !
 ! D92   D(32,30,31,38)         -0.433                                          !
 ! D93   D(27,30,32,33)          3.3389                                         !
 ! D94   D(27,30,32,40)       -179.5145                                         !
 ! D95   D(31,30,32,33)       -176.4396                                         !
 ! D96   D(31,30,32,40)          0.707                                          !
 ! D97   D(30,31,34,28)         -0.1704                                         !
 ! D98   D(30,31,34,35)       -175.4911                                         !
 ! D99   D(38,31,34,28)        179.911                                          !
 ! D100  D(38,31,34,35)          4.5903                                         !
 ! D101  D(30,31,38,36)         -0.1649                                         !
 ! D102  D(30,31,38,39)        179.5458                                         !
 ! D103  D(34,31,38,36)        179.7431                                         !
 ! D104  D(34,31,38,39)         -0.5462                                         !
 ! D105  D(30,32,40,36)         -0.4035                                         !
 ! D106  D(30,32,40,41)       -179.0047                                         !
 ! D107  D(33,32,40,36)        176.7674                                         !
 ! D108  D(33,32,40,41)         -1.8337                                         !
 ! D109  D(37,36,38,31)        179.6563                                         !
 ! D110  D(37,36,38,39)         -0.0554                                         !
 ! D111  D(40,36,38,31)          0.4871                                         !
 ! D112  D(40,36,38,39)       -179.2246                                         !
 ! D113  D(37,36,40,32)       -179.3788                                         !
 ! D114  D(37,36,40,41)         -0.7726                                         !
 ! D115  D(38,36,40,32)         -0.2101                                         !
 ! D116  D(38,36,40,41)        178.3961                                         !
 ! D117  D(22,42,44,45)        -21.3085                                         !
 ! D118  D(22,42,44,46)       -138.9634                                         !
 ! D119  D(22,42,44,47)         95.9228                                         !
 ! D120  D(43,42,44,45)        159.5085                                         !
 ! D121  D(43,42,44,46)         41.8536                                         !
 ! D122  D(43,42,44,47)        -83.2602                                         !
 ! D123  D(42,44,46,49)       -142.7412                                         !
 ! D124  D(42,44,46,56)         37.0763                                         !
 ! D125  D(45,44,46,49)        101.1301                                         !
 ! D126  D(45,44,46,56)        -79.0524                                         !
 ! D127  D(47,44,46,49)        -17.2176                                         !
 ! D128  D(47,44,46,56)        162.5998                                         !
 ! D129  D(42,44,47,48)         74.5574                                         !
 ! D130  D(42,44,47,50)       -162.9616                                         !
 ! D131  D(42,44,47,54)        -44.0023                                         !
 ! D132  D(45,44,47,48)       -169.2545                                         !
 ! D133  D(45,44,47,50)        -46.7735                                         !
 ! D134  D(45,44,47,54)         72.1858                                         !
 ! D135  D(46,44,47,48)        -50.4494                                         !
 ! D136  D(46,44,47,50)         72.0316                                         !
 ! D137  D(46,44,47,54)       -169.0091                                         !
 ! D138  D(44,46,56,57)         10.7782                                         !
 ! D139  D(44,46,56,58)        170.7249                                         !
 ! D140  D(49,46,56,57)       -169.4059                                         !
 ! D141  D(49,46,56,58)         -9.4592                                         !
 ! D142  D(44,47,50,51)        -64.1887                                         !
 ! D143  D(44,47,50,52)        175.8707                                         !
 ! D144  D(44,47,50,53)         56.6278                                         !
 ! D145  D(48,47,50,51)         57.4757                                         !
 ! D146  D(48,47,50,52)        -62.4649                                         !
 ! D147  D(48,47,50,53)        178.2922                                         !
 ! D148  D(54,47,50,51)        174.804                                          !
 ! D149  D(54,47,50,52)         54.8634                                         !
 ! D150  D(54,47,50,53)        -64.3795                                         !
 ! D151  D(44,47,54,55)        -77.3564                                         !
 ! D152  D(48,47,54,55)        164.1205                                         !
 ! D153  D(50,47,54,55)         45.8593                                         !
 ! D154  D(46,56,58,59)        -19.1484                                         !
 ! D155  D(46,56,58,60)       -137.6408                                         !
 ! D156  D(46,56,58,61)        102.2975                                         !
 ! D157  D(57,56,58,59)        141.5736                                         !
 ! D158  D(57,56,58,60)         23.0812                                         !
 ! D159  D(57,56,58,61)        -96.9805                                         !
 ! D160  D(56,58,60,64)        -18.7284                                         !
 ! D161  D(56,58,60,79)        163.701                                          !
 ! D162  D(59,58,60,64)       -136.3481                                         !
 ! D163  D(59,58,60,79)         46.0813                                         !
 ! D164  D(61,58,60,64)        103.3832                                         !
 ! D165  D(61,58,60,79)        -74.1873                                         !
 ! D166  D(56,58,61,62)        171.3177                                         !
 ! D167  D(56,58,61,63)         56.6457                                         !
 ! D168  D(56,58,61,65)        -65.2218                                         !
 ! D169  D(59,58,61,62)        -67.9048                                         !
 ! D170  D(59,58,61,63)        177.4232                                         !
 ! D171  D(59,58,61,65)         55.5556                                         !
 ! D172  D(60,58,61,62)         52.4694                                         !
 ! D173  D(60,58,61,63)        -62.2026                                         !
 ! D174  D(60,58,61,65)        175.9298                                         !
 ! D175  D(58,60,79,80)        177.8014                                         !
 ! D176  D(64,60,79,80)          0.2274                                         !
 ! D177  D(58,61,65,66)        -93.4509                                         !
 ! D178  D(58,61,65,67)         22.9517                                         !
 ! D179  D(58,61,65,68)        145.0207                                         !
 ! D180  D(62,61,65,66)         28.9725                                         !
 ! D181  D(62,61,65,67)        145.375                                          !
 ! D182  D(62,61,65,68)        -92.5559                                         !
 ! D183  D(63,61,65,66)        146.9014                                         !
 ! D184  D(63,61,65,67)        -96.6961                                         !
 ! D185  D(63,61,65,68)         25.3729                                         !
 ! D186  D(61,65,68,69)         59.6656                                         !
 ! D187  D(61,65,68,70)        176.5971                                         !
 ! D188  D(61,65,68,71)        -60.3363                                         !
 ! D189  D(66,65,68,69)        -62.6361                                         !
 ! D190  D(66,65,68,70)         54.2955                                         !
 ! D191  D(66,65,68,71)        177.362                                          !
 ! D192  D(67,65,68,69)       -177.1854                                         !
 ! D193  D(67,65,68,70)        -60.2539                                         !
 ! D194  D(67,65,68,71)         62.8127                                         !
 ! D195  D(65,68,71,72)         85.2211                                         !
 ! D196  D(65,68,71,78)        -56.2935                                         !
 ! D197  D(69,68,71,72)        -37.7836                                         !
 ! D198  D(69,68,71,78)       -179.2982                                         !
 ! D199  D(70,68,71,72)       -151.5082                                         !
 ! D200  D(70,68,71,78)         66.9771                                         !
 ! D201  D(68,71,78,73)        -35.338                                          !
 ! D202  D(68,71,78,76)        144.1318                                         !
 ! D203  D(72,71,78,73)       -177.2757                                         !
 ! D204  D(72,71,78,76)          2.1942                                         !
 ! D205  D(74,73,78,71)       -162.3374                                         !
 ! D206  D(74,73,78,76)         18.1535                                         !
 ! D207  D(75,73,78,71)        -29.1257                                         !
 ! D208  D(75,73,78,76)        151.3652                                         !
 ! D209  D(77,76,78,71)         -5.5075                                         !
 ! D210  D(77,76,78,73)        173.9464                                         !
 --------------------------------------------------------------------------------
 Symmetry turned off by external request.
 Stoichiometry    C26H39N8O8(1+)
 Framework group  C1[X(C26H39N8O8)]
 Deg. of freedom   237
 Full point group                 C1      NOp   1
                          Input orientation:                          
 ---------------------------------------------------------------------
 Center     Atomic      Atomic             Coordinates (Angstroms)
 Number     Number       Type             X           Y           Z
 ---------------------------------------------------------------------
      1          7           0       -4.383516   -0.880189    2.305742
      2          1           0       -5.247809   -1.253705    1.901974
      3          1           0       -3.563481   -1.395292    1.884751
      4          1           0       -4.411907   -1.007826    3.321337
      5          6           0       -4.107220    0.557336    1.895680
      6          1           0       -5.055288    1.023096    1.616320
      7          6           0       -3.137741    0.395948    0.701924
      8          6           0       -3.417425    1.329709    3.038755
      9          1           0       -3.175726    2.321966    2.646923
     10          1           0       -4.124264    1.487601    3.860454
     11          8           0       -2.486847   -0.661395    0.634115
     12          6           0       -2.122545    0.666234    3.541766
     13          1           0       -1.564346    0.223801    2.717914
     14          1           0       -2.336904   -0.142453    4.256076
     15          6           0       -1.243354    1.679082    4.287240
     16          8           0       -1.725787    2.540568    4.983571
     17          8           0        0.074499    1.507569    4.150012
     18          7           0       -3.001840    1.440623   -0.108053
     19          1           0       -3.583961    2.257801    0.047455
     20          6           0       -1.796208    1.624060   -0.926234
     21          1           0       -1.648188    0.726256   -1.531841
     22          6           0       -0.618212    1.838145    0.057557
     23          6           0       -1.954560    2.872278   -1.839188
     24          1           0       -1.154746    2.829017   -2.586019
     25          1           0       -1.762854    3.766672   -1.233549
     26          8           0       -0.808455    2.442515    1.111344
     27          6           0       -3.301099    2.989194   -2.491957
     28          6           0       -3.710353    2.462813   -3.693603
     29          1           0       -3.149491    1.904259   -4.430992
     30          6           0       -4.453338    3.646800   -1.921754
     31          6           0       -5.532261    3.468181   -2.830805
     32          6           0       -4.677501    4.371864   -0.733863
     33          1           0       -3.861633    4.577951   -0.042111
     34          7           0       -5.045573    2.740598   -3.898271
     35          1           0       -5.563148    2.512639   -4.733724
     36          6           0       -7.003429    4.679485   -1.396294
     37          1           0       -7.982930    5.093817   -1.177049
     38          6           0       -6.809950    3.979668   -2.582224
     39          1           0       -7.622483    3.841094   -3.290119
     40          6           0       -5.948646    4.876228   -0.481636
     41          1           0       -6.129416    5.450350    0.422513
     42          7           0        0.580808    1.343753   -0.340873
     43          1           0        0.628113    0.829588   -1.238099
     44          6           0        1.782335    1.514005    0.482678
     45          1           0        1.578151    2.365801    1.142845
     46          6           0        3.010754    1.854076   -0.390291
     47          6           0        2.054366    0.272170    1.381382
     48          1           0        2.447367   -0.535636    0.749334
     49          8           0        4.127336    1.416046   -0.137970
     50          6           0        3.018604    0.552182    2.525672
     51          1           0        4.002093    0.808765    2.132395
     52          1           0        3.104798   -0.339297    3.154463
     53          1           0        2.653889    1.377320    3.148146
     54          8           0        0.823797   -0.176623    1.987280
     55          1           0        0.290341    0.873903    3.424173
     56          7           0        2.760968    2.667406   -1.454907
     57          1           0        1.862333    3.130518   -1.528461
     58          6           0        3.826891    3.245775   -2.262892
     59          1           0        4.756845    3.208719   -1.687722
     60          6           0        3.446541    4.696334   -2.537250
     61          6           0        4.018192    2.503470   -3.611933
     62          1           0        4.717759    3.075316   -4.231498
     63          1           0        3.047587    2.530326   -4.125117
     64          8           0        2.320460    5.135759   -2.428450
     65          6           0        4.503261    1.048572   -3.448035
     66          1           0        5.597850    1.013872   -3.508768
     67          1           0        4.245540    0.671276   -2.455574
     68          6           0        3.929057    0.082959   -4.499011
     69          1           0        4.202145    0.389185   -5.514139
     70          1           0        4.361625   -0.913990   -4.359103
     71          7           0        2.458188   -0.018487   -4.488355
     72          1           0        1.997602    0.697028   -5.035303
     73          7           0        2.334220   -1.302578   -2.539975
     74          1           0        1.681144   -1.741343   -1.903584
     75          1           0        2.959635   -1.963640   -2.982572
     76          7           0        0.569311    0.103476   -3.031648
     77          1           0        0.296415    0.848709   -3.673784
     78          6           0        1.734553   -0.370783   -3.365019
     79          8           0        4.495161    5.418829   -2.964148
     80          1           0        4.170377    6.320792   -3.151868
     81          1           0        0.183581   -0.344287    1.275045
 ---------------------------------------------------------------------
 Rotational constants (GHZ):           0.0925419           0.0572961           0.0449114
 Standard basis: 6-31G(d) (6D, 7F)
   708 basis functions,  1332 primitive gaussians,   708 cartesian basis functions
   157 alpha electrons      157 beta electrons
       nuclear repulsion energy      5445.4104528087 Hartrees.
 NAtoms=   81 NActive=   81 NUniq=   81 SFac= 1.00D+00 NAtFMM=   60 NAOKFM=T Big=T
 Integral buffers will be    131072 words long.
 Raffenetti 2 integral format.
 Two-electron integral symmetry is turned off.
 One-electron integrals computed using PRISM.
 NBasis=   708 RedAO= T EigKep=  3.79D-04  NBF=   708
 NBsUse=   708 1.00D-06 EigRej= -1.00D+00 NBFU=   708
 Initial guess from the checkpoint file:  "conf-538.chk"
 B after Tr=     0.000000    0.000000    0.000000
         Rot=    1.000000    0.000000    0.000000    0.000000 Ang=   0.00 deg.
 Requested convergence on RMS density matrix=1.00D-08 within 128 cycles.
 Requested convergence on MAX density matrix=1.00D-06.
 Requested convergence on             energy=1.00D-06.
 No special actions if energy rises.
 SCF Done:  E(RB3LYP) =  -2053.92371724     A.U. after    1 cycles
            NFock=  1  Conv=0.74D-08     -V/T= 2.0093

 **********************************************************************

            Population analysis using the SCF Density.

 **********************************************************************

 Alpha  occ. eigenvalues --  -19.28429 -19.27182 -19.24915 -19.24721 -19.22975
 Alpha  occ. eigenvalues --  -19.21438 -19.19985 -19.19695 -14.60672 -14.49674
 Alpha  occ. eigenvalues --  -14.46863 -14.45441 -14.44575 -14.44407 -14.44086
 Alpha  occ. eigenvalues --  -14.38795 -10.43643 -10.40905 -10.40837 -10.38856
 Alpha  occ. eigenvalues --  -10.38619 -10.38451 -10.37543 -10.34390 -10.32794
 Alpha  occ. eigenvalues --  -10.32638 -10.32394 -10.32025 -10.31233 -10.31052
 Alpha  occ. eigenvalues --  -10.30619 -10.30480 -10.29999 -10.27890 -10.27513
 Alpha  occ. eigenvalues --  -10.27468 -10.27437 -10.27413 -10.26779 -10.26683
 Alpha  occ. eigenvalues --  -10.26427 -10.24002  -1.19467  -1.19443  -1.15887
 Alpha  occ. eigenvalues --   -1.14479  -1.13500  -1.12119  -1.11467  -1.10536
 Alpha  occ. eigenvalues --   -1.07878  -1.07481  -1.06803  -1.06278  -1.02114
 Alpha  occ. eigenvalues --   -1.00513  -0.98205  -0.94114  -0.94049  -0.92508
 Alpha  occ. eigenvalues --   -0.90479  -0.88313  -0.86945  -0.85753  -0.84532
 Alpha  occ. eigenvalues --   -0.83000  -0.82143  -0.80762  -0.78969  -0.77418
 Alpha  occ. eigenvalues --   -0.76193  -0.75631  -0.74300  -0.73107  -0.72178
 Alpha  occ. eigenvalues --   -0.71155  -0.70876  -0.70634  -0.68398  -0.67995
 Alpha  occ. eigenvalues --   -0.67815  -0.67702  -0.66991  -0.66750  -0.66299
 Alpha  occ. eigenvalues --   -0.64760  -0.64520  -0.63090  -0.62879  -0.62476
 Alpha  occ. eigenvalues --   -0.61121  -0.60375  -0.60020  -0.59082  -0.58854
 Alpha  occ. eigenvalues --   -0.57860  -0.57596  -0.57134  -0.56894  -0.56521
 Alpha  occ. eigenvalues --   -0.55777  -0.55730  -0.55540  -0.54659  -0.54460
 Alpha  occ. eigenvalues --   -0.54171  -0.53790  -0.52873  -0.52577  -0.52171
 Alpha  occ. eigenvalues --   -0.51809  -0.51669  -0.51618  -0.51231  -0.51087
 Alpha  occ. eigenvalues --   -0.50650  -0.50525  -0.49967  -0.49923  -0.49588
 Alpha  occ. eigenvalues --   -0.49039  -0.48402  -0.47998  -0.47911  -0.47358
 Alpha  occ. eigenvalues --   -0.47239  -0.46752  -0.46464  -0.46117  -0.45528
 Alpha  occ. eigenvalues --   -0.44609  -0.44253  -0.43873  -0.43612  -0.43060
 Alpha  occ. eigenvalues --   -0.42889  -0.42452  -0.42223  -0.42122  -0.41962
 Alpha  occ. eigenvalues --   -0.41307  -0.40466  -0.39899  -0.38100  -0.37499
 Alpha  occ. eigenvalues --   -0.37185  -0.36833  -0.36303  -0.35690  -0.35280
 Alpha  occ. eigenvalues --   -0.35114  -0.34110  -0.33667  -0.32913  -0.32013
 Alpha  occ. eigenvalues --   -0.30970  -0.29161
 Alpha virt. eigenvalues --   -0.13041  -0.11508  -0.10108  -0.08263  -0.07878
 Alpha virt. eigenvalues --   -0.07101  -0.06478  -0.06368  -0.05317  -0.04997
 Alpha virt. eigenvalues --   -0.04544  -0.03709  -0.02793  -0.02254  -0.01265
 Alpha virt. eigenvalues --   -0.00676  -0.00345  -0.00291  -0.00141   0.00127
 Alpha virt. eigenvalues --    0.01256   0.02418   0.02751   0.03004   0.03383
 Alpha virt. eigenvalues --    0.03864   0.04261   0.04434   0.04998   0.05286
 Alpha virt. eigenvalues --    0.05978   0.05996   0.06288   0.06702   0.06891
 Alpha virt. eigenvalues --    0.07534   0.07710   0.08208   0.08413   0.08517
 Alpha virt. eigenvalues --    0.08812   0.09189   0.09411   0.09584   0.10211
 Alpha virt. eigenvalues --    0.10289   0.10737   0.10839   0.11405   0.11686
 Alpha virt. eigenvalues --    0.12036   0.12152   0.12746   0.12940   0.13204
 Alpha virt. eigenvalues --    0.13598   0.13972   0.14102   0.14849   0.15073
 Alpha virt. eigenvalues --    0.15653   0.16258   0.16773   0.16937   0.17316
 Alpha virt. eigenvalues --    0.17702   0.18107   0.19075   0.19438   0.19517
 Alpha virt. eigenvalues --    0.19890   0.20600   0.21497   0.23609   0.24178
 Alpha virt. eigenvalues --    0.24465   0.25166   0.26266   0.26490   0.26762
 Alpha virt. eigenvalues --    0.27831   0.28128   0.29338   0.30562   0.30843
 Alpha virt. eigenvalues --    0.31434   0.32995   0.34484   0.35183   0.35284
 Alpha virt. eigenvalues --    0.37621   0.39312   0.39400   0.40268   0.40605
 Alpha virt. eigenvalues --    0.41324   0.41838   0.42424   0.42478   0.42662
 Alpha virt. eigenvalues --    0.43073   0.43857   0.44072   0.44796   0.45400
 Alpha virt. eigenvalues --    0.46018   0.46648   0.46904   0.46996   0.47387
 Alpha virt. eigenvalues --    0.47622   0.47831   0.48052   0.48379   0.48750
 Alpha virt. eigenvalues --    0.49229   0.49704   0.49979   0.50828   0.50947
 Alpha virt. eigenvalues --    0.51404   0.51742   0.52102   0.52510   0.52741
 Alpha virt. eigenvalues --    0.52795   0.52907   0.53468   0.53732   0.54200
 Alpha virt. eigenvalues --    0.54319   0.54713   0.54768   0.55067   0.55618
 Alpha virt. eigenvalues --    0.55630   0.56289   0.56641   0.57420   0.57601
 Alpha virt. eigenvalues --    0.57768   0.58575   0.58936   0.59077   0.59511
 Alpha virt. eigenvalues --    0.60091   0.60328   0.60730   0.60906   0.61748
 Alpha virt. eigenvalues --    0.62682   0.63282   0.63429   0.64101   0.64431
 Alpha virt. eigenvalues --    0.65160   0.65972   0.66475   0.67420   0.67992
 Alpha virt. eigenvalues --    0.68042   0.68500   0.69143   0.69463   0.69601
 Alpha virt. eigenvalues --    0.70809   0.71071   0.71512   0.71678   0.72110
 Alpha virt. eigenvalues --    0.72592   0.72791   0.73043   0.73404   0.73519
 Alpha virt. eigenvalues --    0.73930   0.74757   0.74977   0.75227   0.75356
 Alpha virt. eigenvalues --    0.75914   0.76405   0.76606   0.76870   0.77129
 Alpha virt. eigenvalues --    0.77702   0.77945   0.78328   0.78663   0.78872
 Alpha virt. eigenvalues --    0.79212   0.79476   0.79876   0.80535   0.81045
 Alpha virt. eigenvalues --    0.81096   0.81429   0.81745   0.81895   0.82411
 Alpha virt. eigenvalues --    0.82848   0.83345   0.83628   0.84038   0.84451
 Alpha virt. eigenvalues --    0.84786   0.85195   0.85502   0.86194   0.86530
 Alpha virt. eigenvalues --    0.86850   0.87411   0.87653   0.88037   0.88226
 Alpha virt. eigenvalues --    0.88651   0.89276   0.89910   0.90504   0.90884
 Alpha virt. eigenvalues --    0.91334   0.92123   0.92664   0.92891   0.93012
 Alpha virt. eigenvalues --    0.94484   0.94997   0.95528   0.95886   0.96083
 Alpha virt. eigenvalues --    0.96821   0.97224   0.97994   0.98444   0.98995
 Alpha virt. eigenvalues --    1.00007   1.00538   1.01363   1.01674   1.02379
 Alpha virt. eigenvalues --    1.03003   1.03954   1.04355   1.04816   1.05315
 Alpha virt. eigenvalues --    1.06294   1.06824   1.07031   1.07188   1.07468
 Alpha virt. eigenvalues --    1.08258   1.08984   1.11111   1.11493   1.12689
 Alpha virt. eigenvalues --    1.13598   1.14062   1.15063   1.15404   1.15774
 Alpha virt. eigenvalues --    1.16011   1.16871   1.17790   1.18708   1.21061
 Alpha virt. eigenvalues --    1.22168   1.23478   1.23727   1.24168   1.24706
 Alpha virt. eigenvalues --    1.25120   1.25212   1.26050   1.27035   1.28541
 Alpha virt. eigenvalues --    1.29084   1.29322   1.30244   1.31045   1.31786
 Alpha virt. eigenvalues --    1.32306   1.32771   1.33607   1.33829   1.34395
 Alpha virt. eigenvalues --    1.34733   1.36081   1.36532   1.37857   1.38004
 Alpha virt. eigenvalues --    1.38512   1.39020   1.39782   1.40507   1.41895
 Alpha virt. eigenvalues --    1.42403   1.42494   1.43138   1.43740   1.44710
 Alpha virt. eigenvalues --    1.44854   1.45939   1.47610   1.49026   1.49485
 Alpha virt. eigenvalues --    1.50198   1.50818   1.51733   1.52423   1.52938
 Alpha virt. eigenvalues --    1.54407   1.55430   1.56701   1.56887   1.58300
 Alpha virt. eigenvalues --    1.58929   1.59556   1.60439   1.61647   1.61867
 Alpha virt. eigenvalues --    1.62618   1.62954   1.63424   1.63779   1.64403
 Alpha virt. eigenvalues --    1.65117   1.66312   1.66774   1.67330   1.68202
 Alpha virt. eigenvalues --    1.68476   1.68688   1.69111   1.69845   1.70217
 Alpha virt. eigenvalues --    1.70823   1.71045   1.71505   1.71951   1.72628
 Alpha virt. eigenvalues --    1.72864   1.73405   1.73922   1.74224   1.74575
 Alpha virt. eigenvalues --    1.74961   1.75301   1.75589   1.76821   1.77610
 Alpha virt. eigenvalues --    1.78231   1.78712   1.78972   1.79738   1.79868
 Alpha virt. eigenvalues --    1.80179   1.80687   1.81096   1.81770   1.82335
 Alpha virt. eigenvalues --    1.82672   1.83168   1.83665   1.84216   1.85137
 Alpha virt. eigenvalues --    1.85366   1.86494   1.86606   1.86785   1.87558
 Alpha virt. eigenvalues --    1.87976   1.88939   1.89566   1.89960   1.90870
 Alpha virt. eigenvalues --    1.91054   1.91655   1.92182   1.92534   1.93433
 Alpha virt. eigenvalues --    1.94062   1.94809   1.94991   1.95856   1.96287
 Alpha virt. eigenvalues --    1.97385   1.97671   1.98292   1.98785   1.98956
 Alpha virt. eigenvalues --    1.99791   2.00284   2.01531   2.02402   2.02549
 Alpha virt. eigenvalues --    2.03538   2.04540   2.05372   2.05954   2.06640
 Alpha virt. eigenvalues --    2.07007   2.07806   2.09310   2.09818   2.10301
 Alpha virt. eigenvalues --    2.12052   2.12569   2.13649   2.13986   2.14927
 Alpha virt. eigenvalues --    2.15866   2.15993   2.17210   2.17306   2.17842
 Alpha virt. eigenvalues --    2.18632   2.19178   2.19263   2.20771   2.22573
 Alpha virt. eigenvalues --    2.22762   2.24282   2.24621   2.24823   2.25350
 Alpha virt. eigenvalues --    2.26906   2.27473   2.28325   2.29287   2.29434
 Alpha virt. eigenvalues --    2.30510   2.31071   2.31210   2.31400   2.32924
 Alpha virt. eigenvalues --    2.33999   2.34902   2.35325   2.35865   2.36560
 Alpha virt. eigenvalues --    2.37109   2.38062   2.39218   2.39777   2.40706
 Alpha virt. eigenvalues --    2.41392   2.42300   2.42541   2.44547   2.45872
 Alpha virt. eigenvalues --    2.47089   2.47802   2.48260   2.48527   2.48969
 Alpha virt. eigenvalues --    2.49952   2.51177   2.52196   2.52439   2.53186
 Alpha virt. eigenvalues --    2.53594   2.54268   2.54650   2.55372   2.55576
 Alpha virt. eigenvalues --    2.57232   2.58206   2.58611   2.59410   2.61080
 Alpha virt. eigenvalues --    2.61312   2.62751   2.62981   2.63438   2.65466
 Alpha virt. eigenvalues --    2.65936   2.67707   2.68443   2.68833   2.69268
 Alpha virt. eigenvalues --    2.69959   2.73023   2.74246   2.74459   2.75640
 Alpha virt. eigenvalues --    2.76844   2.77808   2.79281   2.80157   2.81872
 Alpha virt. eigenvalues --    2.84186   2.87108   2.87974   2.88694   2.89176
 Alpha virt. eigenvalues --    2.90541   2.91051   2.91821   2.94488   2.95470
 Alpha virt. eigenvalues --    2.96842   3.03092   3.03280   3.04245   3.04864
 Alpha virt. eigenvalues --    3.07166   3.11112   3.15420   3.35355   3.63013
 Alpha virt. eigenvalues --    3.75186   3.77922   3.82046   3.83469   3.92002
 Alpha virt. eigenvalues --    3.92888   3.94578   3.96706   3.97289   4.01267
 Alpha virt. eigenvalues --    4.01370   4.03959   4.05560   4.05991   4.08039
 Alpha virt. eigenvalues --    4.09233   4.11611   4.11776   4.14080   4.15582
 Alpha virt. eigenvalues --    4.16889   4.19849   4.21393   4.22903   4.24362
 Alpha virt. eigenvalues --    4.27868   4.28503   4.30509   4.32845   4.33572
 Alpha virt. eigenvalues --    4.34606   4.42106   4.45691   4.46775   4.47444
 Alpha virt. eigenvalues --    4.49903   4.52052   4.54182   4.59163   4.63590
 Alpha virt. eigenvalues --    4.70988
          Condensed to atoms (all electrons):
 Mulliken charges:
               1
     1  N   -0.748227
     2  H    0.418372
     3  H    0.430510
     4  H    0.418579
     5  C   -0.137433
     6  H    0.216972
     7  C    0.662031
     8  C   -0.289374
     9  H    0.226183
    10  H    0.195214
    11  O   -0.554833
    12  C   -0.426316
    13  H    0.178452
    14  H    0.164913
    15  C    0.636238
    16  O   -0.450596
    17  O   -0.597578
    18  N   -0.581961
    19  H    0.366933
    20  C   -0.046041
    21  H    0.207445
    22  C    0.587516
    23  C   -0.415898
    24  H    0.170375
    25  H    0.191776
    26  O   -0.533444
    27  C    0.074323
    28  C    0.007629
    29  H    0.161306
    30  C    0.066239
    31  C    0.316226
    32  C   -0.260136
    33  H    0.144067
    34  N   -0.686681
    35  H    0.342493
    36  C   -0.153088
    37  H    0.147391
    38  C   -0.157813
    39  H    0.144937
    40  C   -0.141948
    41  H    0.143485
    42  N   -0.683046
    43  H    0.406813
    44  C   -0.080725
    45  H    0.212742
    46  C    0.625680
    47  C    0.140991
    48  H    0.143680
    49  O   -0.517404
    50  C   -0.487129
    51  H    0.204534
    52  H    0.165801
    53  H    0.170395
    54  O   -0.658793
    55  H    0.463937
    56  N   -0.605169
    57  H    0.348046
    58  C   -0.047561
    59  H    0.210919
    60  C    0.582415
    61  C   -0.264242
    62  H    0.175285
    63  H    0.117987
    64  O   -0.468995
    65  C   -0.284844
    66  H    0.160755
    67  H    0.201531
    68  C   -0.168810
    69  H    0.169202
    70  H    0.161321
    71  N   -0.579187
    72  H    0.325236
    73  N   -0.730309
    74  H    0.344964
    75  H    0.346874
    76  N   -0.726413
    77  H    0.275051
    78  C    0.625168
    79  O   -0.553726
    80  H    0.426811
    81  H    0.411973
 Sum of Mulliken charges =   1.00000
 Mulliken charges with hydrogens summed into heavy atoms:
               1
     1  N    0.519235
     5  C    0.079538
     7  C    0.662031
     8  C    0.132023
    11  O   -0.554833
    12  C   -0.082951
    15  C    0.636238
    16  O   -0.450596
    17  O   -0.133641
    18  N   -0.215027
    20  C    0.161405
    22  C    0.587516
    23  C   -0.053747
    26  O   -0.533444
    27  C    0.074323
    28  C    0.168936
    30  C    0.066239
    31  C    0.316226
    32  C   -0.116069
    34  N   -0.344188
    36  C   -0.005696
    38  C   -0.012877
    40  C    0.001537
    42  N   -0.276233
    44  C    0.132017
    46  C    0.625680
    47  C    0.284670
    49  O   -0.517404
    50  C    0.053601
    54  O   -0.246820
    56  N   -0.257124
    58  C    0.163359
    60  C    0.582415
    61  C    0.029030
    64  O   -0.468995
    65  C    0.077442
    68  C    0.161713
    71  N   -0.253951
    73  N   -0.038470
    76  N   -0.451362
    78  C    0.625168
    79  O   -0.126915
 Electronic spatial extent (au):  <R**2>=          29582.5080
 Charge=              1.0000 electrons
 Dipole moment (field-independent basis, Debye):
    X=            -13.3570    Y=             -0.4214    Z=             -8.0102  Tot=             15.5805
 Quadrupole moment (field-independent basis, Debye-Ang):
   XX=           -118.5601   YY=           -220.6079   ZZ=           -194.8839
   XY=              9.3549   XZ=            -38.9307   YZ=            -43.8038
 Traceless Quadrupole moment (field-independent basis, Debye-Ang):
   XX=             59.4572   YY=            -42.5905   ZZ=            -16.8666
   XY=              9.3549   XZ=            -38.9307   YZ=            -43.8038
 Octapole moment (field-independent basis, Debye-Ang**2):
  XXX=           -137.2422  YYY=          -1274.2411  ZZZ=            128.9231  XYY=            196.7967
  XXY=           -337.7597  XXZ=             90.2058  XZZ=             65.4184  YZZ=           -464.0343
  YYZ=             37.0724  XYZ=             44.7670
 Hexadecapole moment (field-independent basis, Debye-Ang**3):
 XXXX=         -14589.8586 YYYY=          -8957.4642 ZZZZ=          -9823.3921 XXXY=           1209.2283
 XXXZ=            686.8236 YYYX=           2391.5501 YYYZ=           1199.5893 ZZZX=           1055.1044
 ZZZY=            599.6898 XXYY=          -3650.8699 XXZZ=          -3193.3950 YYZZ=          -3295.0339
 XXYZ=           -118.3443 YYXZ=            -20.3242 ZZXY=            745.7844
 N-N= 5.445410452809D+03 E-N=-1.564940871924D+04  KE= 2.034972448940D+03
 Unable to Open any file for archive entry.
 1\1\GINC-AMR-006\SP\RB3LYP\6-31G(d)\C26H39N8O8(1+)\KENGMITH\26-May-202
 2\0\\# B3LYP/6-31G* guess=read geom=check nosymm integral(ultrafinegri
 d)\\Candidate Structure: Conf:538 Charge calc in gas phase\\1,1\N,0,-4
 .3835158672,-0.8801885207,2.3057421876\H,0,-5.2478091828,-1.2537047755
 ,1.9019738373\H,0,-3.5634806869,-1.395291627,1.8847514248\H,0,-4.41190
 72592,-1.0078256051,3.3213369338\C,0,-4.1072204507,0.5573360222,1.8956
 803119\H,0,-5.055287734,1.0230958178,1.6163195465\C,0,-3.1377405381,0.
 3959477788,0.7019242873\C,0,-3.4174253646,1.3297094936,3.0387553958\H,
 0,-3.1757255958,2.3219656783,2.6469230807\H,0,-4.1242644047,1.48760069
 6,3.8604541106\O,0,-2.4868465559,-0.6613950414,0.6341148341\C,0,-2.122
 5446425,0.6662341783,3.5417658569\H,0,-1.5643459976,0.2238012792,2.717
 9142425\H,0,-2.3369038492,-0.1424529175,4.2560761259\C,0,-1.2433536556
 ,1.6790824825,4.2872401946\O,0,-1.7257866415,2.5405683172,4.9835709928
 \O,0,0.0744985081,1.5075686176,4.1500119978\N,0,-3.0018404191,1.440623
 3867,-0.1080525273\H,0,-3.5839608387,2.2578007271,0.0474550738\C,0,-1.
 7962084141,1.6240595584,-0.9262344706\H,0,-1.6481875854,0.7262564172,-
 1.531841328\C,0,-0.6182121249,1.8381446254,0.0575570274\C,0,-1.9545599
 26,2.872278269,-1.8391882317\H,0,-1.1547459553,2.8290171611,-2.5860185
 343\H,0,-1.7628541851,3.7666719666,-1.2335485002\O,0,-0.8084554981,2.4
 425151911,1.1113438142\C,0,-3.3010989773,2.9891936924,-2.491957061\C,0
 ,-3.7103525407,2.4628128339,-3.693603452\H,0,-3.1494910572,1.904259024
 5,-4.4309919245\C,0,-4.4533384158,3.6467995299,-1.9217542625\C,0,-5.53
 22611577,3.4681808682,-2.8308054589\C,0,-4.6775006259,4.3718636421,-0.
 7338627165\H,0,-3.8616329078,4.577951338,-0.0421105811\N,0,-5.04557272
 87,2.740597668,-3.8982708601\H,0,-5.5631480112,2.5126392749,-4.7337240
 474\C,0,-7.0034294579,4.679484675,-1.3962937672\H,0,-7.9829298948,5.09
 38166395,-1.1770485679\C,0,-6.8099500569,3.9796682443,-2.5822239359\H,
 0,-7.6224833746,3.8410937751,-3.2901189477\C,0,-5.9486457985,4.8762276
 09,-0.4816360346\H,0,-6.1294162261,5.4503502475,0.4225127648\N,0,0.580
 8080783,1.3437527248,-0.3408732616\H,0,0.6281130971,0.8295878146,-1.23
 80989276\C,0,1.7823354888,1.5140052227,0.4826784917\H,0,1.5781507992,2
 .3658010727,1.1428448902\C,0,3.0107540546,1.8540764561,-0.3902907992\C
 ,0,2.054365684,0.2721704058,1.3813817962\H,0,2.4473673788,-0.535636356
 6,0.7493344089\O,0,4.1273359202,1.416045766,-0.1379696484\C,0,3.018604
 3004,0.5521818551,2.5256719962\H,0,4.0020934466,0.8087650832,2.1323948
 987\H,0,3.1047976278,-0.3392973177,3.154462602\H,0,2.6538887739,1.3773
 203431,3.1481463792\O,0,0.8237968879,-0.1766226671,1.9872803733\H,0,0.
 2903413669,0.8739034355,3.4241732431\N,0,2.7609679054,2.6674057546,-1.
 4549065147\H,0,1.8623327801,3.1305176122,-1.528460527\C,0,3.826890793,
 3.2457750301,-2.2628923058\H,0,4.7568448917,3.2087194986,-1.6877216575
 \C,0,3.4465414385,4.696334327,-2.5372503416\C,0,4.0181924622,2.5034696
 368,-3.6119332749\H,0,4.7177589555,3.0753161657,-4.231497536\H,0,3.047
 587064,2.5303258603,-4.1251166776\O,0,2.320459598,5.1357592171,-2.4284
 499328\C,0,4.5032607591,1.0485718377,-3.4480353927\H,0,5.5978497904,1.
 0138721159,-3.508767958\H,0,4.2455397316,0.6712764162,-2.4555739029\C,
 0,3.9290574284,0.0829590293,-4.4990109023\H,0,4.2021449103,0.389185145
 4,-5.5141392438\H,0,4.3616246773,-0.9139900437,-4.3591034243\N,0,2.458
 188345,-0.0184869682,-4.4883549168\H,0,1.997601672,0.6970282319,-5.035
 3033681\N,0,2.3342198713,-1.3025775506,-2.5399754486\H,0,1.6811444732,
 -1.7413432317,-1.9035843023\H,0,2.9596346414,-1.9636404032,-2.98257153
 69\N,0,0.5693113203,0.1034764297,-3.0316480028\H,0,0.2964153015,0.8487
 094857,-3.6737836393\C,0,1.7345534383,-0.3707834832,-3.3650191189\O,0,
 4.495160974,5.418829417,-2.9641480764\H,0,4.1703771011,6.3207922668,-3
 .1518676154\H,0,0.1835810483,-0.3442870945,1.2750449928\\Version=ES64L
 -G16RevC.01\HF=-2053.9237172\RMSD=7.396e-09\Dipole=-4.3207434,-3.65238
 29,-2.0144859\Quadrupole=44.2049612,-31.66503,-12.5399312,6.9551275,-2
 8.9439864,-32.5670797\PG=C01 [X(C26H39N8O8)]\\@
 The archive entry for this job was punched.


 IF YOU WISH TO UNDERSTAND THE FRAGRANCE OF THE ROSE, 
 OR THE TENACITY OF THE OAK; 
 IF YOU ARE NOT SATISFIED UNTIL YOU KNOW THE SECRET PATHS 
 BY WHICH THE SUNSHINE AND THE AIR ACHIEVE THESE WONDERS; 
 IF YOU WISH TO SEE THE PATTERN WHICH UNDERLIES ONE LARGE FIELD OF 
 HUMAN EXPERIENCE AND HUMAN MEASUREMENT, THEN TAKE UP CHEMISTRY.

                                         -- C. A. COULSON, 1973.
 Job cpu time:       0 days  0 hours  1 minutes 49.3 seconds.
 Elapsed time:       0 days  0 hours  0 minutes 28.0 seconds.
 File lengths (MBytes):  RWF=    376 Int=      0 D2E=      0 Chk=     56 Scr=     16
 Normal termination of Gaussian 16 at Thu May 26 18:13:21 2022.
