 Entering Gaussian System, Link 0=/opt/software/Gaussian/g16-AVX2-C.01/g16/g16
 Input=charge-conf-304.com
 Output=charge-conf-304.log
 Initial command:
 /opt/software/Gaussian/g16-AVX2-C.01/g16/l1.exe "/mnt/gs21/scratch/kengmith/Gau-122712.inp" -scrdir="/mnt/gs21/scratch/kengmith/"
 Entering Link 1 = /opt/software/Gaussian/g16-AVX2-C.01/g16/l1.exe PID=    122722.
  
 Copyright (c) 1988-2019, Gaussian, Inc.  All Rights Reserved.
  
 This is part of the Gaussian(R) 16 program.  It is based on
 the Gaussian(R) 09 system (copyright 2009, Gaussian, Inc.),
 the Gaussian(R) 03 system (copyright 2003, Gaussian, Inc.),
 the Gaussian(R) 98 system (copyright 1998, Gaussian, Inc.),
 the Gaussian(R) 94 system (copyright 1995, Gaussian, Inc.),
 the Gaussian 92(TM) system (copyright 1992, Gaussian, Inc.),
 the Gaussian 90(TM) system (copyright 1990, Gaussian, Inc.),
 the Gaussian 88(TM) system (copyright 1988, Gaussian, Inc.),
 the Gaussian 86(TM) system (copyright 1986, Carnegie Mellon
 University), and the Gaussian 82(TM) system (copyright 1983,
 Carnegie Mellon University). Gaussian is a federally registered
 trademark of Gaussian, Inc.
  
 This software contains proprietary and confidential information,
 including trade secrets, belonging to Gaussian, Inc.
  
 This software is provided under written license and may be
 used, copied, transmitted, or stored only in accord with that
 written license.
  
 The following legend is applicable only to US Government
 contracts under FAR:
  
                    RESTRICTED RIGHTS LEGEND
  
 Use, reproduction and disclosure by the US Government is
 subject to restrictions as set forth in subparagraphs (a)
 and (c) of the Commercial Computer Software - Restricted
 Rights clause in FAR 52.227-19.
  
 Gaussian, Inc.
 340 Quinnipiac St., Bldg. 40, Wallingford CT 06492
  
  
 ---------------------------------------------------------------
 Warning -- This program may not be used in any manner that
 competes with the business of Gaussian, Inc. or will provide
 assistance to any competitor of Gaussian, Inc.  The licensee
 of this program is prohibited from giving any competitor of
 Gaussian, Inc. access to this program.  By using this program,
 the user acknowledges that Gaussian, Inc. is engaged in the
 business of creating and licensing software in the field of
 computational chemistry and represents and warrants to the
 licensee that it is not a competitor of Gaussian, Inc. and that
 it will not use this program in any manner prohibited above.
 ---------------------------------------------------------------
  

 Cite this work as:
 Gaussian 16, Revision C.01,
 M. J. Frisch, G. W. Trucks, H. B. Schlegel, G. E. Scuseria, 
 M. A. Robb, J. R. Cheeseman, G. Scalmani, V. Barone, 
 G. A. Petersson, H. Nakatsuji, X. Li, M. Caricato, A. V. Marenich, 
 J. Bloino, B. G. Janesko, R. Gomperts, B. Mennucci, H. P. Hratchian, 
 J. V. Ortiz, A. F. Izmaylov, J. L. Sonnenberg, D. Williams-Young, 
 F. Ding, F. Lipparini, F. Egidi, J. Goings, B. Peng, A. Petrone, 
 T. Henderson, D. Ranasinghe, V. G. Zakrzewski, J. Gao, N. Rega, 
 G. Zheng, W. Liang, M. Hada, M. Ehara, K. Toyota, R. Fukuda, 
 J. Hasegawa, M. Ishida, T. Nakajima, Y. Honda, O. Kitao, H. Nakai, 
 T. Vreven, K. Throssell, J. A. Montgomery, Jr., J. E. Peralta, 
 F. Ogliaro, M. J. Bearpark, J. J. Heyd, E. N. Brothers, K. N. Kudin, 
 V. N. Staroverov, T. A. Keith, R. Kobayashi, J. Normand, 
 K. Raghavachari, A. P. Rendell, J. C. Burant, S. S. Iyengar, 
 J. Tomasi, M. Cossi, J. M. Millam, M. Klene, C. Adamo, R. Cammi, 
 J. W. Ochterski, R. L. Martin, K. Morokuma, O. Farkas, 
 J. B. Foresman, and D. J. Fox, Gaussian, Inc., Wallingford CT, 2019.
 
 ******************************************
 Gaussian 16:  ES64L-G16RevC.01  3-Jul-2019
                 4-Aug-2022 
 ******************************************
 %mem=8gb
 %nproc=4
 Will use up to    4 processors via shared memory.
 %chk=conf-304.chk
 ----------------------------------------------------------------------
 # B3LYP/6-31G* empiricaldispersion=gd3bj guess=read geom=check nosymm 
 integral(ultrafinegrid)
 ----------------------------------------------------------------------
 1/29=2,38=1,172=1/1;
 2/12=2,15=1,40=1/2;
 3/5=1,6=6,7=1,11=2,14=-4,25=1,30=1,74=-5,75=-5,116=-2,124=41/1,2,3;
 4/5=1/1;
 5/5=2,38=6/2;
 6/7=2,8=2,9=2,10=2,28=1/1;
 99/5=1,9=1/99;
 ------------------------------------------------------
 Candidate Structure: Conf:304 Charge calc in gas phase
 ------------------------------------------------------
 Structure from the checkpoint file:  "conf-304.chk"
 Charge =  1 Multiplicity = 1
 Redundant internal coordinates found in file.  (old form).
 N,0,-5.3515053558,1.1619205615,2.1008094809
 H,0,-5.1982930406,1.1348350781,1.0807758161
 H,0,-5.1361685599,2.1110440971,2.4231225776
 H,0,-6.3298799642,0.8834121379,2.3479724072
 C,0,-4.4830411232,0.1339547684,2.7788826998
 H,0,-3.7844784042,-0.2472210757,2.0378381979
 C,0,-5.4617223923,-0.9732644761,3.2241043246
 C,0,-3.7240026655,0.7379962118,3.9641970534
 H,0,-3.0522462389,-0.0457275688,4.3261668743
 H,0,-4.4263728833,0.9621255966,4.7764813883
 O,0,-6.6741880892,-0.725398721,3.2483226918
 C,0,-2.9340431348,1.9811621499,3.6064670166
 C,0,-2.4430593456,2.2086507013,2.312553932
 H,0,-2.6049211009,1.4907865332,1.5126014561
 C,0,-2.6766485821,2.9365750751,4.5998232163
 H,0,-3.0538889963,2.7730681054,5.6060645846
 C,0,-1.7346247888,3.3761454795,2.0201309337
 H,0,-1.4067446219,3.5513664856,1.0036662562
 C,0,-1.9395371974,4.084435601,4.3158692242
 H,0,-1.7453542086,4.8080436228,5.1015888279
 C,0,-1.4731917515,4.3127271871,3.0192928678
 H,0,-0.9238478883,5.2200487569,2.7868898143
 N,0,-4.8522294594,-2.1086729923,3.5664557388
 H,0,-3.8268440111,-2.1099040321,3.4809843001
 C,0,-5.4676224554,-3.2674553986,4.2355438727
 H,0,-5.8717123712,-2.9394965346,5.2003160795
 C,0,-4.2316620172,-4.1480694107,4.5332233104
 C,0,-6.5847912941,-3.8928401673,3.4022419545
 H,0,-7.0050450034,-4.7651850212,3.9143884254
 H,0,-6.2265632407,-4.1965034305,2.4112563494
 H,0,-7.3854126207,-3.1653190953,3.2564308662
 O,0,-3.3042063011,-3.674581649,5.1737152349
 N,0,-4.1413106056,-5.3636856791,3.9193990492
 H,0,-4.9308701874,-5.7442282145,3.4164889657
 C,0,-2.8179928925,-5.96012225,3.7226137255
 H,0,-2.2938266162,-5.9627419953,4.6797734747
 C,0,-1.9518862318,-5.0839863086,2.7827343063
 C,0,-2.9389741036,-7.3814089133,3.1749974649
 H,0,-1.9402993545,-7.795595809,3.0168539247
 H,0,-3.4664342113,-7.3924455898,2.2135388342
 H,0,-3.4755265734,-8.0229706923,3.88041357
 O,0,-0.7326167267,-5.0851668924,2.8285117727
 N,0,-2.6635479823,-4.360661905,1.8648276618
 H,0,-3.6615403565,-4.3126893842,2.0010681642
 C,0,-2.0757019513,-3.2983458014,1.071626363
 H,0,-1.2576949719,-3.7167407788,0.4771958373
 C,0,-1.5172526732,-2.1842082792,1.9679550589
 C,0,-3.201565894,-2.7577395223,0.1471414244
 H,0,-3.3342091003,-3.4961935225,-0.6541492145
 H,0,-4.1301935752,-2.7717911917,0.731267584
 O,0,-2.2037105719,-1.6681947743,2.8641860946
 C,0,-3.0532597979,-1.3621331028,-0.4175633311
 C,0,-4.178641024,-0.5270662934,-0.4845344518
 H,0,-5.1405824668,-0.9153301571,-0.1473174331
 C,0,-1.8579154954,-0.867216205,-0.9571446076
 H,0,-0.966879543,-1.4855423274,-0.973609151
 C,0,-4.1132146754,0.7602021695,-1.0221524942
 H,0,-5.0068444313,1.3677291507,-1.1529800926
 C,0,-1.7658410398,0.412886713,-1.4904942961
 H,0,-0.8391545538,0.7592638554,-1.9321019228
 O,0,-2.8658795055,2.4898168009,-2.0394437206
 H,0,-1.9724853509,2.6702202376,-2.5316221891
 C,0,-2.8935606887,1.2597443888,-1.5316112865
 N,0,-0.2829624373,-1.7609848856,1.6810538986
 H,0,0.2332240978,-2.1662909992,0.9086970154
 C,0,0.2762317669,-0.5158865864,2.1848103386
 H,0,-0.5514807325,0.0757271816,2.5800285425
 C,0,0.902365263,0.1727634441,0.9695761538
 C,0,1.3162742827,-0.7788848867,3.2918243159
 H,0,0.8161586469,-1.3779803932,4.0628108368
 H,0,2.1074430858,-1.4076167243,2.8631367636
 O,0,1.3531157709,-0.5040037669,0.0369562093
 C,0,1.9404340844,0.4756584004,3.9260506593
 H,0,2.4454808369,1.0445032706,3.1346319273
 C,0,0.8862921142,1.3720744489,4.5928190928
 H,0,0.3412879149,0.8180730266,5.3674956822
 H,0,1.3586315875,2.2364132894,5.0715231378
 H,0,0.1386007775,1.7609049252,3.8922241184
 C,0,3.0049501765,0.0565808302,4.947827626
 H,0,2.5595877169,-0.5236434971,5.7653653068
 H,0,3.7800959953,-0.5634406237,4.4821339323
 H,0,3.494739539,0.9326647885,5.3861347214
 N,0,0.9214520599,1.5196074478,0.9784584027
 H,0,0.5810691646,2.0230491756,1.7858618677
 C,0,1.5365935944,2.2414864951,-0.1140789292
 H,0,1.1921615437,1.7459924509,-1.0252321553
 C,0,3.0543075218,2.0211342326,-0.1573867365
 C,0,1.1336127557,3.7315525545,-0.1884594449
 H,0,0.8132229758,4.0776646989,0.8020343518
 H,0,2.0168361567,4.3219483287,-0.4396763724
 O,0,3.6623330215,1.3360135873,0.6862684952
 C,0,0.0468731906,3.9805685589,-1.2415614439
 H,0,-0.0450023396,5.0579951715,-1.4253666363
 H,0,-0.9346959095,3.6368151568,-0.9023002957
 C,0,0.3638868293,3.2795071596,-2.5842584496
 O,0,-0.6136692412,2.8033082113,-3.2272208888
 O,0,1.5736170228,3.2002865963,-2.9325722849
 N,0,3.6062371878,2.548256445,-1.256046648
 H,0,2.9529845003,3.0061130773,-1.9267774897
 C,0,4.9443065779,2.2280313262,-1.6811212114
 H,0,5.344614128,1.4903950726,-0.9802528824
 C,0,5.8462926214,3.4550896123,-1.5892327834
 C,0,4.9492154175,1.6482255551,-3.1163275171
 H,0,5.9231549778,1.1764159995,-3.2817451034
 H,0,4.8763913138,2.4705920668,-3.8366381102
 O,0,5.4912419592,4.5714209031,-1.3045211812
 C,0,3.7939716132,0.6793292342,-3.4176397478
 H,0,3.9642645486,0.2588182613,-4.4177717724
 H,0,2.8539367897,1.2406334914,-3.4792848879
 C,0,3.5742118429,-0.4651335055,-2.4240153628
 H,0,2.8442736959,-1.1710270488,-2.8360366391
 H,0,3.1570118523,-0.1281706208,-1.478742079
 N,0,4.8160837587,-1.2104589799,-2.1424398332
 H,0,5.3392944931,-1.5248406704,-2.9497408792
 N,0,4.8382526194,-1.0830164331,0.1929255527
 H,0,5.0881925444,-1.5380414522,1.0589958094
 H,0,4.3266562658,-0.1829691152,0.2774392176
 N,0,6.2254619841,-2.5648335925,-0.9091265905
 H,0,6.8416362509,-2.6453749626,-0.1139142881
 H,0,6.4573334029,-3.1047480645,-1.7292197965
 C,0,5.2780104016,-1.5981070316,-0.9508270801
 O,0,7.1264899389,3.1236756209,-1.8875083502
 H,0,7.6457782295,3.9487038708,-1.8354439332
 Recover connectivity data from disk.
                           ----------------------------
                           !    Current Parameters    !
                           ! (Angstroms and Degrees)  !
 --------------------------                            --------------------------
 ! Name  Definition              Value                                          !
 --------------------------------------------------------------------------------
 ! R1    R(1,2)                  1.0318                                         !
 ! R2    R(1,3)                  1.0252                                         !
 ! R3    R(1,4)                  1.0468                                         !
 ! R4    R(1,5)                  1.5069                                         !
 ! R5    R(5,6)                  1.0874                                         !
 ! R6    R(5,7)                  1.5434                                         !
 ! R7    R(5,8)                  1.5317                                         !
 ! R8    R(7,11)                 1.2378                                         !
 ! R9    R(7,23)                 1.3334                                         !
 ! R10   R(8,9)                  1.0938                                         !
 ! R11   R(8,10)                 1.097                                          !
 ! R12   R(8,12)                 1.5157                                         !
 ! R13   R(12,13)                1.4025                                         !
 ! R14   R(12,15)                1.4021                                         !
 ! R15   R(13,14)                1.0869                                         !
 ! R16   R(13,17)                1.3966                                         !
 ! R17   R(15,16)                1.087                                          !
 ! R18   R(15,19)                1.3934                                         !
 ! R19   R(17,18)                1.0823                                         !
 ! R20   R(17,21)                1.3942                                         !
 ! R21   R(19,20)                1.0857                                         !
 ! R22   R(19,21)                1.3967                                         !
 ! R23   R(21,22)                1.0858                                         !
 ! R24   R(23,24)                1.0289                                         !
 ! R25   R(23,25)                1.4728                                         !
 ! R26   R(25,26)                1.0962                                         !
 ! R27   R(25,27)                1.5465                                         !
 ! R28   R(25,28)                1.5276                                         !
 ! R29   R(27,32)                1.2225                                         !
 ! R30   R(27,33)                1.3648                                         !
 ! R31   R(28,29)                1.0954                                         !
 ! R32   R(28,30)                1.0966                                         !
 ! R33   R(28,31)                1.0916                                         !
 ! R34   R(33,34)                1.0105                                         !
 ! R35   R(33,35)                1.4648                                         !
 ! R36   R(35,36)                1.0913                                         !
 ! R37   R(35,37)                1.5496                                         !
 ! R38   R(35,38)                1.5279                                         !
 ! R39   R(37,42)                1.2201                                         !
 ! R40   R(37,43)                1.3683                                         !
 ! R41   R(38,39)                1.0927                                         !
 ! R42   R(38,40)                1.0967                                         !
 ! R43   R(38,41)                1.0941                                         !
 ! R44   R(43,44)                1.0084                                         !
 ! R45   R(43,45)                1.4503                                         !
 ! R46   R(45,46)                1.0943                                         !
 ! R47   R(45,47)                1.5351                                         !
 ! R48   R(45,48)                1.5539                                         !
 ! R49   R(47,51)                1.2413                                         !
 ! R50   R(47,64)                1.336                                          !
 ! R51   R(48,49)                1.0977                                         !
 ! R52   R(48,50)                1.0972                                         !
 ! R53   R(48,52)                1.5128                                         !
 ! R54   R(52,53)                1.403                                          !
 ! R55   R(52,55)                1.4018                                         !
 ! R56   R(53,54)                1.0908                                         !
 ! R57   R(53,57)                1.3966                                         !
 ! R58   R(55,56)                1.0847                                         !
 ! R59   R(55,59)                1.3898                                         !
 ! R60   R(57,58)                1.0885                                         !
 ! R61   R(57,63)                1.413                                          !
 ! R62   R(59,60)                1.0834                                         !
 ! R63   R(59,63)                1.4109                                         !
 ! R64   R(61,62)                1.0358                                         !
 ! R65   R(61,63)                1.3311                                         !
 ! R66   R(64,65)                1.0135                                         !
 ! R67   R(64,66)                1.4549                                         !
 ! R68   R(66,67)                1.0915                                         !
 ! R69   R(66,68)                1.5307                                         !
 ! R70   R(66,69)                1.5415                                         !
 ! R71   R(68,72)                1.2373                                         !
 ! R72   R(68,83)                1.347                                          !
 ! R73   R(69,70)                1.097                                          !
 ! R74   R(69,71)                1.0977                                         !
 ! R75   R(69,73)                1.5381                                         !
 ! R76   R(73,74)                1.0977                                         !
 ! R77   R(73,75)                1.536                                          !
 ! R78   R(73,79)                1.5339                                         !
 ! R79   R(75,76)                1.0973                                         !
 ! R80   R(75,77)                1.0951                                         !
 ! R81   R(75,78)                1.0959                                         !
 ! R82   R(79,80)                1.097                                          !
 ! R83   R(79,81)                1.0964                                         !
 ! R84   R(79,82)                1.0952                                         !
 ! R85   R(83,84)                1.0106                                         !
 ! R86   R(83,85)                1.4468                                         !
 ! R87   R(85,86)                1.0929                                         !
 ! R88   R(85,87)                1.5342                                         !
 ! R89   R(85,88)                1.5454                                         !
 ! R90   R(87,91)                1.2453                                         !
 ! R91   R(87,98)                1.3377                                         !
 ! R92   R(88,89)                1.0971                                         !
 ! R93   R(88,90)                1.0917                                         !
 ! R94   R(88,92)                1.5336                                         !
 ! R95   R(92,93)                1.0968                                         !
 ! R96   R(92,94)                1.094                                          !
 ! R97   R(92,95)                1.5475                                         !
 ! R98   R(95,96)                1.2632                                         !
 ! R99   R(95,97)                1.2614                                         !
 ! R100  R(98,99)                1.0422                                         !
 ! R101  R(98,100)               1.44                                           !
 ! R102  R(100,101)              1.0934                                         !
 ! R103  R(100,102)              1.5257                                         !
 ! R104  R(100,103)              1.5479                                         !
 ! R105  R(102,106)              1.2055                                         !
 ! R106  R(102,122)              1.3556                                         !
 ! R107  R(103,104)              1.0948                                         !
 ! R108  R(103,105)              1.0956                                         !
 ! R109  R(103,107)              1.5376                                         !
 ! R110  R(107,108)              1.0982                                         !
 ! R111  R(107,109)              1.0966                                         !
 ! R112  R(107,110)              1.5315                                         !
 ! R113  R(110,111)              1.0958                                         !
 ! R114  R(110,112)              1.0868                                         !
 ! R115  R(110,113)              1.4755                                         !
 ! R116  R(113,114)              1.0121                                         !
 ! R117  R(113,121)              1.3355                                         !
 ! R118  R(115,116)              1.0098                                         !
 ! R119  R(115,117)              1.0387                                         !
 ! R120  R(115,121)              1.3292                                         !
 ! R121  R(118,119)              1.0092                                         !
 ! R122  R(118,120)              1.0089                                         !
 ! R123  R(118,121)              1.3542                                         !
 ! R124  R(122,123)              0.9762                                         !
 ! A1    A(2,1,3)              107.6921                                         !
 ! A2    A(2,1,4)              111.4196                                         !
 ! A3    A(2,1,5)              109.9593                                         !
 ! A4    A(3,1,4)              111.6153                                         !
 ! A5    A(3,1,5)              111.6552                                         !
 ! A6    A(4,1,5)              104.5309                                         !
 ! A7    A(1,5,6)              107.6209                                         !
 ! A8    A(1,5,7)              104.6991                                         !
 ! A9    A(1,5,8)              111.3958                                         !
 ! A10   A(6,5,7)              110.6392                                         !
 ! A11   A(6,5,8)              110.3203                                         !
 ! A12   A(7,5,8)              111.9582                                         !
 ! A13   A(5,7,11)             118.8905                                         !
 ! A14   A(5,7,23)             113.2725                                         !
 ! A15   A(11,7,23)            127.8257                                         !
 ! A16   A(5,8,9)              106.1328                                         !
 ! A17   A(5,8,10)             109.6523                                         !
 ! A18   A(5,8,12)             113.5209                                         !
 ! A19   A(9,8,10)             107.1314                                         !
 ! A20   A(9,8,12)             110.223                                          !
 ! A21   A(10,8,12)            109.9305                                         !
 ! A22   A(8,12,13)            122.2232                                         !
 ! A23   A(8,12,15)            119.1667                                         !
 ! A24   A(13,12,15)           118.6094                                         !
 ! A25   A(12,13,14)           121.3137                                         !
 ! A26   A(12,13,17)           120.4209                                         !
 ! A27   A(14,13,17)           118.2647                                         !
 ! A28   A(12,15,16)           119.3169                                         !
 ! A29   A(12,15,19)           120.9364                                         !
 ! A30   A(16,15,19)           119.7456                                         !
 ! A31   A(13,17,18)           119.0555                                         !
 ! A32   A(13,17,21)           120.4397                                         !
 ! A33   A(18,17,21)           120.4963                                         !
 ! A34   A(15,19,20)           119.7487                                         !
 ! A35   A(15,19,21)           120.0307                                         !
 ! A36   A(20,19,21)           120.2111                                         !
 ! A37   A(17,21,19)           119.5295                                         !
 ! A38   A(17,21,22)           120.1857                                         !
 ! A39   A(19,21,22)           120.2783                                         !
 ! A40   A(7,23,24)            115.7994                                         !
 ! A41   A(7,23,25)            126.5573                                         !
 ! A42   A(24,23,25)           116.9484                                         !
 ! A43   A(23,25,26)           108.5703                                         !
 ! A44   A(23,25,27)           101.6261                                         !
 ! A45   A(23,25,28)           112.3249                                         !
 ! A46   A(26,25,27)           107.1911                                         !
 ! A47   A(26,25,28)           109.4506                                         !
 ! A48   A(27,25,28)           117.152                                          !
 ! A49   A(25,27,32)           119.1174                                         !
 ! A50   A(25,27,33)           118.2628                                         !
 ! A51   A(32,27,33)           122.0306                                         !
 ! A52   A(25,28,29)           110.5827                                         !
 ! A53   A(25,28,30)           111.5562                                         !
 ! A54   A(25,28,31)           109.658                                          !
 ! A55   A(29,28,30)           109.1055                                         !
 ! A56   A(29,28,31)           108.1697                                         !
 ! A57   A(30,28,31)           107.6641                                         !
 ! A58   A(27,33,34)           120.4993                                         !
 ! A59   A(27,33,35)           118.8751                                         !
 ! A60   A(34,33,35)           119.0571                                         !
 ! A61   A(33,35,36)           108.486                                          !
 ! A62   A(33,35,37)           110.8678                                         !
 ! A63   A(33,35,38)           110.8166                                         !
 ! A64   A(36,35,37)           105.3602                                         !
 ! A65   A(36,35,38)           110.4965                                         !
 ! A66   A(37,35,38)           110.6596                                         !
 ! A67   A(35,37,42)           122.3602                                         !
 ! A68   A(35,37,43)           114.5246                                         !
 ! A69   A(42,37,43)           123.0537                                         !
 ! A70   A(35,38,39)           109.3968                                         !
 ! A71   A(35,38,40)           111.2016                                         !
 ! A72   A(35,38,41)           110.6831                                         !
 ! A73   A(39,38,40)           107.992                                          !
 ! A74   A(39,38,41)           108.6179                                         !
 ! A75   A(40,38,41)           108.8729                                         !
 ! A76   A(37,43,44)           116.6963                                         !
 ! A77   A(37,43,45)           122.9095                                         !
 ! A78   A(44,43,45)           116.1171                                         !
 ! A79   A(43,45,46)           108.6645                                         !
 ! A80   A(43,45,47)           111.0839                                         !
 ! A81   A(43,45,48)           106.6521                                         !
 ! A82   A(46,45,47)           108.8275                                         !
 ! A83   A(46,45,48)           110.5758                                         !
 ! A84   A(47,45,48)           111.006                                          !
 ! A85   A(45,47,51)           121.4742                                         !
 ! A86   A(45,47,64)           116.143                                          !
 ! A87   A(51,47,64)           122.2959                                         !
 ! A88   A(45,48,49)           106.7265                                         !
 ! A89   A(45,48,50)           106.9807                                         !
 ! A90   A(45,48,52)           118.165                                          !
 ! A91   A(49,48,50)           106.1255                                         !
 ! A92   A(49,48,52)           111.098                                          !
 ! A93   A(50,48,52)           107.0691                                         !
 ! A94   A(48,52,53)           119.2278                                         !
 ! A95   A(48,52,55)           123.5729                                         !
 ! A96   A(53,52,55)           117.097                                          !
 ! A97   A(52,53,54)           118.7361                                         !
 ! A98   A(52,53,57)           121.9672                                         !
 ! A99   A(54,53,57)           119.2369                                         !
 ! A100  A(52,55,56)           120.3366                                         !
 ! A101  A(52,55,59)           121.9654                                         !
 ! A102  A(56,55,59)           117.6974                                         !
 ! A103  A(53,57,58)           121.4849                                         !
 ! A104  A(53,57,63)           120.3375                                         !
 ! A105  A(58,57,63)           117.9036                                         !
 ! A106  A(55,59,60)           120.5018                                         !
 ! A107  A(55,59,63)           120.7355                                         !
 ! A108  A(60,59,63)           118.679                                          !
 ! A109  A(62,61,63)           111.1105                                         !
 ! A110  A(57,63,59)           117.8533                                         !
 ! A111  A(57,63,61)           118.8298                                         !
 ! A112  A(59,63,61)           123.311                                          !
 ! A113  A(47,64,65)           120.4964                                         !
 ! A114  A(47,64,66)           123.4931                                         !
 ! A115  A(65,64,66)           114.2258                                         !
 ! A116  A(64,66,67)           107.3239                                         !
 ! A117  A(64,66,68)           105.5063                                         !
 ! A118  A(64,66,69)           111.2205                                         !
 ! A119  A(67,66,68)           110.7207                                         !
 ! A120  A(67,66,69)           110.1259                                         !
 ! A121  A(68,66,69)           111.771                                          !
 ! A122  A(66,68,72)           120.0885                                         !
 ! A123  A(66,68,83)           116.769                                          !
 ! A124  A(72,68,83)           123.141                                          !
 ! A125  A(66,69,70)           106.8755                                         !
 ! A126  A(66,69,71)           107.67                                           !
 ! A127  A(66,69,73)           115.515                                          !
 ! A128  A(70,69,71)           106.8723                                         !
 ! A129  A(70,69,73)           109.9159                                         !
 ! A130  A(71,69,73)           109.6166                                         !
 ! A131  A(69,73,74)           108.1853                                         !
 ! A132  A(69,73,75)           112.1179                                         !
 ! A133  A(69,73,79)           109.4788                                         !
 ! A134  A(74,73,75)           109.0436                                         !
 ! A135  A(74,73,79)           107.6101                                         !
 ! A136  A(75,73,79)           110.2771                                         !
 ! A137  A(73,75,76)           110.651                                          !
 ! A138  A(73,75,77)           110.7538                                         !
 ! A139  A(73,75,78)           113.4387                                         !
 ! A140  A(76,75,77)           107.7037                                         !
 ! A141  A(76,75,78)           106.953                                          !
 ! A142  A(77,75,78)           107.0776                                         !
 ! A143  A(73,79,80)           111.0508                                         !
 ! A144  A(73,79,81)           111.2356                                         !
 ! A145  A(73,79,82)           111.0016                                         !
 ! A146  A(80,79,81)           107.7256                                         !
 ! A147  A(80,79,82)           107.8425                                         !
 ! A148  A(81,79,82)           107.828                                          !
 ! A149  A(68,83,84)           119.9087                                         !
 ! A150  A(68,83,85)           119.9962                                         !
 ! A151  A(84,83,85)           119.867                                          !
 ! A152  A(83,85,86)           105.6268                                         !
 ! A153  A(83,85,87)           111.7315                                         !
 ! A154  A(83,85,88)           113.9896                                         !
 ! A155  A(86,85,87)           102.8923                                         !
 ! A156  A(86,85,88)           108.3517                                         !
 ! A157  A(87,85,88)           113.2709                                         !
 ! A158  A(85,87,91)           122.8798                                         !
 ! A159  A(85,87,98)           112.0077                                         !
 ! A160  A(91,87,98)           124.8705                                         !
 ! A161  A(85,88,89)           109.688                                          !
 ! A162  A(85,88,90)           108.7573                                         !
 ! A163  A(85,88,92)           111.9863                                         !
 ! A164  A(89,88,90)           105.8682                                         !
 ! A165  A(89,88,92)           111.2109                                         !
 ! A166  A(90,88,92)           109.1152                                         !
 ! A167  A(88,92,93)           109.5068                                         !
 ! A168  A(88,92,94)           111.8286                                         !
 ! A169  A(88,92,95)           112.1523                                         !
 ! A170  A(93,92,94)           106.5874                                         !
 ! A171  A(93,92,95)           108.4673                                         !
 ! A172  A(94,92,95)           108.0912                                         !
 ! A173  A(92,95,96)           116.9917                                         !
 ! A174  A(92,95,97)           117.6785                                         !
 ! A175  A(96,95,97)           125.306                                          !
 ! A176  A(87,98,99)           116.298                                          !
 ! A177  A(87,98,100)          122.5599                                         !
 ! A178  A(99,98,100)          119.349                                          !
 ! A179  A(98,100,101)         107.5172                                         !
 ! A180  A(98,100,102)         110.6537                                         !
 ! A181  A(98,100,103)         111.0963                                         !
 ! A182  A(101,100,102)        106.7097                                         !
 ! A183  A(101,100,103)        109.9051                                         !
 ! A184  A(102,100,103)        110.8073                                         !
 ! A185  A(100,102,106)        125.7933                                         !
 ! A186  A(100,102,122)        110.3916                                         !
 ! A187  A(106,102,122)        123.8126                                         !
 ! A188  A(100,103,104)        107.7189                                         !
 ! A189  A(100,103,105)        109.16                                           !
 ! A190  A(100,103,107)        114.5414                                         !
 ! A191  A(104,103,105)        106.4553                                         !
 ! A192  A(104,103,107)        111.5451                                         !
 ! A193  A(105,103,107)        107.1096                                         !
 ! A194  A(103,107,108)        107.6524                                         !
 ! A195  A(103,107,109)        109.4231                                         !
 ! A196  A(103,107,110)        116.845                                          !
 ! A197  A(108,107,109)        106.1243                                         !
 ! A198  A(108,107,110)        109.0847                                         !
 ! A199  A(109,107,110)        107.2161                                         !
 ! A200  A(107,110,111)        109.4522                                         !
 ! A201  A(107,110,112)        112.8115                                         !
 ! A202  A(107,110,113)        112.3666                                         !
 ! A203  A(111,110,112)        105.7264                                         !
 ! A204  A(111,110,113)        107.8786                                         !
 ! A205  A(112,110,113)        108.2844                                         !
 ! A206  A(110,113,114)        116.0912                                         !
 ! A207  A(110,113,121)        127.4462                                         !
 ! A208  A(114,113,121)        116.2791                                         !
 ! A209  A(116,115,117)        116.2695                                         !
 ! A210  A(116,115,121)        118.7839                                         !
 ! A211  A(117,115,121)        124.6612                                         !
 ! A212  A(119,118,120)        117.2244                                         !
 ! A213  A(119,118,121)        120.5561                                         !
 ! A214  A(120,118,121)        121.1844                                         !
 ! A215  A(113,121,115)        122.7406                                         !
 ! A216  A(113,121,118)        118.4677                                         !
 ! A217  A(115,121,118)        118.789                                          !
 ! A218  A(102,122,123)        106.4985                                         !
 ! D1    D(2,1,5,6)             10.221                                          !
 ! D2    D(2,1,5,7)           -107.5326                                         !
 ! D3    D(2,1,5,8)            131.2706                                         !
 ! D4    D(3,1,5,6)           -109.2555                                         !
 ! D5    D(3,1,5,7)            132.9909                                         !
 ! D6    D(3,1,5,8)             11.7941                                         !
 ! D7    D(4,1,5,6)            129.9238                                         !
 ! D8    D(4,1,5,7)             12.1702                                         !
 ! D9    D(4,1,5,8)           -109.0266                                         !
 ! D10   D(1,5,7,11)           -15.7892                                         !
 ! D11   D(1,5,7,23)           165.3364                                         !
 ! D12   D(6,5,7,11)          -131.4621                                         !
 ! D13   D(6,5,7,23)            49.6636                                         !
 ! D14   D(8,5,7,11)           105.0357                                         !
 ! D15   D(8,5,7,23)           -73.8386                                         !
 ! D16   D(1,5,8,9)           -174.4616                                         !
 ! D17   D(1,5,8,10)            70.1405                                         !
 ! D18   D(1,5,8,12)           -53.2399                                         !
 ! D19   D(6,5,8,9)            -55.0031                                         !
 ! D20   D(6,5,8,10)          -170.401                                          !
 ! D21   D(6,5,8,12)            66.2187                                         !
 ! D22   D(7,5,8,9)             68.6785                                         !
 ! D23   D(7,5,8,10)           -46.7194                                         !
 ! D24   D(7,5,8,12)          -170.0998                                         !
 ! D25   D(5,7,23,24)           -0.7768                                         !
 ! D26   D(5,7,23,25)          169.3191                                         !
 ! D27   D(11,7,23,24)        -179.529                                          !
 ! D28   D(11,7,23,25)          -9.4332                                         !
 ! D29   D(5,8,12,13)          -27.2982                                         !
 ! D30   D(5,8,12,15)          153.0175                                         !
 ! D31   D(9,8,12,13)           91.6023                                         !
 ! D32   D(9,8,12,15)          -88.0819                                         !
 ! D33   D(10,8,12,13)        -150.5263                                         !
 ! D34   D(10,8,12,15)          29.7895                                         !
 ! D35   D(8,12,13,14)          -0.5478                                         !
 ! D36   D(8,12,13,17)         179.1449                                         !
 ! D37   D(15,12,13,14)        179.1381                                         !
 ! D38   D(15,12,13,17)         -1.1692                                         !
 ! D39   D(8,12,15,16)          -0.4548                                         !
 ! D40   D(8,12,15,19)         179.1652                                         !
 ! D41   D(13,12,15,16)        179.8495                                         !
 ! D42   D(13,12,15,19)         -0.5305                                         !
 ! D43   D(12,13,17,18)       -177.1015                                         !
 ! D44   D(12,13,17,21)          1.8404                                         !
 ! D45   D(14,13,17,18)          2.6005                                         !
 ! D46   D(14,13,17,21)       -178.4577                                         !
 ! D47   D(12,15,19,20)       -179.5441                                         !
 ! D48   D(12,15,19,21)          1.5728                                         !
 ! D49   D(16,15,19,20)          0.0744                                         !
 ! D50   D(16,15,19,21)       -178.8087                                         !
 ! D51   D(13,17,21,19)         -0.7901                                         !
 ! D52   D(13,17,21,22)       -179.8692                                         !
 ! D53   D(18,17,21,19)        178.1364                                         !
 ! D54   D(18,17,21,22)         -0.9427                                         !
 ! D55   D(15,19,21,17)         -0.9036                                         !
 ! D56   D(15,19,21,22)        178.1747                                         !
 ! D57   D(20,19,21,17)       -179.7814                                         !
 ! D58   D(20,19,21,22)         -0.7032                                         !
 ! D59   D(7,23,25,26)         -59.4545                                         !
 ! D60   D(7,23,25,27)        -172.2501                                         !
 ! D61   D(7,23,25,28)          61.724                                          !
 ! D62   D(24,23,25,26)        110.5414                                         !
 ! D63   D(24,23,25,27)         -2.2542                                         !
 ! D64   D(24,23,25,28)       -128.2801                                         !
 ! D65   D(23,25,27,32)         55.7364                                         !
 ! D66   D(23,25,27,33)       -115.645                                          !
 ! D67   D(26,25,27,32)        -58.0919                                         !
 ! D68   D(26,25,27,33)        130.5267                                         !
 ! D69   D(28,25,27,32)        178.5131                                         !
 ! D70   D(28,25,27,33)          7.1317                                         !
 ! D71   D(23,25,28,29)        178.6077                                         !
 ! D72   D(23,25,28,30)         56.9885                                         !
 ! D73   D(23,25,28,31)        -62.1923                                         !
 ! D74   D(26,25,28,29)        -60.7201                                         !
 ! D75   D(26,25,28,30)        177.6607                                         !
 ! D76   D(26,25,28,31)         58.4799                                         !
 ! D77   D(27,25,28,29)         61.5145                                         !
 ! D78   D(27,25,28,30)        -60.1047                                         !
 ! D79   D(27,25,28,31)       -179.2855                                         !
 ! D80   D(25,27,33,34)        -10.5317                                         !
 ! D81   D(25,27,33,35)        155.0563                                         !
 ! D82   D(32,27,33,34)        178.3519                                         !
 ! D83   D(32,27,33,35)        -16.0601                                         !
 ! D84   D(27,33,35,36)         51.7936                                         !
 ! D85   D(27,33,35,37)        -63.4429                                         !
 ! D86   D(27,33,35,38)        173.2663                                         !
 ! D87   D(34,33,35,36)       -142.408                                          !
 ! D88   D(34,33,35,37)        102.3556                                         !
 ! D89   D(34,33,35,38)        -20.9352                                         !
 ! D90   D(33,35,37,42)        153.6807                                         !
 ! D91   D(33,35,37,43)        -29.0915                                         !
 ! D92   D(36,35,37,42)         36.5113                                         !
 ! D93   D(36,35,37,43)       -146.2608                                         !
 ! D94   D(38,35,37,42)        -82.9382                                         !
 ! D95   D(38,35,37,43)         94.2897                                         !
 ! D96   D(33,35,38,39)        178.7853                                         !
 ! D97   D(33,35,38,40)         59.5876                                         !
 ! D98   D(33,35,38,41)        -61.5641                                         !
 ! D99   D(36,35,38,39)        -60.9322                                         !
 ! D100  D(36,35,38,40)        179.8701                                         !
 ! D101  D(36,35,38,41)         58.7185                                         !
 ! D102  D(37,35,38,39)         55.3745                                         !
 ! D103  D(37,35,38,40)        -63.8232                                         !
 ! D104  D(37,35,38,41)        175.0251                                         !
 ! D105  D(35,37,43,44)         12.1126                                         !
 ! D106  D(35,37,43,45)        167.945                                          !
 ! D107  D(42,37,43,44)       -170.6812                                         !
 ! D108  D(42,37,43,45)        -14.8488                                         !
 ! D109  D(37,43,45,46)         59.7764                                         !
 ! D110  D(37,43,45,47)        -59.9137                                         !
 ! D111  D(37,43,45,48)        179.0006                                         !
 ! D112  D(44,43,45,46)       -144.2626                                         !
 ! D113  D(44,43,45,47)         96.0473                                         !
 ! D114  D(44,43,45,48)        -25.0384                                         !
 ! D115  D(43,45,47,51)        -50.8533                                         !
 ! D116  D(43,45,47,64)        132.4628                                         !
 ! D117  D(46,45,47,51)       -170.4462                                         !
 ! D118  D(46,45,47,64)         12.8699                                         !
 ! D119  D(48,45,47,51)         67.6381                                         !
 ! D120  D(48,45,47,64)       -109.0459                                         !
 ! D121  D(43,45,48,49)        -75.8064                                         !
 ! D122  D(43,45,48,50)         37.4595                                         !
 ! D123  D(43,45,48,52)        158.2313                                         !
 ! D124  D(46,45,48,49)         42.168                                          !
 ! D125  D(46,45,48,50)        155.434                                          !
 ! D126  D(46,45,48,52)        -83.7942                                         !
 ! D127  D(47,45,48,49)        163.0582                                         !
 ! D128  D(47,45,48,50)        -83.6758                                         !
 ! D129  D(47,45,48,52)         37.096                                          !
 ! D130  D(45,47,64,65)          0.1933                                         !
 ! D131  D(45,47,64,66)        164.0884                                         !
 ! D132  D(51,47,64,65)       -176.4609                                         !
 ! D133  D(51,47,64,66)        -12.5658                                         !
 ! D134  D(45,48,52,53)       -139.6364                                         !
 ! D135  D(45,48,52,55)         44.1508                                         !
 ! D136  D(49,48,52,53)         96.5501                                         !
 ! D137  D(49,48,52,55)        -79.6626                                         !
 ! D138  D(50,48,52,53)        -18.9101                                         !
 ! D139  D(50,48,52,55)        164.8772                                         !
 ! D140  D(48,52,53,54)         -1.3883                                         !
 ! D141  D(48,52,53,57)       -178.5543                                         !
 ! D142  D(55,52,53,54)        175.0675                                         !
 ! D143  D(55,52,53,57)         -2.0985                                         !
 ! D144  D(48,52,55,56)         -0.9631                                         !
 ! D145  D(48,52,55,59)        178.7527                                         !
 ! D146  D(53,52,55,56)       -177.2506                                         !
 ! D147  D(53,52,55,59)          2.4652                                         !
 ! D148  D(52,53,57,58)        174.3987                                         !
 ! D149  D(52,53,57,63)          0.538                                          !
 ! D150  D(54,53,57,58)         -2.7535                                         !
 ! D151  D(54,53,57,63)       -176.6143                                         !
 ! D152  D(52,55,59,60)       -177.9006                                         !
 ! D153  D(52,55,59,63)         -1.2714                                         !
 ! D154  D(56,55,59,60)          1.8224                                         !
 ! D155  D(56,55,59,63)        178.4516                                         !
 ! D156  D(53,57,63,59)          0.7321                                         !
 ! D157  D(53,57,63,61)        179.8724                                         !
 ! D158  D(58,57,63,59)       -173.3445                                         !
 ! D159  D(58,57,63,61)          5.7958                                         !
 ! D160  D(55,59,63,57)         -0.3771                                         !
 ! D161  D(55,59,63,61)       -179.4759                                         !
 ! D162  D(60,59,63,57)        176.3124                                         !
 ! D163  D(60,59,63,61)         -2.7863                                         !
 ! D164  D(62,61,63,57)       -169.536                                          !
 ! D165  D(62,61,63,59)          9.5544                                         !
 ! D166  D(47,64,66,67)        -14.4361                                         !
 ! D167  D(47,64,66,68)       -132.5462                                         !
 ! D168  D(47,64,66,69)        106.0791                                         !
 ! D169  D(65,64,66,67)        150.3689                                         !
 ! D170  D(65,64,66,68)         32.2588                                         !
 ! D171  D(65,64,66,69)        -89.1159                                         !
 ! D172  D(64,66,68,72)        -29.8589                                         !
 ! D173  D(64,66,68,83)        149.7269                                         !
 ! D174  D(67,66,68,72)       -145.6661                                         !
 ! D175  D(67,66,68,83)         33.9197                                         !
 ! D176  D(69,66,68,72)         91.1577                                         !
 ! D177  D(69,66,68,83)        -89.2565                                         !
 ! D178  D(64,66,69,70)        -55.5742                                         !
 ! D179  D(64,66,69,71)         58.9424                                         !
 ! D180  D(64,66,69,73)       -178.2053                                         !
 ! D181  D(67,66,69,70)         63.2744                                         !
 ! D182  D(67,66,69,71)        177.791                                          !
 ! D183  D(67,66,69,73)        -59.3567                                         !
 ! D184  D(68,66,69,70)       -173.2128                                         !
 ! D185  D(68,66,69,71)        -58.6962                                         !
 ! D186  D(68,66,69,73)         64.1561                                         !
 ! D187  D(66,68,83,84)          3.4343                                         !
 ! D188  D(66,68,83,85)        177.9417                                         !
 ! D189  D(72,68,83,84)       -176.9937                                         !
 ! D190  D(72,68,83,85)         -2.4863                                         !
 ! D191  D(66,69,73,74)        -59.8861                                         !
 ! D192  D(66,69,73,75)         60.3942                                         !
 ! D193  D(66,69,73,79)       -176.8846                                         !
 ! D194  D(70,69,73,74)        179.1128                                         !
 ! D195  D(70,69,73,75)        -60.6068                                         !
 ! D196  D(70,69,73,79)         62.1144                                         !
 ! D197  D(71,69,73,74)         61.9286                                         !
 ! D198  D(71,69,73,75)       -177.7911                                         !
 ! D199  D(71,69,73,79)        -55.0699                                         !
 ! D200  D(69,73,75,76)         58.3381                                         !
 ! D201  D(69,73,75,77)        177.7014                                         !
 ! D202  D(69,73,75,78)        -61.8627                                         !
 ! D203  D(74,73,75,76)        178.1183                                         !
 ! D204  D(74,73,75,77)        -62.5184                                         !
 ! D205  D(74,73,75,78)         57.9176                                         !
 ! D206  D(79,73,75,76)        -63.9299                                         !
 ! D207  D(79,73,75,77)         55.4333                                         !
 ! D208  D(79,73,75,78)        175.8693                                         !
 ! D209  D(69,73,79,80)        -62.3256                                         !
 ! D210  D(69,73,79,81)         57.6451                                         !
 ! D211  D(69,73,79,82)        177.7122                                         !
 ! D212  D(74,73,79,80)       -179.6858                                         !
 ! D213  D(74,73,79,81)        -59.7151                                         !
 ! D214  D(74,73,79,82)         60.352                                          !
 ! D215  D(75,73,79,80)         61.4839                                         !
 ! D216  D(75,73,79,81)       -178.5454                                         !
 ! D217  D(75,73,79,82)        -58.4783                                         !
 ! D218  D(68,83,85,86)         44.1968                                         !
 ! D219  D(68,83,85,87)        -66.9585                                         !
 ! D220  D(68,83,85,88)        163.0337                                         !
 ! D221  D(84,83,85,86)       -141.2935                                         !
 ! D222  D(84,83,85,87)        107.5512                                         !
 ! D223  D(84,83,85,88)        -22.4566                                         !
 ! D224  D(83,85,87,91)         -2.2927                                         !
 ! D225  D(83,85,87,98)        172.3038                                         !
 ! D226  D(86,85,87,91)       -115.167                                          !
 ! D227  D(86,85,87,98)         59.4295                                         !
 ! D228  D(88,85,87,91)        128.0873                                         !
 ! D229  D(88,85,87,98)        -57.3162                                         !
 ! D230  D(83,85,88,89)         24.05                                           !
 ! D231  D(83,85,88,90)        139.4036                                         !
 ! D232  D(83,85,88,92)        -99.9278                                         !
 ! D233  D(86,85,88,89)        141.3247                                         !
 ! D234  D(86,85,88,90)       -103.3217                                         !
 ! D235  D(86,85,88,92)         17.3469                                         !
 ! D236  D(87,85,88,89)       -105.1875                                         !
 ! D237  D(87,85,88,90)         10.166                                          !
 ! D238  D(87,85,88,92)        130.8346                                         !
 ! D239  D(85,87,98,99)         -1.248                                          !
 ! D240  D(85,87,98,100)      -165.8753                                         !
 ! D241  D(91,87,98,99)        173.2206                                         !
 ! D242  D(91,87,98,100)         8.5932                                         !
 ! D243  D(85,88,92,93)       -167.1101                                         !
 ! D244  D(85,88,92,94)         74.9757                                         !
 ! D245  D(85,88,92,95)        -46.6419                                         !
 ! D246  D(89,88,92,93)         69.7684                                         !
 ! D247  D(89,88,92,94)        -48.1458                                         !
 ! D248  D(89,88,92,95)       -169.7634                                         !
 ! D249  D(90,88,92,93)        -46.6494                                         !
 ! D250  D(90,88,92,94)       -164.5637                                         !
 ! D251  D(90,88,92,95)         73.8187                                         !
 ! D252  D(88,92,95,96)        143.744                                          !
 ! D253  D(88,92,95,97)        -34.5763                                         !
 ! D254  D(93,92,95,96)        -95.1871                                         !
 ! D255  D(93,92,95,97)         86.4926                                         !
 ! D256  D(94,92,95,96)         20.0096                                         !
 ! D257  D(94,92,95,97)       -158.3107                                         !
 ! D258  D(87,98,100,101)        2.1186                                         !
 ! D259  D(87,98,100,102)     -114.0612                                         !
 ! D260  D(87,98,100,103)      122.4125                                         !
 ! D261  D(99,98,100,101)     -162.0592                                         !
 ! D262  D(99,98,100,102)       81.7611                                         !
 ! D263  D(99,98,100,103)      -41.7653                                         !
 ! D264  D(98,100,102,106)      -5.4324                                         !
 ! D265  D(98,100,102,122)     175.1249                                         !
 ! D266  D(101,100,102,106)   -122.1123                                         !
 ! D267  D(101,100,102,122)     58.445                                          !
 ! D268  D(103,100,102,106)    118.2604                                         !
 ! D269  D(103,100,102,122)    -61.1822                                         !
 ! D270  D(98,100,103,104)    -164.7775                                         !
 ! D271  D(98,100,103,105)      80.0195                                         !
 ! D272  D(98,100,103,107)     -40.0487                                         !
 ! D273  D(101,100,103,104)    -45.9086                                         !
 ! D274  D(101,100,103,105)   -161.1115                                         !
 ! D275  D(101,100,103,107)     78.8203                                         !
 ! D276  D(102,100,103,104)     71.7841                                         !
 ! D277  D(102,100,103,105)    -43.4189                                         !
 ! D278  D(102,100,103,107)   -163.4871                                         !
 ! D279  D(100,102,122,123)    178.5025                                         !
 ! D280  D(106,102,122,123)     -0.9534                                         !
 ! D281  D(100,103,107,108)   -174.1679                                         !
 ! D282  D(100,103,107,109)     70.9191                                         !
 ! D283  D(100,103,107,110)    -51.1004                                         !
 ! D284  D(104,103,107,108)    -51.4858                                         !
 ! D285  D(104,103,107,109)   -166.3987                                         !
 ! D286  D(104,103,107,110)     71.5818                                         !
 ! D287  D(105,103,107,108)     64.6298                                         !
 ! D288  D(105,103,107,109)    -50.2831                                         !
 ! D289  D(105,103,107,110)   -172.3026                                         !
 ! D290  D(103,107,110,111)   -170.4652                                         !
 ! D291  D(103,107,110,112)     72.1225                                         !
 ! D292  D(103,107,110,113)    -50.637                                          !
 ! D293  D(108,107,110,111)    -48.1386                                         !
 ! D294  D(108,107,110,112)   -165.5508                                         !
 ! D295  D(108,107,110,113)     71.6897                                         !
 ! D296  D(109,107,110,111)     66.3722                                         !
 ! D297  D(109,107,110,112)    -51.04                                           !
 ! D298  D(109,107,110,113)   -173.7996                                         !
 ! D299  D(107,110,113,114)    -50.6202                                         !
 ! D300  D(107,110,113,121)    134.5226                                         !
 ! D301  D(111,110,113,114)     70.1183                                         !
 ! D302  D(111,110,113,121)   -104.7388                                         !
 ! D303  D(112,110,113,114)   -175.8949                                         !
 ! D304  D(112,110,113,121)      9.248                                          !
 ! D305  D(110,113,121,115)    -16.9356                                         !
 ! D306  D(110,113,121,118)    162.4668                                         !
 ! D307  D(114,113,121,115)    168.2155                                         !
 ! D308  D(114,113,121,118)    -12.3821                                         !
 ! D309  D(116,115,121,113)    168.0752                                         !
 ! D310  D(116,115,121,118)    -11.3254                                         !
 ! D311  D(117,115,121,113)    -18.3023                                         !
 ! D312  D(117,115,121,118)    162.2971                                         !
 ! D313  D(119,118,121,113)    156.6601                                         !
 ! D314  D(119,118,121,115)    -23.9134                                         !
 ! D315  D(120,118,121,113)    -11.3808                                         !
 ! D316  D(120,118,121,115)    168.0457                                         !
 --------------------------------------------------------------------------------
 Symmetry turned off by external request.
 Stoichiometry    C41H61N10O11(1+)
 Framework group  C1[X(C41H61N10O11)]
 Deg. of freedom   363
 Full point group                 C1      NOp   1
                          Input orientation:                          
 ---------------------------------------------------------------------
 Center     Atomic      Atomic             Coordinates (Angstroms)
 Number     Number       Type             X           Y           Z
 ---------------------------------------------------------------------
      1          7           0       -5.351505    1.161921    2.100809
      2          1           0       -5.198293    1.134835    1.080776
      3          1           0       -5.136169    2.111044    2.423123
      4          1           0       -6.329880    0.883412    2.347972
      5          6           0       -4.483041    0.133955    2.778883
      6          1           0       -3.784478   -0.247221    2.037838
      7          6           0       -5.461722   -0.973264    3.224104
      8          6           0       -3.724003    0.737996    3.964197
      9          1           0       -3.052246   -0.045728    4.326167
     10          1           0       -4.426373    0.962126    4.776481
     11          8           0       -6.674188   -0.725399    3.248323
     12          6           0       -2.934043    1.981162    3.606467
     13          6           0       -2.443059    2.208651    2.312554
     14          1           0       -2.604921    1.490787    1.512601
     15          6           0       -2.676649    2.936575    4.599823
     16          1           0       -3.053889    2.773068    5.606065
     17          6           0       -1.734625    3.376145    2.020131
     18          1           0       -1.406745    3.551366    1.003666
     19          6           0       -1.939537    4.084436    4.315869
     20          1           0       -1.745354    4.808044    5.101589
     21          6           0       -1.473192    4.312727    3.019293
     22          1           0       -0.923848    5.220049    2.786890
     23          7           0       -4.852229   -2.108673    3.566456
     24          1           0       -3.826844   -2.109904    3.480984
     25          6           0       -5.467622   -3.267455    4.235544
     26          1           0       -5.871712   -2.939497    5.200316
     27          6           0       -4.231662   -4.148069    4.533223
     28          6           0       -6.584791   -3.892840    3.402242
     29          1           0       -7.005045   -4.765185    3.914388
     30          1           0       -6.226563   -4.196503    2.411256
     31          1           0       -7.385413   -3.165319    3.256431
     32          8           0       -3.304206   -3.674582    5.173715
     33          7           0       -4.141311   -5.363686    3.919399
     34          1           0       -4.930870   -5.744228    3.416489
     35          6           0       -2.817993   -5.960122    3.722614
     36          1           0       -2.293827   -5.962742    4.679773
     37          6           0       -1.951886   -5.083986    2.782734
     38          6           0       -2.938974   -7.381409    3.174997
     39          1           0       -1.940299   -7.795596    3.016854
     40          1           0       -3.466434   -7.392446    2.213539
     41          1           0       -3.475527   -8.022971    3.880414
     42          8           0       -0.732617   -5.085167    2.828512
     43          7           0       -2.663548   -4.360662    1.864828
     44          1           0       -3.661540   -4.312689    2.001068
     45          6           0       -2.075702   -3.298346    1.071626
     46          1           0       -1.257695   -3.716741    0.477196
     47          6           0       -1.517253   -2.184208    1.967955
     48          6           0       -3.201566   -2.757740    0.147141
     49          1           0       -3.334209   -3.496194   -0.654149
     50          1           0       -4.130194   -2.771791    0.731268
     51          8           0       -2.203711   -1.668195    2.864186
     52          6           0       -3.053260   -1.362133   -0.417563
     53          6           0       -4.178641   -0.527066   -0.484534
     54          1           0       -5.140582   -0.915330   -0.147317
     55          6           0       -1.857915   -0.867216   -0.957145
     56          1           0       -0.966880   -1.485542   -0.973609
     57          6           0       -4.113215    0.760202   -1.022152
     58          1           0       -5.006844    1.367729   -1.152980
     59          6           0       -1.765841    0.412887   -1.490494
     60          1           0       -0.839155    0.759264   -1.932102
     61          8           0       -2.865880    2.489817   -2.039444
     62          1           0       -1.972485    2.670220   -2.531622
     63          6           0       -2.893561    1.259744   -1.531611
     64          7           0       -0.282962   -1.760985    1.681054
     65          1           0        0.233224   -2.166291    0.908697
     66          6           0        0.276232   -0.515887    2.184810
     67          1           0       -0.551481    0.075727    2.580029
     68          6           0        0.902365    0.172763    0.969576
     69          6           0        1.316274   -0.778885    3.291824
     70          1           0        0.816159   -1.377980    4.062811
     71          1           0        2.107443   -1.407617    2.863137
     72          8           0        1.353116   -0.504004    0.036956
     73          6           0        1.940434    0.475658    3.926051
     74          1           0        2.445481    1.044503    3.134632
     75          6           0        0.886292    1.372074    4.592819
     76          1           0        0.341288    0.818073    5.367496
     77          1           0        1.358632    2.236413    5.071523
     78          1           0        0.138601    1.760905    3.892224
     79          6           0        3.004950    0.056581    4.947828
     80          1           0        2.559588   -0.523643    5.765365
     81          1           0        3.780096   -0.563441    4.482134
     82          1           0        3.494740    0.932665    5.386135
     83          7           0        0.921452    1.519607    0.978458
     84          1           0        0.581069    2.023049    1.785862
     85          6           0        1.536594    2.241486   -0.114079
     86          1           0        1.192162    1.745992   -1.025232
     87          6           0        3.054308    2.021134   -0.157387
     88          6           0        1.133613    3.731553   -0.188459
     89          1           0        0.813223    4.077665    0.802034
     90          1           0        2.016836    4.321948   -0.439676
     91          8           0        3.662333    1.336014    0.686268
     92          6           0        0.046873    3.980569   -1.241561
     93          1           0       -0.045002    5.057995   -1.425367
     94          1           0       -0.934696    3.636815   -0.902300
     95          6           0        0.363887    3.279507   -2.584258
     96          8           0       -0.613669    2.803308   -3.227221
     97          8           0        1.573617    3.200287   -2.932572
     98          7           0        3.606237    2.548256   -1.256047
     99          1           0        2.952985    3.006113   -1.926777
    100          6           0        4.944307    2.228031   -1.681121
    101          1           0        5.344614    1.490395   -0.980253
    102          6           0        5.846293    3.455090   -1.589233
    103          6           0        4.949215    1.648226   -3.116328
    104          1           0        5.923155    1.176416   -3.281745
    105          1           0        4.876391    2.470592   -3.836638
    106          8           0        5.491242    4.571421   -1.304521
    107          6           0        3.793972    0.679329   -3.417640
    108          1           0        3.964265    0.258818   -4.417772
    109          1           0        2.853937    1.240633   -3.479285
    110          6           0        3.574212   -0.465134   -2.424015
    111          1           0        2.844274   -1.171027   -2.836037
    112          1           0        3.157012   -0.128171   -1.478742
    113          7           0        4.816084   -1.210459   -2.142440
    114          1           0        5.339294   -1.524841   -2.949741
    115          7           0        4.838253   -1.083016    0.192926
    116          1           0        5.088193   -1.538041    1.058996
    117          1           0        4.326656   -0.182969    0.277439
    118          7           0        6.225462   -2.564834   -0.909127
    119          1           0        6.841636   -2.645375   -0.113914
    120          1           0        6.457333   -3.104748   -1.729220
    121          6           0        5.278010   -1.598107   -0.950827
    122          8           0        7.126490    3.123676   -1.887508
    123          1           0        7.645778    3.948704   -1.835444
 ---------------------------------------------------------------------
 Rotational constants (GHZ):           0.0609804           0.0271207           0.0240009
 Standard basis: 6-31G(d) (6D, 7F)
  1052 basis functions,  1980 primitive gaussians,  1052 cartesian basis functions
   232 alpha electrons      232 beta electrons
       nuclear repulsion energy     10586.5435895984 Hartrees.
 NAtoms=  123 NActive=  123 NUniq=  123 SFac= 1.00D+00 NAtFMM=   60 NAOKFM=T Big=T
 Integral buffers will be    131072 words long.
 Raffenetti 2 integral format.
 Two-electron integral symmetry is turned off.
 Nuclear repulsion after empirical dispersion term =    10586.2266090046 Hartrees.
 One-electron integrals computed using PRISM.
 NBasis=  1052 RedAO= T EigKep=  4.21D-04  NBF=  1052
 NBsUse=  1052 1.00D-06 EigRej= -1.00D+00 NBFU=  1052
 Initial guess from the checkpoint file:  "conf-304.chk"
 B after Tr=     0.000000    0.000000    0.000000
         Rot=    1.000000    0.000000    0.000000    0.000000 Ang=   0.00 deg.
 Requested convergence on RMS density matrix=1.00D-08 within 128 cycles.
 Requested convergence on MAX density matrix=1.00D-06.
 Requested convergence on             energy=1.00D-06.
 No special actions if energy rises.
 SCF Done:  E(RB3LYP) =  -2974.34033409     A.U. after    3 cycles
            NFock=  3  Conv=0.66D-09     -V/T= 2.0093
 Hyperfine terms turned off by default for NAtoms > 100.

 **********************************************************************

            Population analysis using the SCF Density.

 **********************************************************************

 Alpha  occ. eigenvalues --  -19.26708 -19.23587 -19.21658 -19.20922 -19.20702
 Alpha  occ. eigenvalues --  -19.20567 -19.20428 -19.20388 -19.19509 -19.14305
 Alpha  occ. eigenvalues --  -19.14130 -14.55867 -14.50112 -14.49900 -14.47988
 Alpha  occ. eigenvalues --  -14.45976 -14.45597 -14.45257 -14.44889 -14.44412
 Alpha  occ. eigenvalues --  -14.42506 -10.45936 -10.40182 -10.38903 -10.38261
 Alpha  occ. eigenvalues --  -10.37964 -10.37475 -10.36734 -10.36580 -10.35961
 Alpha  occ. eigenvalues --  -10.33415 -10.32879 -10.32295 -10.32145 -10.31706
 Alpha  occ. eigenvalues --  -10.31678 -10.31642 -10.31517 -10.30656 -10.30382
 Alpha  occ. eigenvalues --  -10.29941 -10.28938 -10.28607 -10.28384 -10.28218
 Alpha  occ. eigenvalues --  -10.28131 -10.28076 -10.27724 -10.27589 -10.27347
 Alpha  occ. eigenvalues --  -10.27097 -10.26909 -10.26772 -10.26566 -10.26370
 Alpha  occ. eigenvalues --  -10.26263 -10.26149 -10.26110 -10.25057 -10.24701
 Alpha  occ. eigenvalues --  -10.24173 -10.23754  -1.17501  -1.15641  -1.14316
 Alpha  occ. eigenvalues --   -1.13693  -1.13125  -1.12692  -1.11425  -1.11320
 Alpha  occ. eigenvalues --   -1.10317  -1.09558  -1.08634  -1.07212  -1.03747
 Alpha  occ. eigenvalues --   -1.03261  -1.02507  -1.02067  -1.01957  -1.01347
 Alpha  occ. eigenvalues --   -1.00656  -1.00606  -0.98520  -0.95449  -0.92937
 Alpha  occ. eigenvalues --   -0.90550  -0.89483  -0.88809  -0.87924  -0.86860
 Alpha  occ. eigenvalues --   -0.86593  -0.84700  -0.84069  -0.83932  -0.83268
 Alpha  occ. eigenvalues --   -0.83120  -0.82294  -0.80168  -0.79060  -0.77486
 Alpha  occ. eigenvalues --   -0.77353  -0.75636  -0.75621  -0.75490  -0.74736
 Alpha  occ. eigenvalues --   -0.73705  -0.72246  -0.71766  -0.71264  -0.70571
 Alpha  occ. eigenvalues --   -0.70020  -0.69829  -0.69431  -0.69123  -0.68777
 Alpha  occ. eigenvalues --   -0.68718  -0.68465  -0.67681  -0.67554  -0.67011
 Alpha  occ. eigenvalues --   -0.66861  -0.66631  -0.65506  -0.65379  -0.63800
 Alpha  occ. eigenvalues --   -0.63652  -0.63561  -0.62891  -0.62266  -0.61042
 Alpha  occ. eigenvalues --   -0.60604  -0.60251  -0.59828  -0.59564  -0.58514
 Alpha  occ. eigenvalues --   -0.58121  -0.57940  -0.57563  -0.57361  -0.56878
 Alpha  occ. eigenvalues --   -0.56340  -0.56201  -0.55688  -0.55644  -0.55392
 Alpha  occ. eigenvalues --   -0.55155  -0.54947  -0.54847  -0.54602  -0.53915
 Alpha  occ. eigenvalues --   -0.53683  -0.53444  -0.53094  -0.52792  -0.52516
 Alpha  occ. eigenvalues --   -0.52219  -0.51971  -0.51747  -0.51655  -0.51432
 Alpha  occ. eigenvalues --   -0.51235  -0.51011  -0.50859  -0.50658  -0.50440
 Alpha  occ. eigenvalues --   -0.50159  -0.50051  -0.49873  -0.49431  -0.49339
 Alpha  occ. eigenvalues --   -0.49162  -0.49091  -0.48911  -0.48314  -0.48024
 Alpha  occ. eigenvalues --   -0.47872  -0.47598  -0.47476  -0.47357  -0.47115
 Alpha  occ. eigenvalues --   -0.47085  -0.46757  -0.46390  -0.45960  -0.45816
 Alpha  occ. eigenvalues --   -0.45523  -0.45418  -0.45288  -0.45084  -0.44763
 Alpha  occ. eigenvalues --   -0.44565  -0.44353  -0.43940  -0.43742  -0.43734
 Alpha  occ. eigenvalues --   -0.43538  -0.43222  -0.43018  -0.42930  -0.42687
 Alpha  occ. eigenvalues --   -0.42455  -0.42015  -0.41502  -0.40707  -0.40559
 Alpha  occ. eigenvalues --   -0.40037  -0.39835  -0.39676  -0.39299  -0.38791
 Alpha  occ. eigenvalues --   -0.38280  -0.38020  -0.37892  -0.36925  -0.36660
 Alpha  occ. eigenvalues --   -0.36149  -0.35955  -0.35429  -0.34609  -0.34537
 Alpha  occ. eigenvalues --   -0.34171  -0.34130  -0.34044  -0.33664  -0.33505
 Alpha  occ. eigenvalues --   -0.32969  -0.32798  -0.32085  -0.29820  -0.28727
 Alpha  occ. eigenvalues --   -0.28553  -0.27937
 Alpha virt. eigenvalues --   -0.10512  -0.10080  -0.10052  -0.08863  -0.08406
 Alpha virt. eigenvalues --   -0.08041  -0.07755  -0.07153  -0.06952  -0.06280
 Alpha virt. eigenvalues --   -0.05966  -0.05827  -0.05411  -0.04776  -0.03156
 Alpha virt. eigenvalues --   -0.02625  -0.02124  -0.01194  -0.00756  -0.00214
 Alpha virt. eigenvalues --    0.00132   0.00535   0.00731   0.01021   0.01203
 Alpha virt. eigenvalues --    0.01439   0.02144   0.02379   0.02622   0.03089
 Alpha virt. eigenvalues --    0.03326   0.03770   0.04102   0.04223   0.04432
 Alpha virt. eigenvalues --    0.04763   0.05028   0.05233   0.05704   0.06073
 Alpha virt. eigenvalues --    0.06212   0.06445   0.06656   0.06719   0.07124
[...]
 Alpha virt. eigenvalues --    0.97772   0.98478   0.98861   0.99300   0.99963
 Alpha virt. eigenvalues --    1.00118   1.00578   1.00756   1.00798   1.01274
 Alpha virt. eigenvalues --    1.01788   1.02145   1.02384   1.02530   1.03687
 Alpha virt. eigenvalues --    1.03781   1.04489   1.04866   1.05125   1.05793
 Alpha virt. eigenvalues --    1.05920   1.06497   1.06833   1.07084   1.07439
 Alpha virt. eigenvalues --    1.07723   1.08260   1.08396   1.09267   1.10012
 Alpha virt. eigenvalues --    1.10293   1.10755   1.11176   1.11769   1.11890
 Alpha virt. eigenvalues --    1.12307   1.12682   1.12934   1.13185   1.13420
 Alpha virt. eigenvalues --    1.14219   1.14709   1.15732   1.16179   1.16414
 Alpha virt. eigenvalues --    1.17112   1.17494   1.17933   1.18209   1.18390
 Alpha virt. eigenvalues --    1.19430   1.20122   1.20728   1.20869   1.21446
 Alpha virt. eigenvalues --    1.21767   1.22436   1.22964   1.23412   1.24169
 Alpha virt. eigenvalues --    1.24973   1.25040   1.25911   1.26690   1.26820
 Alpha virt. eigenvalues --    1.27384   1.28045   1.28401   1.29071   1.30940
 Alpha virt. eigenvalues --    1.31539   1.31579   1.32366   1.32996   1.33098
 Alpha virt. eigenvalues --    1.33642   1.33898   1.34401   1.34792   1.35384
 Alpha virt. eigenvalues --    1.35825   1.36344   1.36554   1.37071   1.37531
 Alpha virt. eigenvalues --    1.37998   1.38341   1.38687   1.38880   1.39213
 Alpha virt. eigenvalues --    1.39674   1.39861   1.40191   1.40752   1.41093
 Alpha virt. eigenvalues --    1.41712   1.42228   1.42825   1.43263   1.43322
 Alpha virt. eigenvalues --    1.43781   1.44066   1.44450   1.44920   1.45117
 Alpha virt. eigenvalues --    1.45863   1.46238   1.46875   1.47231   1.47852
 Alpha virt. eigenvalues --    1.48214   1.50259   1.51104   1.51389   1.52005
 Alpha virt. eigenvalues --    1.52199   1.52494   1.52612   1.52921   1.53372
 Alpha virt. eigenvalues --    1.54004   1.54713   1.55736   1.56418   1.56838
 Alpha virt. eigenvalues --    1.57406   1.57668   1.58393   1.58895   1.59474
 Alpha virt. eigenvalues --    1.59710   1.60561   1.60611   1.61634   1.62405
 Alpha virt. eigenvalues --    1.63090   1.63304   1.63712   1.64304   1.64880
 Alpha virt. eigenvalues --    1.65690   1.65858   1.66243   1.66865   1.67595
 Alpha virt. eigenvalues --    1.67980   1.68345   1.68657   1.68818   1.69660
 Alpha virt. eigenvalues --    1.70020   1.70400   1.70709   1.71016   1.71396
 Alpha virt. eigenvalues --    1.71710   1.71828   1.72527   1.72603   1.73101
 Alpha virt. eigenvalues --    1.73367   1.73748   1.73794   1.74505   1.74590
 Alpha virt. eigenvalues --    1.74869   1.75087   1.75493   1.75863   1.76299
 Alpha virt. eigenvalues --    1.76779   1.77149   1.77382   1.77410   1.77601
 Alpha virt. eigenvalues --    1.78059   1.78499   1.78998   1.79318   1.79613
 Alpha virt. eigenvalues --    1.79857   1.80151   1.80525   1.80705   1.81084
 Alpha virt. eigenvalues --    1.81836   1.82098   1.82428   1.82624   1.82865
 Alpha virt. eigenvalues --    1.83368   1.83872   1.84296   1.84572   1.84712
 Alpha virt. eigenvalues --    1.85045   1.85155   1.85710   1.85823   1.86002
 Alpha virt. eigenvalues --    1.86259   1.86687   1.87172   1.87557   1.87766
 Alpha virt. eigenvalues --    1.88522   1.88920   1.89113   1.89497   1.89705
 Alpha virt. eigenvalues --    1.89868   1.90016   1.90574   1.90872   1.91335
 Alpha virt. eigenvalues --    1.91743   1.91946   1.92174   1.92850   1.92902
 Alpha virt. eigenvalues --    1.92996   1.93253   1.93795   1.94612   1.95063
 Alpha virt. eigenvalues --    1.95248   1.95899   1.96222   1.96394   1.97037
 Alpha virt. eigenvalues --    1.97220   1.97575   1.97970   1.98150   1.98567
 Alpha virt. eigenvalues --    1.98605   1.98910   1.99625   2.00018   2.00462
 Alpha virt. eigenvalues --    2.00867   2.01183   2.02391   2.02711   2.02867
 Alpha virt. eigenvalues --    2.03014   2.03372   2.04009   2.04446   2.04570
 Alpha virt. eigenvalues --    2.05258   2.05352   2.06031   2.06349   2.06987
 Alpha virt. eigenvalues --    2.07318   2.07617   2.08010   2.08311   2.08758
 Alpha virt. eigenvalues --    2.09316   2.09674   2.11558   2.11690   2.12353
 Alpha virt. eigenvalues --    2.13159   2.13782   2.14174   2.14887   2.15475
 Alpha virt. eigenvalues --    2.15752   2.16014   2.17059   2.17344   2.17560
 Alpha virt. eigenvalues --    2.18195   2.18790   2.18876   2.19308   2.19482
 Alpha virt. eigenvalues --    2.20042   2.20290   2.20527   2.20781   2.21814
 Alpha virt. eigenvalues --    2.22164   2.22641   2.22946   2.23171   2.23290
 Alpha virt. eigenvalues --    2.23789   2.24014   2.24317   2.25384   2.25464
 Alpha virt. eigenvalues --    2.26653   2.27641   2.27829   2.28116   2.28626
 Alpha virt. eigenvalues --    2.30420   2.30476   2.30771   2.31155   2.31544
 Alpha virt. eigenvalues --    2.32340   2.32372   2.33151   2.33596   2.34026
 Alpha virt. eigenvalues --    2.34553   2.34899   2.36281   2.37638   2.38098
 Alpha virt. eigenvalues --    2.38626   2.39341   2.39576   2.39983   2.40245
 Alpha virt. eigenvalues --    2.40650   2.41280   2.42160   2.42511   2.43694
 Alpha virt. eigenvalues --    2.44474   2.44787   2.45024   2.45513   2.46137
 Alpha virt. eigenvalues --    2.46312   2.46748   2.47102   2.47894   2.48230
 Alpha virt. eigenvalues --    2.49175   2.49229   2.50308   2.50520   2.51047
 Alpha virt. eigenvalues --    2.51380   2.52457   2.52753   2.53733   2.54415
 Alpha virt. eigenvalues --    2.55177   2.55332   2.55806   2.56416   2.56706
 Alpha virt. eigenvalues --    2.57081   2.57500   2.58340   2.59655   2.59760
 Alpha virt. eigenvalues --    2.59965   2.61066   2.61870   2.62538   2.62667
 Alpha virt. eigenvalues --    2.63099   2.63552   2.63717   2.64370   2.64619
 Alpha virt. eigenvalues --    2.65085   2.65814   2.66340   2.66997   2.67039
 Alpha virt. eigenvalues --    2.67951   2.68692   2.69084   2.69378   2.70013
 Alpha virt. eigenvalues --    2.71805   2.72374   2.73699   2.74911   2.76246
 Alpha virt. eigenvalues --    2.77064   2.78063   2.78739   2.79155   2.80764
 Alpha virt. eigenvalues --    2.81937   2.82561   2.83736   2.84460   2.85858
 Alpha virt. eigenvalues --    2.86594   2.88175   2.89036   2.90073   2.90796
 Alpha virt. eigenvalues --    2.91998   2.93101   2.93631   2.93812   2.94764
 Alpha virt. eigenvalues --    2.95629   2.97109   2.98433   2.99137   2.99684
 Alpha virt. eigenvalues --    3.00630   3.02759   3.05472   3.06505   3.07639
 Alpha virt. eigenvalues --    3.08444   3.09564   3.09801   3.10121   3.12386
 Alpha virt. eigenvalues --    3.15336   3.31804   3.34107   3.67025   3.75271
 Alpha virt. eigenvalues --    3.75310   3.85202   3.88992   3.90293   3.94088
 Alpha virt. eigenvalues --    3.95384   3.98277   3.99002   4.02056   4.03085
 Alpha virt. eigenvalues --    4.03127   4.04274   4.04922   4.05567   4.06208
 Alpha virt. eigenvalues --    4.06672   4.08286   4.09940   4.10469   4.11708
 Alpha virt. eigenvalues --    4.13020   4.13436   4.15309   4.16803   4.17021
 Alpha virt. eigenvalues --    4.17863   4.18304   4.20390   4.22054   4.23953
 Alpha virt. eigenvalues --    4.25447   4.26672   4.27038   4.27638   4.28552
 Alpha virt. eigenvalues --    4.30231   4.31441   4.32792   4.33838   4.36837
 Alpha virt. eigenvalues --    4.37171   4.37588   4.39808   4.40369   4.41357
 Alpha virt. eigenvalues --    4.43429   4.47752   4.51318   4.52156   4.54661
 Alpha virt. eigenvalues --    4.55509   4.56004   4.59144   4.62566   4.62876
 Alpha virt. eigenvalues --    4.63763   4.66595   4.67467   4.69367   4.72125
          Condensed to atoms (all electrons):
 Mulliken charges:
               1
     1  N   -0.760461
     2  H    0.404756
     3  H    0.405114
     4  H    0.416718
     5  C   -0.141132
     6  H    0.241904
     7  C    0.634049
     8  C   -0.357773
     9  H    0.239486
    10  H    0.170691
    11  O   -0.547707
    12  C    0.109613
    13  C   -0.231941
    14  H    0.158329
    15  C   -0.175850
    16  H    0.149347
    17  C   -0.160525
    18  H    0.177496
    19  C   -0.126307
    20  H    0.160162
    21  C   -0.138049
    22  H    0.159054
    23  N   -0.672916
    24  H    0.441709
    25  C    0.006658
    26  H    0.197952
    27  C    0.548023
    28  C   -0.492707
    29  H    0.172140
    30  H    0.142693
    31  H    0.211357
    32  O   -0.485815
    33  N   -0.629430
    34  H    0.342665
    35  C   -0.024073
    36  H    0.211067
    37  C    0.619807
    38  C   -0.481848
    39  H    0.196067
    40  H    0.151612
    41  H    0.178760
    42  O   -0.515880
    43  N   -0.610468
    44  H    0.325638
    45  C   -0.038270
    46  H    0.167768
    47  C    0.671610
    48  C   -0.383269
    49  H    0.187829
    50  H    0.134475
    51  O   -0.582567
    52  C    0.161681
    53  C   -0.241907
    54  H    0.123436
    55  C   -0.185889
    56  H    0.129670
    57  C   -0.221241
    58  H    0.143767
    59  C   -0.216060
    60  H    0.175862
    61  O   -0.680326
    62  H    0.468756
    63  C    0.374326
    64  N   -0.573019
    65  H    0.357229
    66  C   -0.093812
    67  H    0.182952
    68  C    0.659687
    69  C   -0.242364
    70  H    0.169455
    71  H    0.131823
    72  O   -0.576606
    73  C   -0.105405
    74  H    0.156805
    75  C   -0.467324
    76  H    0.151652
    77  H    0.156223
    78  H    0.138905
    79  C   -0.439248
    80  H    0.151052
    81  H    0.129771
    82  H    0.153613
    83  N   -0.619139
    84  H    0.356930
    85  C   -0.053538
    86  H    0.215209
    87  C    0.604675
    88  C   -0.320452
    89  H    0.136540
    90  H    0.195795
    91  O   -0.595817
    92  C   -0.391274
    93  H    0.173350
    94  H    0.159004
    95  C    0.605381
    96  O   -0.586186
    97  O   -0.579863
    98  N   -0.578760
    99  H    0.416456
   100  C   -0.058025
   101  H    0.167616
   102  C    0.589661
   103  C   -0.285105
   104  H    0.150845
   105  H    0.184299
   106  O   -0.438254
   107  C   -0.319980
   108  H    0.148602
   109  H    0.226803
   110  C   -0.183993
   111  H    0.187054
   112  H    0.227220
   113  N   -0.599114
   114  H    0.350661
   115  N   -0.788933
   116  H    0.361437
   117  H    0.459862
   118  N   -0.769007
   119  H    0.374464
   120  H    0.371568
   121  C    0.804127
   122  O   -0.572966
   123  H    0.421820
 Sum of Mulliken charges =   1.00000
 Mulliken charges with hydrogens summed into heavy atoms:
               1
     1  N    0.466127
     5  C    0.100772
     7  C    0.634049
     8  C    0.052404
    11  O   -0.547707
    12  C    0.109613
    13  C   -0.073612
    15  C   -0.026503
    17  C    0.016972
    19  C    0.033856
    21  C    0.021005
    23  N   -0.231207
    25  C    0.204610
    27  C    0.548023
    28  C    0.033483
    32  O   -0.485815
    33  N   -0.286765
    35  C    0.186994
    37  C    0.619807
    38  C    0.044591
    42  O   -0.515880
    43  N   -0.284830
    45  C    0.129497
    47  C    0.671610
    48  C   -0.060966
    51  O   -0.582567
    52  C    0.161681
    53  C   -0.118471
    55  C   -0.056219
    57  C   -0.077474
    59  C   -0.040198
    61  O   -0.211569
    63  C    0.374326
    64  N   -0.215791
    66  C    0.089140
    68  C    0.659687
    69  C    0.058914
    72  O   -0.576606
    73  C    0.051400
    75  C   -0.020544
    79  C   -0.004812
    83  N   -0.262209
    85  C    0.161672
    87  C    0.604675
    88  C    0.011883
    91  O   -0.595817
    92  C   -0.058920
    95  C    0.605381
    96  O   -0.586186
    97  O   -0.579863
    98  N   -0.162304
   100  C    0.109591
   102  C    0.589661
   103  C    0.050039
   106  O   -0.438254
   107  C    0.055424
   110  C    0.230281
   113  N   -0.248452
   115  N    0.032366
   118  N   -0.022976
   121  C    0.804127
   122  O   -0.151146
 Electronic spatial extent (au):  <R**2>=          49037.4918
 Charge=              1.0000 electrons
 Dipole moment (field-independent basis, Debye):
    X=              2.6055    Y=             -9.7709    Z=              8.3243  Tot=             13.0979
 Quadrupole moment (field-independent basis, Debye-Ang):
   XX=           -169.3198   YY=           -303.1499   ZZ=           -346.3737
   XY=             -9.5539   XZ=            -69.9107   YZ=             29.5684
 Traceless Quadrupole moment (field-independent basis, Debye-Ang):
   XX=            103.6280   YY=            -30.2021   ZZ=            -73.4259
   XY=             -9.5539   XZ=            -69.9107   YZ=             29.5684
 Octapole moment (field-independent basis, Debye-Ang**2):
  XXX=            880.4362  YYY=           -179.9392  ZZZ=          -1067.4772  XYY=            -14.8287
  XXY=           -276.9756  XXZ=           -349.5552  XZZ=            167.9724  YZZ=             11.9113
  YYZ=           -196.8953  XYZ=             78.0616
 Hexadecapole moment (field-independent basis, Debye-Ang**3):
 XXXX=         -21244.9234 YYYY=         -16314.4331 ZZZZ=         -16392.6723 XXXY=          -4343.9611
 XXXZ=           3701.7086 YYYX=          -3010.5160 YYYZ=           2740.3544 ZZZX=           5050.3659
 ZZZY=           3854.6408 XXYY=          -5616.4665 XXZZ=          -6395.7291 YYZZ=          -5326.4993
 XXYZ=            647.8607 YYXZ=            805.5595 ZZXY=          -1263.0621
 N-N= 1.058622660900D+04 E-N=-2.806371533754D+04  KE= 2.946966274130D+03
 Unable to Open any file for archive entry.
 1\1\GINC-AMR-016\SP\RB3LYP\6-31G(d)\C41H61N10O11(1+)\KENGMITH\04-Aug-2
 022\0\\# B3LYP/6-31G* empiricaldispersion=gd3bj guess=read geom=check 
 nosymm integral(ultrafinegrid)\\Candidate Structure: Conf:304 Charge c
 alc in gas phase\\1,1\N,0,-5.3515053558,1.1619205615,2.1008094809\H,0,
 -5.1982930406,1.1348350781,1.0807758161\H,0,-5.1361685599,2.1110440971
 ,2.4231225776\H,0,-6.3298799642,0.8834121379,2.3479724072\C,0,-4.48304
 11232,0.1339547684,2.7788826998\H,0,-3.7844784042,-0.2472210757,2.0378
 381979\C,0,-5.4617223923,-0.9732644761,3.2241043246\C,0,-3.7240026655,
 0.7379962118,3.9641970534\H,0,-3.0522462389,-0.0457275688,4.3261668743
 \H,0,-4.4263728833,0.9621255966,4.7764813883\O,0,-6.6741880892,-0.7253
 98721,3.2483226918\C,0,-2.9340431348,1.9811621499,3.6064670166\C,0,-2.
 4430593456,2.2086507013,2.312553932\H,0,-2.6049211009,1.4907865332,1.5
 126014561\C,0,-2.6766485821,2.9365750751,4.5998232163\H,0,-3.053888996
 3,2.7730681054,5.6060645846\C,0,-1.7346247888,3.3761454795,2.020130933
 7\H,0,-1.4067446219,3.5513664856,1.0036662562\C,0,-1.9395371974,4.0844
 35601,4.3158692242\H,0,-1.7453542086,4.8080436228,5.1015888279\C,0,-1.
 4731917515,4.3127271871,3.0192928678\H,0,-0.9238478883,5.2200487569,2.
 7868898143\N,0,-4.8522294594,-2.1086729923,3.5664557388\H,0,-3.8268440
 111,-2.1099040321,3.4809843001\C,0,-5.4676224554,-3.2674553986,4.23554
 38727\H,0,-5.8717123712,-2.9394965346,5.2003160795\C,0,-4.2316620172,-
 4.1480694107,4.5332233104\C,0,-6.5847912941,-3.8928401673,3.4022419545
 \H,0,-7.0050450034,-4.7651850212,3.9143884254\H,0,-6.2265632407,-4.196
 5034305,2.4112563494\H,0,-7.3854126207,-3.1653190953,3.2564308662\O,0,
 -3.3042063011,-3.674581649,5.1737152349\N,0,-4.1413106056,-5.363685679
 1,3.9193990492\H,0,-4.9308701874,-5.7442282145,3.4164889657\C,0,-2.817
 9928925,-5.96012225,3.7226137255\H,0,-2.2938266162,-5.9627419953,4.679
 7734747\C,0,-1.9518862318,-5.0839863086,2.7827343063\C,0,-2.9389741036
 ,-7.3814089133,3.1749974649\H,0,-1.9402993545,-7.795595809,3.016853924
 7\H,0,-3.4664342113,-7.3924455898,2.2135388342\H,0,-3.4755265734,-8.02
 29706923,3.88041357\O,0,-0.7326167267,-5.0851668924,2.8285117727\N,0,-
 2.6635479823,-4.360661905,1.8648276618\H,0,-3.6615403565,-4.3126893842
 ,2.0010681642\C,0,-2.0757019513,-3.2983458014,1.071626363\H,0,-1.25769
 49719,-3.7167407788,0.4771958373\C,0,-1.5172526732,-2.1842082792,1.967
 9550589\C,0,-3.201565894,-2.7577395223,0.1471414244\H,0,-3.3342091003,
 -3.4961935225,-0.6541492145\H,0,-4.1301935752,-2.7717911917,0.73126758
 4\O,0,-2.2037105719,-1.6681947743,2.8641860946\C,0,-3.0532597979,-1.36
 21331028,-0.4175633311\C,0,-4.178641024,-0.5270662934,-0.4845344518\H,
 0,-5.1405824668,-0.9153301571,-0.1473174331\C,0,-1.8579154954,-0.86721
 6205,-0.9571446076\H,0,-0.966879543,-1.4855423274,-0.973609151\C,0,-4.
 1132146754,0.7602021695,-1.0221524942\H,0,-5.0068444313,1.3677291507,-
 1.1529800926\C,0,-1.7658410398,0.412886713,-1.4904942961\H,0,-0.839154
 5538,0.7592638554,-1.9321019228\O,0,-2.8658795055,2.4898168009,-2.0394
 437206\H,0,-1.9724853509,2.6702202376,-2.5316221891\C,0,-2.8935606887,
 1.2597443888,-1.5316112865\N,0,-0.2829624373,-1.7609848856,1.681053898
 6\H,0,0.2332240978,-2.1662909992,0.9086970154\C,0,0.2762317669,-0.5158
 865864,2.1848103386\H,0,-0.5514807325,0.0757271816,2.5800285425\C,0,0.
 902365263,0.1727634441,0.9695761538\C,0,1.3162742827,-0.7788848867,3.2
 918243159\H,0,0.8161586469,-1.3779803932,4.0628108368\H,0,2.1074430858
 ,-1.4076167243,2.8631367636\O,0,1.3531157709,-0.5040037669,0.036956209
 3\C,0,1.9404340844,0.4756584004,3.9260506593\H,0,2.4454808369,1.044503
 2706,3.1346319273\C,0,0.8862921142,1.3720744489,4.5928190928\H,0,0.341
 2879149,0.8180730266,5.3674956822\H,0,1.3586315875,2.2364132894,5.0715
 231378\H,0,0.1386007775,1.7609049252,3.8922241184\C,0,3.0049501765,0.0
 565808302,4.947827626\H,0,2.5595877169,-0.5236434971,5.7653653068\H,0,
 3.7800959953,-0.5634406237,4.4821339323\H,0,3.494739539,0.9326647885,5
 .3861347214\N,0,0.9214520599,1.5196074478,0.9784584027\H,0,0.581069164
 6,2.0230491756,1.7858618677\C,0,1.5365935944,2.2414864951,-0.114078929
 2\H,0,1.1921615437,1.7459924509,-1.0252321553\C,0,3.0543075218,2.02113
 42326,-0.1573867365\C,0,1.1336127557,3.7315525545,-0.1884594449\H,0,0.
 8132229758,4.0776646989,0.8020343518\H,0,2.0168361567,4.3219483287,-0.
 4396763724\O,0,3.6623330215,1.3360135873,0.6862684952\C,0,0.0468731906
 ,3.9805685589,-1.2415614439\H,0,-0.0450023396,5.0579951715,-1.42536663
 63\H,0,-0.9346959095,3.6368151568,-0.9023002957\C,0,0.3638868293,3.279
 5071596,-2.5842584496\O,0,-0.6136692412,2.8033082113,-3.2272208888\O,0
 ,1.5736170228,3.2002865963,-2.9325722849\N,0,3.6062371878,2.548256445,
 -1.256046648\H,0,2.9529845003,3.0061130773,-1.9267774897\C,0,4.9443065
 779,2.2280313262,-1.6811212114\H,0,5.344614128,1.4903950726,-0.9802528
 824\C,0,5.8462926214,3.4550896123,-1.5892327834\C,0,4.9492154175,1.648
 2255551,-3.1163275171\H,0,5.9231549778,1.1764159995,-3.2817451034\H,0,
 4.8763913138,2.4705920668,-3.8366381102\O,0,5.4912419592,4.5714209031,
 -1.3045211812\C,0,3.7939716132,0.6793292342,-3.4176397478\H,0,3.964264
 5486,0.2588182613,-4.4177717724\H,0,2.8539367897,1.2406334914,-3.47928
 48879\C,0,3.5742118429,-0.4651335055,-2.4240153628\H,0,2.8442736959,-1
 .1710270488,-2.8360366391\H,0,3.1570118523,-0.1281706208,-1.478742079\
 N,0,4.8160837587,-1.2104589799,-2.1424398332\H,0,5.3392944931,-1.52484
 06704,-2.9497408792\N,0,4.8382526194,-1.0830164331,0.1929255527\H,0,5.
 0881925444,-1.5380414522,1.0589958094\H,0,4.3266562658,-0.1829691152,0
 .2774392176\N,0,6.2254619841,-2.5648335925,-0.9091265905\H,0,6.8416362
 509,-2.6453749626,-0.1139142881\H,0,6.4573334029,-3.1047480645,-1.7292
 197965\C,0,5.2780104016,-1.5981070316,-0.9508270801\O,0,7.1264899389,3
 .1236756209,-1.8875083502\H,0,7.6457782295,3.9487038708,-1.8354439332\
 \Version=ES64L-G16RevC.01\HF=-2974.3403341\RMSD=6.561e-10\Dipole=1.732
 8153,-3.6528595,1.3033807\Quadrupole=77.0448604,-22.4545351,-54.590325
 3,-7.1030544,-51.9768679,21.9834035\PG=C01 [X(C41H61N10O11)]\\@
 The archive entry for this job was punched.


 ARTHROPOD AXIOM: A COMPUTER SYSTEM IS LIKE A SPIDER'S WEB.
 YOU CANNOT PULL ON ONE END WITHOUT MAKING THE OTHER END MOVE.
     -- GREG WETTSTEIN
 Job cpu time:       0 days  0 hours 10 minutes 36.4 seconds.
 Elapsed time:       0 days  0 hours  2 minutes 39.8 seconds.
 File lengths (MBytes):  RWF=    816 Int=      0 D2E=      0 Chk=    128 Scr=     32
 Normal termination of Gaussian 16 at Thu Aug  4 01:15:38 2022.
