 Entering Gaussian System, Link 0=/opt/software/Gaussian/g16-AVX2-C.01/g16/g16
 Input=charge-conf-586.com
 Output=charge-conf-586.log
 Initial command:
 /opt/software/Gaussian/g16-AVX2-C.01/g16/l1.exe "/mnt/gs21/scratch/kengmith/Gau-102201.inp" -scrdir="/mnt/gs21/scratch/kengmith/"
 Entering Link 1 = /opt/software/Gaussian/g16-AVX2-C.01/g16/l1.exe PID=    102211.
  
 Copyright (c) 1988-2019, Gaussian, Inc.  All Rights Reserved.
  
 This is part of the Gaussian(R) 16 program.  It is based on
 the Gaussian(R) 09 system (copyright 2009, Gaussian, Inc.),
 the Gaussian(R) 03 system (copyright 2003, Gaussian, Inc.),
 the Gaussian(R) 98 system (copyright 1998, Gaussian, Inc.),
 the Gaussian(R) 94 system (copyright 1995, Gaussian, Inc.),
 the Gaussian 92(TM) system (copyright 1992, Gaussian, Inc.),
 the Gaussian 90(TM) system (copyright 1990, Gaussian, Inc.),
 the Gaussian 88(TM) system (copyright 1988, Gaussian, Inc.),
 the Gaussian 86(TM) system (copyright 1986, Carnegie Mellon
 University), and the Gaussian 82(TM) system (copyright 1983,
 Carnegie Mellon University). Gaussian is a federally registered
 trademark of Gaussian, Inc.
  
 This software contains proprietary and confidential information,
 including trade secrets, belonging to Gaussian, Inc.
  
 This software is provided under written license and may be
 used, copied, transmitted, or stored only in accord with that
 written license.
  
 The following legend is applicable only to US Government
 contracts under FAR:
  
                    RESTRICTED RIGHTS LEGEND
  
 Use, reproduction and disclosure by the US Government is
 subject to restrictions as set forth in subparagraphs (a)
 and (c) of the Commercial Computer Software - Restricted
 Rights clause in FAR 52.227-19.
  
 Gaussian, Inc.
 340 Quinnipiac St., Bldg. 40, Wallingford CT 06492
  
  
 ---------------------------------------------------------------
 Warning -- This program may not be used in any manner that
 competes with the business of Gaussian, Inc. or will provide
 assistance to any competitor of Gaussian, Inc.  The licensee
 of this program is prohibited from giving any competitor of
 Gaussian, Inc. access to this program.  By using this program,
 the user acknowledges that Gaussian, Inc. is engaged in the
 business of creating and licensing software in the field of
 computational chemistry and represents and warrants to the
 licensee that it is not a competitor of Gaussian, Inc. and that
 it will not use this program in any manner prohibited above.
 ---------------------------------------------------------------
  

 Cite this work as:
 Gaussian 16, Revision C.01,
 M. J. Frisch, G. W. Trucks, H. B. Schlegel, G. E. Scuseria, 
 M. A. Robb, J. R. Cheeseman, G. Scalmani, V. Barone, 
 G. A. Petersson, H. Nakatsuji, X. Li, M. Caricato, A. V. Marenich, 
 J. Bloino, B. G. Janesko, R. Gomperts, B. Mennucci, H. P. Hratchian, 
 J. V. Ortiz, A. F. Izmaylov, J. L. Sonnenberg, D. Williams-Young, 
 F. Ding, F. Lipparini, F. Egidi, J. Goings, B. Peng, A. Petrone, 
 T. Henderson, D. Ranasinghe, V. G. Zakrzewski, J. Gao, N. Rega, 
 G. Zheng, W. Liang, M. Hada, M. Ehara, K. Toyota, R. Fukuda, 
 J. Hasegawa, M. Ishida, T. Nakajima, Y. Honda, O. Kitao, H. Nakai, 
 T. Vreven, K. Throssell, J. A. Montgomery, Jr., J. E. Peralta, 
 F. Ogliaro, M. J. Bearpark, J. J. Heyd, E. N. Brothers, K. N. Kudin, 
 V. N. Staroverov, T. A. Keith, R. Kobayashi, J. Normand, 
 K. Raghavachari, A. P. Rendell, J. C. Burant, S. S. Iyengar, 
 J. Tomasi, M. Cossi, J. M. Millam, M. Klene, C. Adamo, R. Cammi, 
 J. W. Ochterski, R. L. Martin, K. Morokuma, O. Farkas, 
 J. B. Foresman, and D. J. Fox, Gaussian, Inc., Wallingford CT, 2019.
 
 ******************************************
 Gaussian 16:  ES64L-G16RevC.01  3-Jul-2019
                 4-Aug-2022 
 ******************************************
 %mem=8gb
 %nproc=4
 Will use up to    4 processors via shared memory.
 %chk=conf-586.chk
 ----------------------------------------------------------------------
 # B3LYP/6-31G* empiricaldispersion=gd3bj guess=read geom=check nosymm 
 integral(ultrafinegrid)
 ----------------------------------------------------------------------
 1/29=2,38=1,172=1/1;
 2/12=2,15=1,40=1/2;
 3/5=1,6=6,7=1,11=2,14=-4,25=1,30=1,74=-5,75=-5,116=-2,124=41/1,2,3;
 4/5=1/1;
 5/5=2,38=6/2;
 6/7=2,8=2,9=2,10=2,28=1/1;
 99/5=1,9=1/99;
 ------------------------------------------------------
 Candidate Structure: Conf:586 Charge calc in gas phase
 ------------------------------------------------------
 Structure from the checkpoint file:  "conf-586.chk"
 Charge =  1 Multiplicity = 1
 Redundant internal coordinates found in file.  (old form).
 N,0,-4.1529003075,1.5783814433,8.2649905528
 H,0,-4.8641953888,0.8231652076,8.0439679629
 H,0,-4.1244381662,1.7915325677,9.2637919534
 H,0,-3.2300897756,1.2371903371,7.9446539279
 C,0,-4.6114163824,2.7238274548,7.3951507195
 H,0,-4.9726156994,3.5243182724,8.0457503816
 C,0,-5.7852455141,2.0991117175,6.5964333427
 C,0,-3.4490534341,3.2145514197,6.4952578557
 H,0,-2.7421781559,3.7753321838,7.1161122662
 H,0,-3.8607697441,3.9239051456,5.7705704307
 O,0,-6.0481347258,0.9058543548,6.790212339
 C,0,-2.7562881628,2.0594262395,5.8084154083
 C,0,-1.5862454774,1.5177092716,6.3647410119
 H,0,-1.1057729285,2.0148225879,7.2066786473
 C,0,-3.3151140258,1.4512826181,4.6758395397
 H,0,-4.210787974,1.8627992412,4.2244414626
 C,0,-0.9988198367,0.3787222956,5.8054103521
 H,0,-0.0879860743,-0.0272367158,6.2343510107
 C,0,-2.7229662849,0.3244708146,4.1079213416
 H,0,-3.1636539579,-0.1162576609,3.2184342576
 C,0,-1.5725297544,-0.2202774512,4.6850246446
 H,0,-1.1149400908,-1.1036861736,4.2556102812
 N,0,-6.4096613871,2.8940371155,5.7295956587
 H,0,-6.1293497249,3.8625263384,5.6121003406
 C,0,-7.3120084287,2.3913775187,4.6772052929
 H,0,-7.2360970056,1.3026216504,4.6997429277
 C,0,-6.7203639807,2.9927446766,3.3884503656
 C,0,-8.7518254169,2.8437108875,4.8993572228
 H,0,-9.3956582829,2.4351661999,4.114182731
 H,0,-8.8132238089,3.9344737154,4.8592276247
 H,0,-9.1165500223,2.4906911865,5.8677762062
 O,0,-6.6966181591,4.2153789295,3.2583120467
 N,0,-6.1916961781,2.105382849,2.5251647282
 H,0,-6.1631044957,1.1130798497,2.7451851996
 C,0,-5.4705887073,2.4505373916,1.3070244724
 H,0,-6.1617192126,2.9167993867,0.5943728763
 C,0,-4.9482809882,1.1179931092,0.7541320704
 C,0,-4.275735293,3.3921949861,1.5537156561
 H,0,-3.7620641562,3.6137403541,0.6144997884
 H,0,-3.5478718953,2.9160515501,2.2164782565
 H,0,-4.6296320679,4.3226265314,1.9990585585
 O,0,-4.8676595619,0.1221880722,1.4761767256
 N,0,-4.5544463383,1.1358511917,-0.5398356663
 H,0,-4.482841678,2.0436360997,-0.9827319792
 C,0,-3.6268998561,0.1285524756,-1.0439958259
 H,0,-4.0193209754,-0.8479196624,-0.7518032885
 C,0,-2.2572388034,0.3475965315,-0.3597371529
 C,0,-3.5531754934,0.2315877961,-2.5886440585
 H,0,-4.4802236824,-0.1895754911,-2.9958755303
 H,0,-3.5347834262,1.2930800223,-2.862999298
 O,0,-1.8091167118,1.482494931,-0.1870917382
 C,0,-2.3138872529,-0.4288459918,-3.1414795302
 C,0,-1.3323697129,0.3385805307,-3.7751778557
 H,0,-1.5352748495,1.3824586931,-4.0016574561
 C,0,-2.0413362765,-1.7817210431,-2.8946856823
 H,0,-2.8120838091,-2.4209806459,-2.4657273692
 C,0,-0.0732566527,-0.1856490593,-4.0629157014
 H,0,0.7036595138,0.4252719508,-4.5118122767
 C,0,-0.7753515735,-2.3058445326,-3.1329253343
 H,0,-0.5367840861,-3.3320909666,-2.8722099182
 O,0,1.5370272659,-1.9150494176,-3.6933581702
 H,0,1.756809848,-2.1410212463,-2.7641450159
 C,0,0.2326859129,-1.4835879481,-3.650690732
 N,0,-1.6411654288,-0.7767972369,0.0778384843
 H,0,-1.9739235586,-1.6665860355,-0.2685267777
 C,0,-0.3059186792,-0.7595087647,0.6754513357
 H,0,-0.260781123,0.152279686,1.2749814265
 C,0,0.7680925262,-0.6823904012,-0.4217167252
 C,0,-0.1023063671,-1.9840247615,1.5635503242
 H,0,-0.893779689,-1.97261012,2.3242850805
 H,0,-0.2526436411,-2.8875651309,0.9599923706
 O,0,1.3073342448,-1.6967304307,-0.8778924217
 C,0,1.2862330645,-2.0705785086,2.2334493172
 H,0,1.9959727989,-2.3766180249,1.4580438326
 C,0,1.7804233829,-0.729605477,2.7968899434
 H,0,1.0427190368,-0.2709946259,3.4689091267
 H,0,2.7021654773,-0.8807213154,3.3688330839
 H,0,2.0199312882,-0.0175868131,2.0007809366
 C,0,1.2618439315,-3.1549528549,3.3168242677
 H,0,0.5992933656,-2.8722447024,4.1474311231
 H,0,0.9044340647,-4.1123131536,2.9199397246
 H,0,2.2620681696,-3.3159507852,3.7327063748
 N,0,1.0673853289,0.5693165265,-0.8108529824
 H,0,0.478516866,1.3253231004,-0.4803484789
 C,0,2.1161751198,0.8324647482,-1.7776142422
 H,0,1.8562483881,0.3624208883,-2.7210482466
 C,0,3.4436923593,0.2278684102,-1.2887809633
 C,0,2.2252091593,2.3510259123,-2.0067397795
 H,0,1.3171568691,2.6687062742,-2.5330441591
 H,0,2.2322967246,2.8462051706,-1.0279519476
 O,0,3.8420059237,0.3115981578,-0.1336256108
 C,0,3.4710147408,2.8165191183,-2.7668585159
 H,0,4.3744416798,2.6295276693,-2.1779964534
 H,0,3.428176203,3.9032648828,-2.9108374351
 C,0,3.6966012137,2.1787091817,-4.1263285586
 O,0,4.8626441061,2.5486762908,-4.6474276166
 O,0,2.927831504,1.3918285464,-4.6633708073
 N,0,4.1402484786,-0.3286658521,-2.3119071964
 H,0,3.6844603866,-0.3537460088,-3.2172683655
 C,0,5.5433472998,-0.7181750261,-2.2932757498
 H,0,5.6583737375,-1.7773779239,-2.040027235
 C,0,6.3630175757,0.0413671414,-1.2562106392
 C,0,6.0659734483,-0.4042811238,-3.7079013277
 H,0,5.8379208446,0.6453694106,-3.8883449855
 H,0,5.4677029897,-0.9862576897,-4.4187364671
 O,0,7.1278256001,-0.4806177015,-0.4811872612
 C,0,7.5482050262,-0.612588619,-3.9969164708
 H,0,7.8171153731,-1.6774078628,-3.9688290796
 H,0,8.1664068592,-0.1156281992,-3.2390577037
 C,0,7.9036389467,-0.0100196911,-5.3669492898
 H,0,8.9811023019,-0.1009130367,-5.5466544555
 H,0,7.6533967186,1.0534144271,-5.3874903871
 N,0,7.2065319324,-0.6350523191,-6.484230955
 H,0,7.3489993038,-1.6309861704,-6.5880179687
 N,0,5.4919715315,0.9536052356,-6.7375257773
 H,0,4.7307143163,1.1727458584,-7.3778472758
 H,0,5.1015580017,1.9599429409,-5.4459208696
 N,0,5.5992826771,-1.01221097,-8.0744633766
 H,0,4.8214274241,-0.6536783033,-8.612476234
 H,0,6.3122546867,-1.428758542,-8.6622530637
 C,0,6.0686195911,-0.1554709017,-7.0794877592
 O,0,6.2570188916,1.3861301476,-1.3956411261
 H,0,6.8188463791,1.7726354807,-0.6987134396
 Recover connectivity data from disk.
                           ----------------------------
                           !    Current Parameters    !
                           ! (Angstroms and Degrees)  !
 --------------------------                            --------------------------
 ! Name  Definition              Value                                          !
 --------------------------------------------------------------------------------
 ! R1    R(1,2)                  1.0607                                         !
 ! R2    R(1,3)                  1.0217                                         !
 ! R3    R(1,4)                  1.0347                                         !
 ! R4    R(1,5)                  1.5096                                         !
 ! R5    R(5,6)                  1.0929                                         !
 ! R6    R(5,7)                  1.5512                                         !
 ! R7    R(5,8)                  1.5497                                         !
 ! R8    R(7,11)                 1.2371                                         !
 ! R9    R(7,23)                 1.3316                                         !
 ! R10   R(8,9)                  1.0953                                         !
 ! R11   R(8,10)                 1.0945                                         !
 ! R12   R(8,12)                 1.5119                                         !
 ! R13   R(12,13)                1.4043                                         !
 ! R14   R(12,15)                1.4017                                         !
 ! R15   R(13,14)                1.0894                                         !
 ! R16   R(13,17)                1.3983                                         !
 ! R17   R(15,16)                1.0841                                         !
 ! R18   R(15,19)                1.3939                                         !
 ! R19   R(17,18)                1.0855                                         !
 ! R20   R(17,21)                1.394                                          !
 ! R21   R(19,20)                1.0861                                         !
 ! R22   R(19,21)                1.3976                                         !
 ! R23   R(21,22)                1.0836                                         !
 ! R24   R(23,24)                1.0151                                         !
 ! R25   R(23,25)                1.4746                                         !
 ! R26   R(25,26)                1.0916                                         !
 ! R27   R(25,27)                1.5403                                         !
 ! R28   R(25,28)                1.5255                                         !
 ! R29   R(27,32)                1.2298                                         !
 ! R30   R(27,33)                1.3462                                         !
 ! R31   R(28,29)                1.0945                                         !
 ! R32   R(28,30)                1.0932                                         !
 ! R33   R(28,31)                1.0934                                         !
 ! R34   R(33,34)                1.0168                                         !
 ! R35   R(33,35)                1.457                                          !
 ! R36   R(35,36)                1.0968                                         !
 ! R37   R(35,37)                1.5343                                         !
 ! R38   R(35,38)                1.5412                                         !
 ! R39   R(37,42)                1.2327                                         !
 ! R40   R(37,43)                1.3527                                         !
 ! R41   R(38,39)                1.0932                                         !
 ! R42   R(38,40)                1.0935                                         !
 ! R43   R(38,41)                1.0905                                         !
 ! R44   R(43,44)                1.0126                                         !
 ! R45   R(43,45)                1.4592                                         !
 ! R46   R(45,46)                1.0922                                         !
 ! R47   R(45,47)                1.5467                                         !
 ! R48   R(45,48)                1.5498                                         !
 ! R49   R(47,51)                1.2323                                         !
 ! R50   R(47,64)                1.3547                                         !
 ! R51   R(48,49)                1.0966                                         !
 ! R52   R(48,50)                1.0965                                         !
 ! R53   R(48,52)                1.5092                                         !
 ! R54   R(52,53)                1.3978                                         !
 ! R55   R(52,55)                1.4019                                         !
 ! R56   R(53,54)                1.0873                                         !
 ! R57   R(53,57)                1.3939                                         !
 ! R58   R(55,56)                1.0894                                         !
 ! R59   R(55,59)                1.3907                                         !
 ! R60   R(57,58)                1.0855                                         !
 ! R61   R(57,63)                1.3958                                         !
 ! R62   R(59,60)                1.0854                                         !
 ! R63   R(59,63)                1.4001                                         !
 ! R64   R(61,62)                0.9812                                         !
 ! R65   R(61,63)                1.3745                                         !
 ! R66   R(64,65)                1.0111                                         !
 ! R67   R(64,66)                1.463                                          !
 ! R68   R(66,67)                1.0922                                         !
 ! R69   R(66,68)                1.5373                                         !
 ! R70   R(66,69)                1.5263                                         !
 ! R71   R(68,72)                1.236                                          !
 ! R72   R(68,83)                1.3445                                         !
 ! R73   R(69,70)                1.0979                                         !
 ! R74   R(69,71)                1.0969                                         !
 ! R75   R(69,73)                1.5441                                         !
 ! R76   R(73,74)                1.0948                                         !
 ! R77   R(73,75)                1.5362                                         !
 ! R78   R(73,79)                1.533                                          !
 ! R79   R(75,76)                1.0982                                         !
 ! R80   R(75,77)                1.0952                                         !
 ! R81   R(75,78)                1.0946                                         !
 ! R82   R(79,80)                1.0995                                         !
 ! R83   R(79,81)                1.0963                                         !
 ! R84   R(79,82)                1.0951                                         !
 ! R85   R(83,84)                1.0137                                         !
 ! R86   R(83,85)                1.4505                                         !
 ! R87   R(85,86)                1.0856                                         !
 ! R88   R(85,87)                1.5384                                         !
 ! R89   R(85,88)                1.5396                                         !
 ! R90   R(87,91)                1.2248                                         !
 ! R91   R(87,98)                1.3571                                         !
 ! R92   R(88,89)                1.0966                                         !
 ! R93   R(88,90)                1.0969                                         !
 ! R94   R(88,92)                1.5318                                         !
 ! R95   R(92,93)                1.0945                                         !
 ! R96   R(92,94)                1.0971                                         !
 ! R97   R(92,95)                1.5185                                         !
 ! R98   R(95,96)                1.3297                                         !
 ! R99   R(95,97)                1.2242                                         !
 ! R100  R(98,99)                1.0139                                         !
 ! R101  R(98,100)               1.4563                                         !
 ! R102  R(100,101)              1.0951                                         !
 ! R103  R(100,102)              1.5246                                         !
 ! R104  R(100,103)              1.5404                                         !
 ! R105  R(102,106)              1.2075                                         !
 ! R106  R(102,122)              1.3561                                         !
 ! R107  R(103,104)              1.0892                                         !
 ! R108  R(103,105)              1.0963                                         !
 ! R109  R(103,107)              1.5244                                         !
 ! R110  R(107,108)              1.0986                                         !
 ! R111  R(107,109)              1.097                                          !
 ! R112  R(107,110)              1.5383                                         !
 ! R113  R(110,111)              1.0961                                         !
 ! R114  R(110,112)              1.0927                                         !
 ! R115  R(110,113)              1.4577                                         !
 ! R116  R(113,114)              1.0114                                         !
 ! R117  R(113,121)              1.3708                                         !
 ! R118  R(115,116)              1.0186                                         !
 ! R119  R(115,117)              1.6833                                         !
 ! R120  R(115,121)              1.296                                          !
 ! R121  R(118,119)              1.0115                                         !
 ! R122  R(118,120)              1.0136                                         !
 ! R123  R(118,121)              1.3944                                         !
 ! R124  R(122,123)              0.9751                                         !
 ! A1    A(2,1,3)              111.7723                                         !
 ! A2    A(2,1,4)              107.384                                          !
 ! A3    A(2,1,5)              102.5031                                         !
 ! A4    A(3,1,4)              110.2799                                         !
 ! A5    A(3,1,5)              114.4222                                         !
 ! A6    A(4,1,5)              110.0416                                         !
 ! A7    A(1,5,6)              108.2472                                         !
 ! A8    A(1,5,7)              102.7652                                         !
 ! A9    A(1,5,8)              110.3063                                         !
 ! A10   A(6,5,7)              110.5729                                         !
 ! A11   A(6,5,8)              111.1993                                         !
 ! A12   A(7,5,8)              113.3355                                         !
 ! A13   A(5,7,11)             117.9439                                         !
 ! A14   A(5,7,23)             116.7193                                         !
 ! A15   A(11,7,23)            125.3174                                         !
 ! A16   A(5,8,9)              108.4838                                         !
 ! A17   A(5,8,10)             107.9125                                         !
 ! A18   A(5,8,12)             111.4401                                         !
 ! A19   A(9,8,10)             106.6349                                         !
 ! A20   A(9,8,12)             110.6687                                         !
 ! A21   A(10,8,12)            111.5145                                         !
 ! A22   A(8,12,13)            119.7703                                         !
 ! A23   A(8,12,15)            121.0537                                         !
 ! A24   A(13,12,15)           119.0063                                         !
 ! A25   A(12,13,14)           119.8425                                         !
 ! A26   A(12,13,17)           120.3838                                         !
 ! A27   A(14,13,17)           119.7061                                         !
 ! A28   A(12,15,16)           120.073                                          !
 ! A29   A(12,15,19)           120.7017                                         !
 ! A30   A(16,15,19)           119.2214                                         !
 ! A31   A(13,17,18)           119.9371                                         !
 ! A32   A(13,17,21)           119.9086                                         !
 ! A33   A(18,17,21)           120.1463                                         !
 ! A34   A(15,19,20)           119.2977                                         !
 ! A35   A(15,19,21)           119.7717                                         !
 ! A36   A(20,19,21)           120.9304                                         !
 ! A37   A(17,21,19)           120.2096                                         !
 ! A38   A(17,21,22)           119.6712                                         !
 ! A39   A(19,21,22)           120.1146                                         !
 ! A40   A(7,23,24)            121.0262                                         !
 ! A41   A(7,23,25)            123.2322                                         !
 ! A42   A(24,23,25)           114.3064                                         !
 ! A43   A(23,25,26)           106.4211                                         !
 ! A44   A(23,25,27)           103.2378                                         !
 ! A45   A(23,25,28)           111.8737                                         !
 ! A46   A(26,25,27)           112.3308                                         !
 ! A47   A(26,25,28)           111.0001                                         !
 ! A48   A(27,25,28)           111.6305                                         !
 ! A49   A(25,27,32)           118.9542                                         !
 ! A50   A(25,27,33)           115.4707                                         !
 ! A51   A(32,27,33)           125.4439                                         !
 ! A52   A(25,28,29)           109.8807                                         !
 ! A53   A(25,28,30)           110.0914                                         !
 ! A54   A(25,28,31)           110.3708                                         !
 ! A55   A(29,28,30)           108.2437                                         !
 ! A56   A(29,28,31)           108.5814                                         !
 ! A57   A(30,28,31)           109.6285                                         !
 ! A58   A(27,33,34)           121.0356                                         !
 ! A59   A(27,33,35)           125.0543                                         !
 ! A60   A(34,33,35)           113.4635                                         !
 ! A61   A(33,35,36)           109.3942                                         !
 ! A62   A(33,35,37)           105.3078                                         !
 ! A63   A(33,35,38)           113.2417                                         !
 ! A64   A(36,35,37)           110.4614                                         !
 ! A65   A(36,35,38)           109.4388                                         !
 ! A66   A(37,35,38)           108.9295                                         !
 ! A67   A(35,37,42)           120.8498                                         !
 ! A68   A(35,37,43)           115.6167                                         !
 ! A69   A(42,37,43)           123.5009                                         !
 ! A70   A(35,38,39)           110.5237                                         !
 ! A71   A(35,38,40)           110.3049                                         !
 ! A72   A(35,38,41)           109.5766                                         !
 ! A73   A(39,38,40)           107.2296                                         !
 ! A74   A(39,38,41)           109.2948                                         !
 ! A75   A(40,38,41)           109.8767                                         !
 ! A76   A(37,43,44)           116.7963                                         !
 ! A77   A(37,43,45)           120.4292                                         !
 ! A78   A(44,43,45)           115.0112                                         !
 ! A79   A(43,45,46)           107.2389                                         !
 ! A80   A(43,45,47)           108.1978                                         !
 ! A81   A(43,45,48)           109.1899                                         !
 ! A82   A(46,45,47)           109.053                                          !
 ! A83   A(46,45,48)           110.0698                                         !
 ! A84   A(47,45,48)           112.9165                                         !
 ! A85   A(45,47,51)           120.9596                                         !
 ! A86   A(45,47,64)           115.3451                                         !
 ! A87   A(51,47,64)           123.6243                                         !
 ! A88   A(45,48,49)           107.7194                                         !
 ! A89   A(45,48,50)           108.3319                                         !
 ! A90   A(45,48,52)           112.0279                                         !
 ! A91   A(49,48,50)           107.0402                                         !
 ! A92   A(49,48,52)           112.9594                                         !
 ! A93   A(50,48,52)           108.5542                                         !
 ! A94   A(48,52,53)           120.16                                           !
 ! A95   A(48,52,55)           121.1613                                         !
 ! A96   A(53,52,55)           118.2354                                         !
 ! A97   A(52,53,54)           119.3736                                         !
 ! A98   A(52,53,57)           121.4249                                         !
 ! A99   A(54,53,57)           119.1209                                         !
 ! A100  A(52,55,56)           119.871                                          !
 ! A101  A(52,55,59)           120.6962                                         !
 ! A102  A(56,55,59)           119.3638                                         !
 ! A103  A(53,57,58)           121.3462                                         !
 ! A104  A(53,57,63)           119.1276                                         !
 ! A105  A(58,57,63)           119.2488                                         !
 ! A106  A(55,59,60)           121.015                                          !
 ! A107  A(55,59,63)           119.8283                                         !
 ! A108  A(60,59,63)           119.0686                                         !
 ! A109  A(62,61,63)           104.8                                            !
 ! A110  A(57,63,59)           119.836                                          !
 ! A111  A(57,63,61)           119.3888                                         !
 ! A112  A(59,63,61)           120.6867                                         !
 ! A113  A(47,64,65)           118.0385                                         !
 ! A114  A(47,64,66)           122.4923                                         !
 ! A115  A(65,64,66)           116.7874                                         !
 ! A116  A(64,66,67)           105.7726                                         !
 ! A117  A(64,66,68)           110.2853                                         !
 ! A118  A(64,66,69)           110.4847                                         !
 ! A119  A(67,66,68)           108.725                                          !
 ! A120  A(67,66,69)           110.1729                                         !
 ! A121  A(68,66,69)           111.243                                          !
 ! A122  A(66,68,72)           121.8053                                         !
 ! A123  A(66,68,83)           114.1283                                         !
 ! A124  A(72,68,83)           124.0598                                         !
 ! A125  A(66,69,70)           107.378                                          !
 ! A126  A(66,69,71)           108.8077                                         !
 ! A127  A(66,69,73)           114.6684                                         !
 ! A128  A(70,69,71)           106.9193                                         !
 ! A129  A(70,69,73)           110.3806                                         !
 ! A130  A(71,69,73)           108.4079                                         !
 ! A131  A(69,73,74)           106.9391                                         !
 ! A132  A(69,73,75)           113.5455                                         !
 ! A133  A(69,73,79)           109.3862                                         !
 ! A134  A(74,73,75)           107.1714                                         !
 ! A135  A(74,73,79)           108.2461                                         !
 ! A136  A(75,73,79)           111.3075                                         !
 ! A137  A(73,75,76)           111.8922                                         !
 ! A138  A(73,75,77)           109.9883                                         !
 ! A139  A(73,75,78)           111.8053                                         !
 ! A140  A(76,75,77)           107.6607                                         !
 ! A141  A(76,75,78)           108.6864                                         !
 ! A142  A(77,75,78)           106.5834                                         !
 ! A143  A(73,79,80)           111.1978                                         !
 ! A144  A(73,79,81)           111.5343                                         !
 ! A145  A(73,79,82)           110.9667                                         !
 ! A146  A(80,79,81)           107.5532                                         !
 ! A147  A(80,79,82)           107.5356                                         !
 ! A148  A(81,79,82)           107.8706                                         !
 ! A149  A(68,83,84)           118.0756                                         !
 ! A150  A(68,83,85)           121.5175                                         !
 ! A151  A(84,83,85)           120.1363                                         !
 ! A152  A(83,85,86)           109.1201                                         !
 ! A153  A(83,85,87)           109.9291                                         !
 ! A154  A(83,85,88)           109.2288                                         !
 ! A155  A(86,85,87)           108.2145                                         !
 ! A156  A(86,85,88)           108.3414                                         !
 ! A157  A(87,85,88)           111.9499                                         !
 ! A158  A(85,87,91)           123.604                                          !
 ! A159  A(85,87,98)           111.3775                                         !
 ! A160  A(91,87,98)           124.9018                                         !
 ! A161  A(85,88,89)           107.3689                                         !
 ! A162  A(85,88,90)           108.2348                                         !
 ! A163  A(85,88,92)           115.5417                                         !
 ! A164  A(89,88,90)           107.6277                                         !
 ! A165  A(89,88,92)           110.3202                                         !
 ! A166  A(90,88,92)           107.4778                                         !
 ! A167  A(88,92,93)           110.635                                          !
 ! A168  A(88,92,94)           109.5351                                         !
 ! A169  A(88,92,95)           115.94                                           !
 ! A170  A(93,92,94)           105.7881                                         !
 ! A171  A(93,92,95)           106.6959                                         !
 ! A172  A(94,92,95)           107.7207                                         !
 ! A173  A(92,95,96)           111.3621                                         !
 ! A174  A(92,95,97)           124.7116                                         !
 ! A175  A(96,95,97)           123.8917                                         !
 ! A176  A(87,98,99)           116.9105                                         !
 ! A177  A(87,98,100)          126.4818                                         !
 ! A178  A(99,98,100)          115.9712                                         !
 ! A179  A(98,100,101)         111.2757                                         !
 ! A180  A(98,100,102)         113.17                                           !
 ! A181  A(98,100,103)         105.1079                                         !
 ! A182  A(101,100,102)        105.5505                                         !
 ! A183  A(101,100,103)        111.9518                                         !
 ! A184  A(102,100,103)        109.9235                                         !
 ! A185  A(100,102,106)        124.1785                                         !
 ! A186  A(100,102,122)        112.4619                                         !
 ! A187  A(106,102,122)        122.9675                                         !
 ! A188  A(100,103,104)        106.1099                                         !
 ! A189  A(100,103,105)        107.5851                                         !
 ! A190  A(100,103,107)        118.4341                                         !
 ! A191  A(104,103,105)        106.852                                          !
 ! A192  A(104,103,107)        107.6894                                         !
 ! A193  A(105,103,107)        109.5808                                         !
 ! A194  A(103,107,108)        111.4439                                         !
 ! A195  A(103,107,109)        110.7961                                         !
 ! A196  A(103,107,110)        109.8756                                         !
 ! A197  A(108,107,109)        106.4676                                         !
 ! A198  A(108,107,110)        110.2351                                         !
 ! A199  A(109,107,110)        107.9149                                         !
 ! A200  A(107,110,111)        109.9166                                         !
 ! A201  A(107,110,112)        110.185                                          !
 ! A202  A(107,110,113)        113.8388                                         !
 ! A203  A(111,110,112)        107.6223                                         !
 ! A204  A(111,110,113)        107.9908                                         !
 ! A205  A(112,110,113)        107.0599                                         !
 ! A206  A(110,113,114)        115.69                                           !
 ! A207  A(110,113,121)        125.435                                          !
 ! A208  A(114,113,121)        114.6366                                         !
 ! A209  A(116,115,117)        100.393                                          !
 ! A210  A(116,115,121)        110.5352                                         !
 ! A211  A(117,115,121)        144.8164                                         !
 ! A212  A(119,118,120)        112.2202                                         !
 ! A213  A(119,118,121)        114.8735                                         !
 ! A214  A(120,118,121)        115.4392                                         !
 ! A215  A(113,121,115)        123.6538                                         !
 ! A216  A(113,121,118)        111.9811                                         !
 ! A217  A(115,121,118)        124.3567                                         !
 ! A218  A(102,122,123)        105.9349                                         !
 ! D1    D(2,1,5,6)            112.5857                                         !
 ! D2    D(2,1,5,7)             -4.4198                                         !
 ! D3    D(2,1,5,8)           -125.5445                                         !
 ! D4    D(3,1,5,6)             -8.6098                                         !
 ! D5    D(3,1,5,7)           -125.6154                                         !
 ! D6    D(3,1,5,8)            113.26                                           !
 ! D7    D(4,1,5,6)           -133.4196                                         !
 ! D8    D(4,1,5,7)            109.5749                                         !
 ! D9    D(4,1,5,8)            -11.5498                                         !
 ! D10   D(1,5,7,11)            -1.8814                                         !
 ! D11   D(1,5,7,23)           179.6351                                         !
 ! D12   D(6,5,7,11)          -117.2194                                         !
 ! D13   D(6,5,7,23)            64.2972                                         !
 ! D14   D(8,5,7,11)           117.1488                                         !
 ! D15   D(8,5,7,23)           -61.3347                                         !
 ! D16   D(1,5,8,9)            -74.0665                                         !
 ! D17   D(1,5,8,10)           170.7657                                         !
 ! D18   D(1,5,8,12)            48.0135                                         !
 ! D19   D(6,5,8,9)             46.0409                                         !
 ! D20   D(6,5,8,10)           -69.1269                                         !
 ! D21   D(6,5,8,12)           168.1209                                         !
 ! D22   D(7,5,8,9)            171.3373                                         !
 ! D23   D(7,5,8,10)            56.1695                                         !
 ! D24   D(7,5,8,12)           -66.5827                                         !
 ! D25   D(5,7,23,24)           -0.6141                                         !
 ! D26   D(5,7,23,25)          164.9288                                         !
 ! D27   D(11,7,23,24)        -178.9721                                         !
 ! D28   D(11,7,23,25)         -13.4293                                         !
 ! D29   D(5,8,12,13)          -96.4844                                         !
 ! D30   D(5,8,12,15)           78.7346                                         !
 ! D31   D(9,8,12,13)           24.3248                                         !
 ! D32   D(9,8,12,15)         -160.4561                                         !
 ! D33   D(10,8,12,13)         142.853                                          !
 ! D34   D(10,8,12,15)         -41.928                                          !
 ! D35   D(8,12,13,14)          -8.4752                                         !
 ! D36   D(8,12,13,17)         174.523                                          !
 ! D37   D(15,12,13,14)        176.2077                                         !
 ! D38   D(15,12,13,17)         -0.7941                                         !
 ! D39   D(8,12,15,16)           5.5496                                         !
 ! D40   D(8,12,15,19)        -175.1654                                         !
 ! D41   D(13,12,15,16)       -179.1955                                         !
 ! D42   D(13,12,15,19)          0.0895                                         !
 ! D43   D(12,13,17,18)        179.2935                                         !
 ! D44   D(12,13,17,21)          0.3203                                         !
 ! D45   D(14,13,17,18)          2.2876                                         !
 ! D46   D(14,13,17,21)       -176.6855                                         !
 ! D47   D(12,15,19,20)       -178.7481                                         !
 ! D48   D(12,15,19,21)          1.0848                                         !
 ! D49   D(16,15,19,20)          0.543                                          !
 ! D50   D(16,15,19,21)       -179.6241                                         !
 ! D51   D(13,17,21,19)          0.8666                                         !
 ! D52   D(13,17,21,22)       -179.9074                                         !
 ! D53   D(18,17,21,19)       -178.1044                                         !
 ! D54   D(18,17,21,22)          1.1216                                         !
 ! D55   D(15,19,21,17)         -1.5652                                         !
 ! D56   D(15,19,21,22)        179.2122                                         !
 ! D57   D(20,19,21,17)        178.265                                          !
 ! D58   D(20,19,21,22)         -0.9576                                         !
 ! D59   D(7,23,25,26)          -6.9969                                         !
 ! D60   D(7,23,25,27)        -125.4378                                         !
 ! D61   D(7,23,25,28)         114.3966                                         !
 ! D62   D(24,23,25,26)        159.4264                                         !
 ! D63   D(24,23,25,27)         40.9855                                         !
 ! D64   D(24,23,25,28)        -79.1801                                         !
 ! D65   D(23,25,27,32)        -63.0481                                         !
 ! D66   D(23,25,27,33)        113.0143                                         !
 ! D67   D(26,25,27,32)       -177.2897                                         !
 ! D68   D(26,25,27,33)         -1.2272                                         !
 ! D69   D(28,25,27,32)         57.2839                                         !
 ! D70   D(28,25,27,33)       -126.6536                                         !
 ! D71   D(23,25,28,29)       -178.752                                          !
 ! D72   D(23,25,28,30)         62.1214                                         !
 ! D73   D(23,25,28,31)        -59.0345                                         !
 ! D74   D(26,25,28,29)        -60.04                                           !
 ! D75   D(26,25,28,30)       -179.1666                                         !
 ! D76   D(26,25,28,31)         59.6775                                         !
 ! D77   D(27,25,28,29)         66.1195                                         !
 ! D78   D(27,25,28,30)        -53.0071                                         !
 ! D79   D(27,25,28,31)       -174.163                                          !
 ! D80   D(25,27,33,34)         -2.2401                                         !
 ! D81   D(25,27,33,35)       -174.0595                                         !
 ! D82   D(32,27,33,34)        173.5303                                         !
 ! D83   D(32,27,33,35)          1.7109                                         !
 ! D84   D(27,33,35,36)        -66.9979                                         !
 ! D85   D(27,33,35,37)        174.2776                                         !
 ! D86   D(27,33,35,38)         55.3574                                         !
 ! D87   D(34,33,35,36)        120.6401                                         !
 ! D88   D(34,33,35,37)          1.9156                                         !
 ! D89   D(34,33,35,38)       -117.0046                                         !
 ! D90   D(33,35,37,42)        -18.755                                          !
 ! D91   D(33,35,37,43)        163.2501                                         !
 ! D92   D(36,35,37,42)       -136.7628                                         !
 ! D93   D(36,35,37,43)         45.2423                                         !
 ! D94   D(38,35,37,42)        103.0067                                         !
 ! D95   D(38,35,37,43)        -74.9882                                         !
 ! D96   D(33,35,38,39)        179.4395                                         !
 ! D97   D(33,35,38,40)         61.0315                                         !
 ! D98   D(33,35,38,41)        -60.0563                                         !
 ! D99   D(36,35,38,39)        -58.23                                           !
 ! D100  D(36,35,38,40)       -176.638                                          !
 ! D101  D(36,35,38,41)         62.2742                                         !
 ! D102  D(37,35,38,39)         62.6296                                         !
 ! D103  D(37,35,38,40)        -55.7784                                         !
 ! D104  D(37,35,38,41)       -176.8663                                         !
 ! D105  D(35,37,43,44)         10.3349                                         !
 ! D106  D(35,37,43,45)        158.1127                                         !
 ! D107  D(42,37,43,44)       -167.6008                                         !
 ! D108  D(42,37,43,45)        -19.8229                                         !
 ! D109  D(37,43,45,46)         50.626                                          !
 ! D110  D(37,43,45,47)        -66.8772                                         !
 ! D111  D(37,43,45,48)        169.8641                                         !
 ! D112  D(44,43,45,46)       -161.0554                                         !
 ! D113  D(44,43,45,47)         81.4414                                         !
 ! D114  D(44,43,45,48)        -41.8173                                         !
 ! D115  D(43,45,47,51)        -41.1242                                         !
 ! D116  D(43,45,47,64)        135.9194                                         !
 ! D117  D(46,45,47,51)       -157.4563                                         !
 ! D118  D(46,45,47,64)         19.5872                                         !
 ! D119  D(48,45,47,51)         79.8487                                         !
 ! D120  D(48,45,47,64)       -103.1078                                         !
 ! D121  D(43,45,48,49)        -74.2641                                         !
 ! D122  D(43,45,48,50)         41.2004                                         !
 ! D123  D(43,45,48,52)        160.914                                          !
 ! D124  D(46,45,48,49)         43.2028                                         !
 ! D125  D(46,45,48,50)        158.6673                                         !
 ! D126  D(46,45,48,52)        -81.6191                                         !
 ! D127  D(47,45,48,49)        165.3287                                         !
 ! D128  D(47,45,48,50)        -79.2068                                         !
 ! D129  D(47,45,48,52)         40.5068                                         !
 ! D130  D(45,47,64,65)         15.4577                                         !
 ! D131  D(45,47,64,66)        176.2894                                         !
 ! D132  D(51,47,64,65)       -167.5871                                         !
 ! D133  D(51,47,64,66)         -6.7554                                         !
 ! D134  D(45,48,52,53)       -114.5721                                         !
 ! D135  D(45,48,52,55)         57.6528                                         !
 ! D136  D(49,48,52,53)        123.5595                                         !
 ! D137  D(49,48,52,55)        -64.2156                                         !
 ! D138  D(50,48,52,53)          5.0114                                         !
 ! D139  D(50,48,52,55)        177.2363                                         !
 ! D140  D(48,52,53,54)         -9.3188                                         !
 ! D141  D(48,52,53,57)        167.3874                                         !
 ! D142  D(55,52,53,54)        178.2318                                         !
 ! D143  D(55,52,53,57)         -5.062                                          !
 ! D144  D(48,52,55,56)         11.875                                          !
 ! D145  D(48,52,55,59)       -165.0826                                         !
 ! D146  D(53,52,55,56)       -175.7546                                         !
 ! D147  D(53,52,55,59)          7.2877                                         !
 ! D148  D(52,53,57,58)       -177.0311                                         !
 ! D149  D(52,53,57,63)         -3.1265                                         !
 ! D150  D(54,53,57,58)         -0.3167                                         !
 ! D151  D(54,53,57,63)        173.5879                                         !
 ! D152  D(52,55,59,60)        175.2271                                         !
 ! D153  D(52,55,59,63)         -1.3292                                         !
 ! D154  D(56,55,59,60)         -1.7458                                         !
 ! D155  D(56,55,59,63)       -178.3022                                         !
 ! D156  D(53,57,63,59)          9.2095                                         !
 ! D157  D(53,57,63,61)       -167.395                                          !
 ! D158  D(58,57,63,59)       -176.7564                                         !
 ! D159  D(58,57,63,61)          6.6391                                         !
 ! D160  D(55,59,63,57)         -7.0433                                         !
 ! D161  D(55,59,63,61)        169.5163                                         !
 ! D162  D(60,59,63,57)        176.3333                                         !
 ! D163  D(60,59,63,61)         -7.1071                                         !
 ! D164  D(62,61,63,57)        119.7158                                         !
 ! D165  D(62,61,63,59)        -56.8591                                         !
 ! D166  D(47,64,66,67)         37.6332                                         !
 ! D167  D(47,64,66,68)        -79.7567                                         !
 ! D168  D(47,64,66,69)        156.846                                          !
 ! D169  D(65,64,66,67)       -161.3109                                         !
 ! D170  D(65,64,66,68)         81.2992                                         !
 ! D171  D(65,64,66,69)        -42.0981                                         !
 ! D172  D(64,66,68,72)        -93.9564                                         !
 ! D173  D(64,66,68,83)         86.9342                                         !
 ! D174  D(67,66,68,72)        150.4949                                         !
 ! D175  D(67,66,68,83)        -28.6145                                         !
 ! D176  D(69,66,68,72)         28.9987                                         !
 ! D177  D(69,66,68,83)       -150.1107                                         !
 ! D178  D(64,66,69,70)        -57.5776                                         !
 ! D179  D(64,66,69,71)         57.8095                                         !
 ! D180  D(64,66,69,73)        179.3777                                         !
 ! D181  D(67,66,69,70)         58.9342                                         !
 ! D182  D(67,66,69,71)        174.3213                                         !
 ! D183  D(67,66,69,73)        -64.1105                                         !
 ! D184  D(68,66,69,70)        179.5819                                         !
 ! D185  D(68,66,69,71)        -65.0311                                         !
 ! D186  D(68,66,69,73)         56.5372                                         !
 ! D187  D(66,68,83,84)         -9.7821                                         !
 ! D188  D(66,68,83,85)        176.1876                                         !
 ! D189  D(72,68,83,84)        171.1316                                         !
 ! D190  D(72,68,83,85)         -2.8987                                         !
 ! D191  D(66,69,73,74)        -75.1388                                         !
 ! D192  D(66,69,73,75)         42.8544                                         !
 ! D193  D(66,69,73,79)        167.8514                                         !
 ! D194  D(70,69,73,74)        163.4454                                         !
 ! D195  D(70,69,73,75)        -78.5614                                         !
 ! D196  D(70,69,73,79)         46.4355                                         !
 ! D197  D(71,69,73,74)         46.6476                                         !
 ! D198  D(71,69,73,75)        164.6407                                         !
 ! D199  D(71,69,73,79)        -70.3623                                         !
 ! D200  D(69,73,75,76)         53.0845                                         !
 ! D201  D(69,73,75,77)        172.6935                                         !
 ! D202  D(69,73,75,78)        -69.1012                                         !
 ! D203  D(74,73,75,76)        170.9432                                         !
 ! D204  D(74,73,75,77)        -69.4478                                         !
 ! D205  D(74,73,75,78)         48.7576                                         !
 ! D206  D(79,73,75,76)        -70.8749                                         !
 ! D207  D(79,73,75,77)         48.7341                                         !
 ! D208  D(79,73,75,78)        166.9395                                         !
 ! D209  D(69,73,79,80)        -66.6496                                         !
 ! D210  D(69,73,79,81)         53.4028                                         !
 ! D211  D(69,73,79,82)        173.7008                                         !
 ! D212  D(74,73,79,80)        177.1683                                         !
 ! D213  D(74,73,79,81)        -62.7793                                         !
 ! D214  D(74,73,79,82)         57.5187                                         !
 ! D215  D(75,73,79,80)         59.6357                                         !
 ! D216  D(75,73,79,81)        179.688                                          !
 ! D217  D(75,73,79,82)        -60.0139                                         !
 ! D218  D(68,83,85,86)         62.1647                                         !
 ! D219  D(68,83,85,87)        -56.3636                                         !
 ! D220  D(68,83,85,88)       -179.5637                                         !
 ! D221  D(84,83,85,86)       -111.7444                                         !
 ! D222  D(84,83,85,87)        129.7273                                         !
 ! D223  D(84,83,85,88)          6.5272                                         !
 ! D224  D(83,85,87,91)        -43.3131                                         !
 ! D225  D(83,85,87,98)        140.4459                                         !
 ! D226  D(86,85,87,91)       -162.3978                                         !
 ! D227  D(86,85,87,98)         21.3612                                         !
 ! D228  D(88,85,87,91)         78.2757                                         !
 ! D229  D(88,85,87,98)        -97.9653                                         !
 ! D230  D(83,85,88,89)        -68.8858                                         !
 ! D231  D(83,85,88,90)         47.0348                                         !
 ! D232  D(83,85,88,92)        167.5591                                         !
 ! D233  D(86,85,88,89)         49.8718                                         !
 ! D234  D(86,85,88,90)        165.7924                                         !
 ! D235  D(86,85,88,92)        -73.6833                                         !
 ! D236  D(87,85,88,89)        169.1236                                         !
 ! D237  D(87,85,88,90)        -74.9558                                         !
 ! D238  D(87,85,88,92)         45.5685                                         !
 ! D239  D(85,87,98,99)         -5.2531                                         !
 ! D240  D(85,87,98,100)       165.1857                                         !
 ! D241  D(91,87,98,99)        178.5645                                         !
 ! D242  D(91,87,98,100)       -10.9967                                         !
 ! D243  D(85,88,92,93)        -66.1016                                         !
 ! D244  D(85,88,92,94)        177.6604                                         !
 ! D245  D(85,88,92,95)         55.537                                          !
 ! D246  D(89,88,92,93)        171.9081                                         !
 ! D247  D(89,88,92,94)         55.6701                                         !
 ! D248  D(89,88,92,95)        -66.4533                                         !
 ! D249  D(90,88,92,93)         54.833                                          !
 ! D250  D(90,88,92,94)        -61.405                                          !
 ! D251  D(90,88,92,95)        176.4716                                         !
 ! D252  D(88,92,95,96)       -173.9883                                         !
 ! D253  D(88,92,95,97)          3.9381                                         !
 ! D254  D(93,92,95,96)        -50.2745                                         !
 ! D255  D(93,92,95,97)        127.652                                          !
 ! D256  D(94,92,95,96)         62.932                                          !
 ! D257  D(94,92,95,97)       -119.1416                                         !
 ! D258  D(87,98,100,101)       94.6292                                         !
 ! D259  D(87,98,100,102)      -24.0295                                         !
 ! D260  D(87,98,100,103)     -143.9946                                         !
 ! D261  D(99,98,100,101)      -94.8536                                         !
 ! D262  D(99,98,100,102)      146.4877                                         !
 ! D263  D(99,98,100,103)       26.5225                                         !
 ! D264  D(98,100,102,106)     132.4204                                         !
 ! D265  D(98,100,102,122)     -54.5977                                         !
 ! D266  D(101,100,102,106)     10.497                                          !
 ! D267  D(101,100,102,122)   -176.5211                                         !
 ! D268  D(103,100,102,106)   -110.4067                                         !
 ! D269  D(103,100,102,122)     62.5752                                         !
 ! D270  D(98,100,103,104)      54.8547                                         !
 ! D271  D(98,100,103,105)     -59.2296                                         !
 ! D272  D(98,100,103,107)     175.9224                                         !
 ! D273  D(101,100,103,104)    175.7877                                         !
 ! D274  D(101,100,103,105)     61.7035                                         !
 ! D275  D(101,100,103,107)    -63.1445                                         !
 ! D276  D(102,100,103,104)    -67.2416                                         !
 ! D277  D(102,100,103,105)    178.6741                                         !
 ! D278  D(102,100,103,107)     53.8261                                         !
 ! D279  D(100,102,122,123)   -179.4551                                         !
 ! D280  D(106,102,122,123)     -6.3749                                         !
 ! D281  D(100,103,107,108)     67.5916                                         !
 ! D282  D(100,103,107,109)    -50.7646                                         !
 ! D283  D(100,103,107,110)   -169.92                                           !
 ! D284  D(104,103,107,108)   -172.1501                                         !
 ! D285  D(104,103,107,109)     69.4937                                         !
 ! D286  D(104,103,107,110)    -49.6617                                         !
 ! D287  D(105,103,107,108)    -56.2749                                         !
 ! D288  D(105,103,107,109)   -174.6311                                         !
 ! D289  D(105,103,107,110)     66.2135                                         !
 ! D290  D(103,107,110,111)    176.3147                                         !
 ! D291  D(103,107,110,112)     57.8725                                         !
 ! D292  D(103,107,110,113)    -62.4034                                         !
 ! D293  D(108,107,110,111)    -60.4842                                         !
 ! D294  D(108,107,110,112)   -178.9263                                         !
 ! D295  D(108,107,110,113)     60.7978                                         !
 ! D296  D(109,107,110,111)     55.4082                                         !
 ! D297  D(109,107,110,112)    -63.034                                          !
 ! D298  D(109,107,110,113)    176.6901                                         !
 ! D299  D(107,110,113,114)    -57.9848                                         !
 ! D300  D(107,110,113,121)     97.5286                                         !
 ! D301  D(111,110,113,114)     64.3632                                         !
 ! D302  D(111,110,113,121)   -140.1234                                         !
 ! D303  D(112,110,113,114)    179.9966                                         !
 ! D304  D(112,110,113,121)    -24.4901                                         !
 ! D305  D(110,113,121,115)      2.2435                                         !
 ! D306  D(110,113,121,118)   -176.7452                                         !
 ! D307  D(114,113,121,115)    157.9811                                         !
 ! D308  D(114,113,121,118)    -21.0076                                         !
 ! D309  D(116,115,121,113)    173.3193                                         !
 ! D310  D(116,115,121,118)     -7.8167                                         !
 ! D311  D(117,115,121,113)    -36.7225                                         !
 ! D312  D(117,115,121,118)    142.1416                                         !
 ! D313  D(119,118,121,113)   -173.522                                          !
 ! D314  D(119,118,121,115)      7.4977                                         !
 ! D315  D(120,118,121,113)    -40.5124                                         !
 ! D316  D(120,118,121,115)    140.5073                                         !
 --------------------------------------------------------------------------------
 Symmetry turned off by external request.
 Stoichiometry    C41H61N10O11(1+)
 Framework group  C1[X(C41H61N10O11)]
 Deg. of freedom   363
 Full point group                 C1      NOp   1
                          Input orientation:                          
 ---------------------------------------------------------------------
 Center     Atomic      Atomic             Coordinates (Angstroms)
 Number     Number       Type             X           Y           Z
 ---------------------------------------------------------------------
      1          7           0       -4.152900    1.578381    8.264991
      2          1           0       -4.864195    0.823165    8.043968
      3          1           0       -4.124438    1.791533    9.263792
      4          1           0       -3.230090    1.237190    7.944654
      5          6           0       -4.611416    2.723827    7.395151
      6          1           0       -4.972616    3.524318    8.045750
      7          6           0       -5.785246    2.099112    6.596433
      8          6           0       -3.449053    3.214551    6.495258
      9          1           0       -2.742178    3.775332    7.116112
     10          1           0       -3.860770    3.923905    5.770570
     11          8           0       -6.048135    0.905854    6.790212
     12          6           0       -2.756288    2.059426    5.808415
     13          6           0       -1.586245    1.517709    6.364741
     14          1           0       -1.105773    2.014823    7.206679
     15          6           0       -3.315114    1.451283    4.675840
     16          1           0       -4.210788    1.862799    4.224441
     17          6           0       -0.998820    0.378722    5.805410
     18          1           0       -0.087986   -0.027237    6.234351
     19          6           0       -2.722966    0.324471    4.107921
     20          1           0       -3.163654   -0.116258    3.218434
     21          6           0       -1.572530   -0.220277    4.685025
     22          1           0       -1.114940   -1.103686    4.255610
     23          7           0       -6.409661    2.894037    5.729596
     24          1           0       -6.129350    3.862526    5.612100
     25          6           0       -7.312008    2.391378    4.677205
     26          1           0       -7.236097    1.302622    4.699743
     27          6           0       -6.720364    2.992745    3.388450
     28          6           0       -8.751825    2.843711    4.899357
     29          1           0       -9.395658    2.435166    4.114183
     30          1           0       -8.813224    3.934474    4.859228
     31          1           0       -9.116550    2.490691    5.867776
     32          8           0       -6.696618    4.215379    3.258312
     33          7           0       -6.191696    2.105383    2.525165
     34          1           0       -6.163104    1.113080    2.745185
     35          6           0       -5.470589    2.450537    1.307024
     36          1           0       -6.161719    2.916799    0.594373
     37          6           0       -4.948281    1.117993    0.754132
     38          6           0       -4.275735    3.392195    1.553716
     39          1           0       -3.762064    3.613740    0.614500
     40          1           0       -3.547872    2.916052    2.216478
     41          1           0       -4.629632    4.322627    1.999059
     42          8           0       -4.867660    0.122188    1.476177
     43          7           0       -4.554446    1.135851   -0.539836
     44          1           0       -4.482842    2.043636   -0.982732
     45          6           0       -3.626900    0.128552   -1.043996
     46          1           0       -4.019321   -0.847920   -0.751803
     47          6           0       -2.257239    0.347597   -0.359737
     48          6           0       -3.553175    0.231588   -2.588644
     49          1           0       -4.480224   -0.189575   -2.995876
     50          1           0       -3.534783    1.293080   -2.862999
     51          8           0       -1.809117    1.482495   -0.187092
     52          6           0       -2.313887   -0.428846   -3.141480
     53          6           0       -1.332370    0.338581   -3.775178
     54          1           0       -1.535275    1.382459   -4.001657
     55          6           0       -2.041336   -1.781721   -2.894686
     56          1           0       -2.812084   -2.420981   -2.465727
     57          6           0       -0.073257   -0.185649   -4.062916
     58          1           0        0.703660    0.425272   -4.511812
     59          6           0       -0.775352   -2.305845   -3.132925
     60          1           0       -0.536784   -3.332091   -2.872210
     61          8           0        1.537027   -1.915049   -3.693358
     62          1           0        1.756810   -2.141021   -2.764145
     63          6           0        0.232686   -1.483588   -3.650691
     64          7           0       -1.641165   -0.776797    0.077838
     65          1           0       -1.973924   -1.666586   -0.268527
     66          6           0       -0.305919   -0.759509    0.675451
     67          1           0       -0.260781    0.152280    1.274981
     68          6           0        0.768093   -0.682390   -0.421717
     69          6           0       -0.102306   -1.984025    1.563550
     70          1           0       -0.893780   -1.972610    2.324285
     71          1           0       -0.252644   -2.887565    0.959992
     72          8           0        1.307334   -1.696730   -0.877892
     73          6           0        1.286233   -2.070579    2.233449
     74          1           0        1.995973   -2.376618    1.458044
     75          6           0        1.780423   -0.729605    2.796890
     76          1           0        1.042719   -0.270995    3.468909
     77          1           0        2.702165   -0.880721    3.368833
     78          1           0        2.019931   -0.017587    2.000781
     79          6           0        1.261844   -3.154953    3.316824
     80          1           0        0.599293   -2.872245    4.147431
     81          1           0        0.904434   -4.112313    2.919940
     82          1           0        2.262068   -3.315951    3.732706
     83          7           0        1.067385    0.569317   -0.810853
     84          1           0        0.478517    1.325323   -0.480348
     85          6           0        2.116175    0.832465   -1.777614
     86          1           0        1.856248    0.362421   -2.721048
     87          6           0        3.443692    0.227868   -1.288781
     88          6           0        2.225209    2.351026   -2.006740
     89          1           0        1.317157    2.668706   -2.533044
     90          1           0        2.232297    2.846205   -1.027952
     91          8           0        3.842006    0.311598   -0.133626
     92          6           0        3.471015    2.816519   -2.766859
     93          1           0        4.374442    2.629528   -2.177996
     94          1           0        3.428176    3.903265   -2.910837
     95          6           0        3.696601    2.178709   -4.126329
     96          8           0        4.862644    2.548676   -4.647428
     97          8           0        2.927832    1.391829   -4.663371
     98          7           0        4.140248   -0.328666   -2.311907
     99          1           0        3.684460   -0.353746   -3.217268
    100          6           0        5.543347   -0.718175   -2.293276
    101          1           0        5.658374   -1.777378   -2.040027
    102          6           0        6.363018    0.041367   -1.256211
    103          6           0        6.065973   -0.404281   -3.707901
    104          1           0        5.837921    0.645369   -3.888345
    105          1           0        5.467703   -0.986258   -4.418736
    106          8           0        7.127826   -0.480618   -0.481187
    107          6           0        7.548205   -0.612589   -3.996916
    108          1           0        7.817115   -1.677408   -3.968829
    109          1           0        8.166407   -0.115628   -3.239058
    110          6           0        7.903639   -0.010020   -5.366949
    111          1           0        8.981102   -0.100913   -5.546654
    112          1           0        7.653397    1.053414   -5.387490
    113          7           0        7.206532   -0.635052   -6.484231
    114          1           0        7.348999   -1.630986   -6.588018
    115          7           0        5.491972    0.953605   -6.737526
    116          1           0        4.730714    1.172746   -7.377847
    117          1           0        5.101558    1.959943   -5.445921
    118          7           0        5.599283   -1.012211   -8.074463
    119          1           0        4.821427   -0.653678   -8.612476
    120          1           0        6.312255   -1.428759   -8.662253
    121          6           0        6.068620   -0.155471   -7.079488
    122          8           0        6.257019    1.386130   -1.395641
    123          1           0        6.818846    1.772635   -0.698713
 ---------------------------------------------------------------------
 Rotational constants (GHZ):           0.0776646           0.0171444           0.0156704
 Standard basis: 6-31G(d) (6D, 7F)
  1052 basis functions,  1980 primitive gaussians,  1052 cartesian basis functions
   232 alpha electrons      232 beta electrons
       nuclear repulsion energy      9894.8634841697 Hartrees.
 NAtoms=  123 NActive=  123 NUniq=  123 SFac= 1.00D+00 NAtFMM=   60 NAOKFM=T Big=T
 Integral buffers will be    131072 words long.
 Raffenetti 2 integral format.
 Two-electron integral symmetry is turned off.
 Nuclear repulsion after empirical dispersion term =     9894.5627252137 Hartrees.
 One-electron integrals computed using PRISM.
 NBasis=  1052 RedAO= T EigKep=  4.16D-04  NBF=  1052
 NBsUse=  1052 1.00D-06 EigRej= -1.00D+00 NBFU=  1052
 Initial guess from the checkpoint file:  "conf-586.chk"
 B after Tr=     0.000000    0.000000    0.000000
         Rot=    1.000000    0.000000    0.000000    0.000000 Ang=   0.00 deg.
 Requested convergence on RMS density matrix=1.00D-08 within 128 cycles.
 Requested convergence on MAX density matrix=1.00D-06.
 Requested convergence on             energy=1.00D-06.
 No special actions if energy rises.
 SCF Done:  E(RB3LYP) =  -2974.31086195     A.U. after    2 cycles
            NFock=  2  Conv=0.80D-08     -V/T= 2.0093
 Hyperfine terms turned off by default for NAtoms > 100.

 **********************************************************************

            Population analysis using the SCF Density.

 **********************************************************************

 Alpha  occ. eigenvalues --  -19.27132 -19.23732 -19.21825 -19.21429 -19.20560
 Alpha  occ. eigenvalues --  -19.20133 -19.19496 -19.17883 -19.17830 -19.17103
 Alpha  occ. eigenvalues --  -19.15764 -14.59165 -14.50268 -14.46037 -14.45275
 Alpha  occ. eigenvalues --  -14.43796 -14.41639 -14.40901 -14.40760 -14.40325
 Alpha  occ. eigenvalues --  -14.35343 -10.43926 -10.41022 -10.38804 -10.38413
 Alpha  occ. eigenvalues --  -10.36393 -10.36121 -10.35326 -10.34992 -10.34597
 Alpha  occ. eigenvalues --  -10.34503 -10.34331 -10.33061 -10.32802 -10.31988
 Alpha  occ. eigenvalues --  -10.31646 -10.30782 -10.29998 -10.29928 -10.29622
 Alpha  occ. eigenvalues --  -10.29355 -10.29300 -10.29013 -10.28389 -10.27683
 Alpha  occ. eigenvalues --  -10.27468 -10.27101 -10.27048 -10.26535 -10.25088
 Alpha  occ. eigenvalues --  -10.24851 -10.24785 -10.24784 -10.24377 -10.24028
 Alpha  occ. eigenvalues --  -10.23895 -10.23892 -10.23734 -10.23406 -10.23174
 Alpha  occ. eigenvalues --  -10.22787 -10.22133  -1.19615  -1.14607  -1.14095
 Alpha  occ. eigenvalues --   -1.13597  -1.13170  -1.12491  -1.11222  -1.09669
 Alpha  occ. eigenvalues --   -1.08281  -1.07453  -1.06686  -1.05529  -1.04023
 Alpha  occ. eigenvalues --   -1.03723  -1.02505  -1.01963  -1.00185  -0.98299
 Alpha  occ. eigenvalues --   -0.97520  -0.97409  -0.94811  -0.93308  -0.91195
 Alpha  occ. eigenvalues --   -0.90467  -0.89168  -0.87566  -0.86875  -0.85790
 Alpha  occ. eigenvalues --   -0.85698  -0.85496  -0.84427  -0.84258  -0.81341
 Alpha  occ. eigenvalues --   -0.80050  -0.79854  -0.79792  -0.78569  -0.76995
 Alpha  occ. eigenvalues --   -0.76802  -0.74853  -0.74400  -0.73515  -0.72975
 Alpha  occ. eigenvalues --   -0.72752  -0.72690  -0.72063  -0.71070  -0.70719
 Alpha  occ. eigenvalues --   -0.69777  -0.69534  -0.69180  -0.67585  -0.66982
 Alpha  occ. eigenvalues --   -0.66884  -0.66398  -0.66259  -0.65519  -0.64540
 Alpha  occ. eigenvalues --   -0.63931  -0.63773  -0.63616  -0.62536  -0.62075
 Alpha  occ. eigenvalues --   -0.61891  -0.61339  -0.60723  -0.59972  -0.59591
 Alpha  occ. eigenvalues --   -0.59346  -0.58775  -0.58460  -0.57880  -0.57727
 Alpha  occ. eigenvalues --   -0.57536  -0.56948  -0.56880  -0.56829  -0.56240
 Alpha  occ. eigenvalues --   -0.55890  -0.55511  -0.54884  -0.54434  -0.54020
 Alpha  occ. eigenvalues --   -0.53869  -0.53437  -0.53381  -0.52994  -0.52891
 Alpha  occ. eigenvalues --   -0.52387  -0.52265  -0.52091  -0.51986  -0.51769
 Alpha  occ. eigenvalues --   -0.51443  -0.51370  -0.51312  -0.51006  -0.50709
 Alpha  occ. eigenvalues --   -0.50594  -0.50203  -0.49777  -0.49563  -0.49504
 Alpha  occ. eigenvalues --   -0.49130  -0.49039  -0.48531  -0.48309  -0.48125
 Alpha  occ. eigenvalues --   -0.47603  -0.47424  -0.47303  -0.47260  -0.47070
 Alpha  occ. eigenvalues --   -0.46602  -0.46458  -0.46249  -0.46114  -0.46004
 Alpha  occ. eigenvalues --   -0.45820  -0.45387  -0.45297  -0.45221  -0.44967
 Alpha  occ. eigenvalues --   -0.44691  -0.44547  -0.44225  -0.43981  -0.43661
 Alpha  occ. eigenvalues --   -0.43286  -0.42905  -0.42657  -0.42461  -0.42263
 Alpha  occ. eigenvalues --   -0.42052  -0.41754  -0.41655  -0.41443  -0.40584
 Alpha  occ. eigenvalues --   -0.40453  -0.39960  -0.39882  -0.39723  -0.39187
 Alpha  occ. eigenvalues --   -0.38693  -0.38459  -0.38407  -0.38036  -0.37566
 Alpha  occ. eigenvalues --   -0.36625  -0.36300  -0.35871  -0.35751  -0.35707
 Alpha  occ. eigenvalues --   -0.35246  -0.34887  -0.34647  -0.34471  -0.34300
 Alpha  occ. eigenvalues --   -0.33755  -0.32808  -0.32069  -0.31561  -0.31411
 Alpha  occ. eigenvalues --   -0.30882  -0.30618  -0.30053  -0.29770  -0.29002
 Alpha  occ. eigenvalues --   -0.28540  -0.27530
 Alpha virt. eigenvalues --   -0.13321  -0.12259  -0.11863  -0.09107  -0.08137
 Alpha virt. eigenvalues --   -0.07253  -0.06273  -0.05805  -0.05110  -0.04882
 Alpha virt. eigenvalues --   -0.03687  -0.03652  -0.03329  -0.02662  -0.01699
 Alpha virt. eigenvalues --   -0.01573  -0.01512  -0.00803  -0.00654  -0.00459
 Alpha virt. eigenvalues --    0.00253   0.00427   0.00809   0.00894   0.02025
 Alpha virt. eigenvalues --    0.02840   0.03444   0.03710   0.04006   0.04233
 Alpha virt. eigenvalues --    0.04548   0.04703   0.04768   0.05023   0.05153
 Alpha virt. eigenvalues --    0.05457   0.05789   0.06114   0.06293   0.06378
 Alpha virt. eigenvalues --    0.06826   0.06907   0.07213   0.07483   0.07592
[...]
 Alpha virt. eigenvalues --    0.95097   0.95576   0.96083   0.96330   0.96889
 Alpha virt. eigenvalues --    0.97049   0.97549   0.98168   0.98253   0.98540
 Alpha virt. eigenvalues --    0.98656   0.99720   1.00313   1.00617   1.01638
 Alpha virt. eigenvalues --    1.01845   1.02128   1.02221   1.02430   1.02840
 Alpha virt. eigenvalues --    1.03634   1.04024   1.05053   1.05252   1.05778
 Alpha virt. eigenvalues --    1.06139   1.06275   1.06810   1.07124   1.07707
 Alpha virt. eigenvalues --    1.08402   1.08651   1.09018   1.09505   1.09813
 Alpha virt. eigenvalues --    1.10014   1.10711   1.11010   1.11681   1.12095
 Alpha virt. eigenvalues --    1.12448   1.12615   1.13431   1.13846   1.14195
 Alpha virt. eigenvalues --    1.14967   1.15543   1.15804   1.16415   1.16959
 Alpha virt. eigenvalues --    1.17306   1.17853   1.18311   1.19365   1.19559
 Alpha virt. eigenvalues --    1.20306   1.20403   1.20844   1.21108   1.21339
 Alpha virt. eigenvalues --    1.22198   1.22560   1.23022   1.24192   1.24447
 Alpha virt. eigenvalues --    1.24965   1.25147   1.25364   1.25586   1.26542
 Alpha virt. eigenvalues --    1.27222   1.27976   1.28307   1.28576   1.29328
 Alpha virt. eigenvalues --    1.30014   1.30676   1.31091   1.31880   1.32678
 Alpha virt. eigenvalues --    1.33164   1.33673   1.34139   1.34540   1.34796
 Alpha virt. eigenvalues --    1.34923   1.35940   1.36178   1.36398   1.36929
 Alpha virt. eigenvalues --    1.37620   1.37983   1.38456   1.38889   1.39224
 Alpha virt. eigenvalues --    1.39786   1.39882   1.40131   1.40206   1.40594
 Alpha virt. eigenvalues --    1.41087   1.41260   1.41681   1.42150   1.42616
 Alpha virt. eigenvalues --    1.44030   1.44197   1.44349   1.44657   1.44995
 Alpha virt. eigenvalues --    1.45389   1.46350   1.46759   1.47238   1.47607
 Alpha virt. eigenvalues --    1.48243   1.48784   1.49106   1.49641   1.50378
 Alpha virt. eigenvalues --    1.50789   1.51579   1.51974   1.52904   1.54283
 Alpha virt. eigenvalues --    1.54711   1.55064   1.56312   1.57059   1.58298
 Alpha virt. eigenvalues --    1.58478   1.58859   1.59539   1.59761   1.60192
 Alpha virt. eigenvalues --    1.61026   1.61429   1.62174   1.62683   1.63282
 Alpha virt. eigenvalues --    1.63694   1.64042   1.64373   1.64733   1.65355
 Alpha virt. eigenvalues --    1.65710   1.66282   1.66417   1.67012   1.67287
 Alpha virt. eigenvalues --    1.67804   1.68855   1.69392   1.69511   1.70161
 Alpha virt. eigenvalues --    1.70683   1.70829   1.71133   1.71335   1.71687
 Alpha virt. eigenvalues --    1.72369   1.72800   1.72999   1.73358   1.73374
 Alpha virt. eigenvalues --    1.73558   1.73754   1.74447   1.74632   1.74988
 Alpha virt. eigenvalues --    1.75627   1.75733   1.76154   1.76593   1.76794
 Alpha virt. eigenvalues --    1.77162   1.77530   1.77891   1.78280   1.78808
 Alpha virt. eigenvalues --    1.79250   1.79348   1.79671   1.79760   1.80449
 Alpha virt. eigenvalues --    1.80735   1.80963   1.81238   1.81396   1.81437
 Alpha virt. eigenvalues --    1.82203   1.82544   1.82685   1.82846   1.83168
 Alpha virt. eigenvalues --    1.83205   1.83520   1.83940   1.84896   1.85545
 Alpha virt. eigenvalues --    1.85759   1.85847   1.86065   1.86517   1.86559
 Alpha virt. eigenvalues --    1.87285   1.87535   1.87866   1.88302   1.88908
 Alpha virt. eigenvalues --    1.89610   1.89693   1.90138   1.90386   1.90879
 Alpha virt. eigenvalues --    1.91526   1.91832   1.91983   1.92175   1.92495
 Alpha virt. eigenvalues --    1.92728   1.93285   1.93579   1.93893   1.94217
 Alpha virt. eigenvalues --    1.94492   1.94851   1.94959   1.95732   1.95881
 Alpha virt. eigenvalues --    1.96112   1.96437   1.96797   1.97338   1.97785
 Alpha virt. eigenvalues --    1.98069   1.98211   1.98807   1.99177   1.99798
 Alpha virt. eigenvalues --    1.99916   2.00457   2.01122   2.01157   2.01518
 Alpha virt. eigenvalues --    2.02081   2.02804   2.02872   2.03351   2.03668
 Alpha virt. eigenvalues --    2.03854   2.04172   2.04661   2.04889   2.05221
 Alpha virt. eigenvalues --    2.05471   2.06237   2.06980   2.07454   2.08059
 Alpha virt. eigenvalues --    2.08963   2.09427   2.10054   2.10167   2.10380
 Alpha virt. eigenvalues --    2.10586   2.12238   2.12556   2.12800   2.13948
 Alpha virt. eigenvalues --    2.14073   2.14927   2.15268   2.15772   2.16061
 Alpha virt. eigenvalues --    2.16814   2.17202   2.17242   2.18399   2.18943
 Alpha virt. eigenvalues --    2.19101   2.19712   2.20051   2.20366   2.20446
 Alpha virt. eigenvalues --    2.21037   2.21706   2.21883   2.22168   2.23229
 Alpha virt. eigenvalues --    2.23878   2.24299   2.24580   2.24867   2.24917
 Alpha virt. eigenvalues --    2.26375   2.26821   2.27058   2.27328   2.27587
 Alpha virt. eigenvalues --    2.28164   2.28455   2.28938   2.29409   2.29630
 Alpha virt. eigenvalues --    2.30044   2.30567   2.31326   2.31483   2.32264
 Alpha virt. eigenvalues --    2.33316   2.33919   2.34727   2.34822   2.35864
 Alpha virt. eigenvalues --    2.36408   2.37576   2.37807   2.38378   2.38851
 Alpha virt. eigenvalues --    2.39448   2.39838   2.41022   2.41669   2.41991
 Alpha virt. eigenvalues --    2.42317   2.42979   2.44044   2.44361   2.44640
 Alpha virt. eigenvalues --    2.45187   2.45426   2.45511   2.45712   2.45984
 Alpha virt. eigenvalues --    2.46210   2.46954   2.47602   2.48270   2.49331
 Alpha virt. eigenvalues --    2.49519   2.49918   2.50233   2.50896   2.51977
 Alpha virt. eigenvalues --    2.52305   2.52825   2.54088   2.54278   2.54866
 Alpha virt. eigenvalues --    2.55044   2.56212   2.56841   2.56921   2.58259
 Alpha virt. eigenvalues --    2.59524   2.60058   2.61008   2.61784   2.62165
 Alpha virt. eigenvalues --    2.62398   2.62803   2.62999   2.63192   2.63694
 Alpha virt. eigenvalues --    2.64235   2.64422   2.64691   2.65343   2.65637
 Alpha virt. eigenvalues --    2.65895   2.66199   2.66555   2.67654   2.67981
 Alpha virt. eigenvalues --    2.68717   2.69066   2.70053   2.70229   2.70471
 Alpha virt. eigenvalues --    2.72054   2.73205   2.74512   2.74870   2.76099
 Alpha virt. eigenvalues --    2.76892   2.78522   2.79072   2.80070   2.80968
 Alpha virt. eigenvalues --    2.81747   2.83581   2.84379   2.85579   2.85932
 Alpha virt. eigenvalues --    2.86312   2.87640   2.89162   2.90324   2.90922
 Alpha virt. eigenvalues --    2.91451   2.93381   2.93704   2.94058   2.95277
 Alpha virt. eigenvalues --    2.96162   2.96402   2.97209   2.99483   3.00217
 Alpha virt. eigenvalues --    3.01954   3.02413   3.04053   3.06098   3.06375
 Alpha virt. eigenvalues --    3.07705   3.09997   3.10827   3.11769   3.14858
 Alpha virt. eigenvalues --    3.19548   3.29809   3.36373   3.69276   3.74392
 Alpha virt. eigenvalues --    3.85674   3.86101   3.90488   3.91139   3.92416
 Alpha virt. eigenvalues --    3.93369   3.93555   3.96603   3.99832   4.00920
 Alpha virt. eigenvalues --    4.02401   4.02848   4.04394   4.04728   4.06771
 Alpha virt. eigenvalues --    4.08765   4.10965   4.11644   4.12511   4.12643
 Alpha virt. eigenvalues --    4.13624   4.14805   4.16626   4.17835   4.18995
 Alpha virt. eigenvalues --    4.21139   4.22052   4.22833   4.23830   4.24823
 Alpha virt. eigenvalues --    4.25554   4.26319   4.27833   4.28402   4.29456
 Alpha virt. eigenvalues --    4.30295   4.32520   4.32848   4.34169   4.34670
 Alpha virt. eigenvalues --    4.35821   4.36523   4.39775   4.42245   4.43512
 Alpha virt. eigenvalues --    4.44669   4.46948   4.48314   4.48676   4.55764
 Alpha virt. eigenvalues --    4.56268   4.57181   4.58298   4.60135   4.62724
 Alpha virt. eigenvalues --    4.63869   4.66224   4.68394   4.75679   4.81600
          Condensed to atoms (all electrons):
 Mulliken charges:
               1
     1  N   -0.760221
     2  H    0.435203
     3  H    0.410482
     4  H    0.405293
     5  C   -0.107852
     6  H    0.221240
     7  C    0.651245
     8  C   -0.387358
     9  H    0.191682
    10  H    0.202741
    11  O   -0.529608
    12  C    0.127033
    13  C   -0.243416
    14  H    0.148050
    15  C   -0.177752
    16  H    0.144218
    17  C   -0.118856
    18  H    0.167755
    19  C   -0.148734
    20  H    0.200589
    21  C   -0.128655
    22  H    0.178943
    23  N   -0.587941
    24  H    0.362143
    25  C   -0.059685
    26  H    0.191661
    27  C    0.609533
    28  C   -0.447858
    29  H    0.179971
    30  H    0.185599
    31  H    0.171373
    32  O   -0.529620
    33  N   -0.624657
    34  H    0.362641
    35  C   -0.025682
    36  H    0.185358
    37  C    0.622507
    38  C   -0.473218
    39  H    0.173807
    40  H    0.166521
    41  H    0.198435
    42  O   -0.541366
    43  N   -0.588282
    44  H    0.344560
    45  C   -0.058949
    46  H    0.177012
    47  C    0.639696
    48  C   -0.365215
    49  H    0.175759
    50  H    0.148764
    51  O   -0.559635
    52  C    0.161862
    53  C   -0.194888
    54  H    0.130904
    55  C   -0.223837
    56  H    0.121521
    57  C   -0.186282
    58  H    0.196226
    59  C   -0.156585
    60  H    0.141307
    61  O   -0.690634
    62  H    0.442854
    63  C    0.342420
    64  N   -0.586587
    65  H    0.337217
    66  C   -0.072521
    67  H    0.174722
    68  C    0.689483
    69  C   -0.283292
    70  H    0.128450
    71  H    0.151476
    72  O   -0.582170
    73  C   -0.078149
    74  H    0.177714
    75  C   -0.475487
    76  H    0.114576
    77  H    0.153972
    78  H    0.180972
    79  C   -0.454560
    80  H    0.120937
    81  H    0.148030
    82  H    0.155908
    83  N   -0.619517
    84  H    0.359509
    85  C   -0.039257
    86  H    0.199204
    87  C    0.641282
    88  C   -0.296561
    89  H    0.157743
    90  H    0.151774
    91  O   -0.541665
    92  C   -0.388799
    93  H    0.217635
    94  H    0.176687
    95  C    0.588328
    96  O   -0.610815
    97  O   -0.500745
    98  N   -0.648159
    99  H    0.367257
   100  C    0.031212
   101  H    0.174114
   102  C    0.596474
   103  C   -0.336527
   104  H    0.190456
   105  H    0.161290
   106  O   -0.466462
   107  C   -0.276407
   108  H    0.140108
   109  H    0.160222
   110  C   -0.145224
   111  H    0.157169
   112  H    0.191220
   113  N   -0.593188
   114  H    0.328842
   115  N   -0.719177
   116  H    0.297979
   117  H    0.471328
   118  N   -0.760020
   119  H    0.335627
   120  H    0.334220
   121  C    0.663193
   122  O   -0.565540
   123  H    0.414371
 Sum of Mulliken charges =   1.00000
 Mulliken charges with hydrogens summed into heavy atoms:
               1
     1  N    0.490757
     5  C    0.113388
     7  C    0.651245
     8  C    0.007066
    11  O   -0.529608
    12  C    0.127033
    13  C   -0.095366
    15  C   -0.033533
    17  C    0.048899
    19  C    0.051856
    21  C    0.050288
    23  N   -0.225798
    25  C    0.131976
    27  C    0.609533
    28  C    0.089085
    32  O   -0.529620
    33  N   -0.262016
    35  C    0.159677
    37  C    0.622507
    38  C    0.065544
    42  O   -0.541366
    43  N   -0.243722
    45  C    0.118062
    47  C    0.639696
    48  C   -0.040692
    51  O   -0.559635
    52  C    0.161862
    53  C   -0.063984
    55  C   -0.102316
    57  C    0.009945
    59  C   -0.015278
    61  O   -0.247781
    63  C    0.342420
    64  N   -0.249370
    66  C    0.102202
    68  C    0.689483
    69  C   -0.003366
    72  O   -0.582170
    73  C    0.099565
    75  C   -0.025967
    79  C   -0.029685
    83  N   -0.260008
    85  C    0.159947
    87  C    0.641282
    88  C    0.012956
    91  O   -0.541665
    92  C    0.005523
    95  C    0.588328
    96  O   -0.139487
    97  O   -0.500745
    98  N   -0.280902
   100  C    0.205326
   102  C    0.596474
   103  C    0.015220
   106  O   -0.466462
   107  C    0.023924
   110  C    0.203165
   113  N   -0.264346
   115  N   -0.421198
   118  N   -0.090173
   121  C    0.663193
   122  O   -0.151169
 Electronic spatial extent (au):  <R**2>=          67034.0249
 Charge=              1.0000 electrons
 Dipole moment (field-independent basis, Debye):
    X=            -14.5564    Y=              7.9228    Z=             19.7467  Tot=             25.7797
 Quadrupole moment (field-independent basis, Debye-Ang):
   XX=           -232.5432   YY=           -334.4102   ZZ=            -60.1672
   XY=            -45.5494   XZ=           -165.1572   YZ=             74.2227
 Traceless Quadrupole moment (field-independent basis, Debye-Ang):
   XX=            -23.5030   YY=           -125.3700   ZZ=            148.8730
   XY=            -45.5494   XZ=           -165.1572   YZ=             74.2227
 Octapole moment (field-independent basis, Debye-Ang**2):
  XXX=            -14.8360  YYY=           -591.3638  ZZZ=           1248.4733  XYY=             11.5470
  XXY=            -52.1585  XXZ=             37.6210  XZZ=           -413.5677  YZZ=            228.3275
  YYZ=            107.0181  XYZ=           -160.0797
 Hexadecapole moment (field-independent basis, Debye-Ang**3):
 XXXX=         -37120.1065 YYYY=          -7114.0964 ZZZZ=         -13718.0687 XXXY=           2188.3895
 XXXZ=           8030.5251 YYYX=           3644.5323 YYYZ=          -2333.6046 ZZZX=           2170.7726
 ZZZY=           2312.8314 XXYY=          -7966.5057 XXZZ=          -6220.3644 YYZZ=          -5905.2354
 XXYZ=           1412.6086 YYXZ=           3898.6874 ZZXY=          -2076.4381
 N-N= 9.894562725214D+03 E-N=-2.668563303235D+04  KE= 2.946919185254D+03
 Unable to Open any file for archive entry.
 1\1\GINC-AMR-019\SP\RB3LYP\6-31G(d)\C41H61N10O11(1+)\KENGMITH\04-Aug-2
 022\0\\# B3LYP/6-31G* empiricaldispersion=gd3bj guess=read geom=check 
 nosymm integral(ultrafinegrid)\\Candidate Structure: Conf:586 Charge c
 alc in gas phase\\1,1\N,0,-4.1529003075,1.5783814433,8.2649905528\H,0,
 -4.8641953888,0.8231652076,8.0439679629\H,0,-4.1244381662,1.7915325677
 ,9.2637919534\H,0,-3.2300897756,1.2371903371,7.9446539279\C,0,-4.61141
 63824,2.7238274548,7.3951507195\H,0,-4.9726156994,3.5243182724,8.04575
 03816\C,0,-5.7852455141,2.0991117175,6.5964333427\C,0,-3.4490534341,3.
 2145514197,6.4952578557\H,0,-2.7421781559,3.7753321838,7.1161122662\H,
 0,-3.8607697441,3.9239051456,5.7705704307\O,0,-6.0481347258,0.90585435
 48,6.790212339\C,0,-2.7562881628,2.0594262395,5.8084154083\C,0,-1.5862
 454774,1.5177092716,6.3647410119\H,0,-1.1057729285,2.0148225879,7.2066
 786473\C,0,-3.3151140258,1.4512826181,4.6758395397\H,0,-4.210787974,1.
 8627992412,4.2244414626\C,0,-0.9988198367,0.3787222956,5.8054103521\H,
 0,-0.0879860743,-0.0272367158,6.2343510107\C,0,-2.7229662849,0.3244708
 146,4.1079213416\H,0,-3.1636539579,-0.1162576609,3.2184342576\C,0,-1.5
 725297544,-0.2202774512,4.6850246446\H,0,-1.1149400908,-1.1036861736,4
 .2556102812\N,0,-6.4096613871,2.8940371155,5.7295956587\H,0,-6.1293497
 249,3.8625263384,5.6121003406\C,0,-7.3120084287,2.3913775187,4.6772052
 929\H,0,-7.2360970056,1.3026216504,4.6997429277\C,0,-6.7203639807,2.99
 27446766,3.3884503656\C,0,-8.7518254169,2.8437108875,4.8993572228\H,0,
 -9.3956582829,2.4351661999,4.114182731\H,0,-8.8132238089,3.9344737154,
 4.8592276247\H,0,-9.1165500223,2.4906911865,5.8677762062\O,0,-6.696618
 1591,4.2153789295,3.2583120467\N,0,-6.1916961781,2.105382849,2.5251647
 282\H,0,-6.1631044957,1.1130798497,2.7451851996\C,0,-5.4705887073,2.45
 05373916,1.3070244724\H,0,-6.1617192126,2.9167993867,0.5943728763\C,0,
 -4.9482809882,1.1179931092,0.7541320704\C,0,-4.275735293,3.3921949861,
 1.5537156561\H,0,-3.7620641562,3.6137403541,0.6144997884\H,0,-3.547871
 8953,2.9160515501,2.2164782565\H,0,-4.6296320679,4.3226265314,1.999058
 5585\O,0,-4.8676595619,0.1221880722,1.4761767256\N,0,-4.5544463383,1.1
 358511917,-0.5398356663\H,0,-4.482841678,2.0436360997,-0.9827319792\C,
 0,-3.6268998561,0.1285524756,-1.0439958259\H,0,-4.0193209754,-0.847919
 6624,-0.7518032885\C,0,-2.2572388034,0.3475965315,-0.3597371529\C,0,-3
 .5531754934,0.2315877961,-2.5886440585\H,0,-4.4802236824,-0.1895754911
 ,-2.9958755303\H,0,-3.5347834262,1.2930800223,-2.862999298\O,0,-1.8091
 167118,1.482494931,-0.1870917382\C,0,-2.3138872529,-0.4288459918,-3.14
 14795302\C,0,-1.3323697129,0.3385805307,-3.7751778557\H,0,-1.535274849
 5,1.3824586931,-4.0016574561\C,0,-2.0413362765,-1.7817210431,-2.894685
 6823\H,0,-2.8120838091,-2.4209806459,-2.4657273692\C,0,-0.0732566527,-
 0.1856490593,-4.0629157014\H,0,0.7036595138,0.4252719508,-4.5118122767
 \C,0,-0.7753515735,-2.3058445326,-3.1329253343\H,0,-0.5367840861,-3.33
 20909666,-2.8722099182\O,0,1.5370272659,-1.9150494176,-3.6933581702\H,
 0,1.756809848,-2.1410212463,-2.7641450159\C,0,0.2326859129,-1.48358794
 81,-3.650690732\N,0,-1.6411654288,-0.7767972369,0.0778384843\H,0,-1.97
 39235586,-1.6665860355,-0.2685267777\C,0,-0.3059186792,-0.7595087647,0
 .6754513357\H,0,-0.260781123,0.152279686,1.2749814265\C,0,0.7680925262
 ,-0.6823904012,-0.4217167252\C,0,-0.1023063671,-1.9840247615,1.5635503
 242\H,0,-0.893779689,-1.97261012,2.3242850805\H,0,-0.2526436411,-2.887
 5651309,0.9599923706\O,0,1.3073342448,-1.6967304307,-0.8778924217\C,0,
 1.2862330645,-2.0705785086,2.2334493172\H,0,1.9959727989,-2.3766180249
 ,1.4580438326\C,0,1.7804233829,-0.729605477,2.7968899434\H,0,1.0427190
 368,-0.2709946259,3.4689091267\H,0,2.7021654773,-0.8807213154,3.368833
 0839\H,0,2.0199312882,-0.0175868131,2.0007809366\C,0,1.2618439315,-3.1
 549528549,3.3168242677\H,0,0.5992933656,-2.8722447024,4.1474311231\H,0
 ,0.9044340647,-4.1123131536,2.9199397246\H,0,2.2620681696,-3.315950785
 2,3.7327063748\N,0,1.0673853289,0.5693165265,-0.8108529824\H,0,0.47851
 6866,1.3253231004,-0.4803484789\C,0,2.1161751198,0.8324647482,-1.77761
 42422\H,0,1.8562483881,0.3624208883,-2.7210482466\C,0,3.4436923593,0.2
 278684102,-1.2887809633\C,0,2.2252091593,2.3510259123,-2.0067397795\H,
 0,1.3171568691,2.6687062742,-2.5330441591\H,0,2.2322967246,2.846205170
 6,-1.0279519476\O,0,3.8420059237,0.3115981578,-0.1336256108\C,0,3.4710
 147408,2.8165191183,-2.7668585159\H,0,4.3744416798,2.6295276693,-2.177
 9964534\H,0,3.428176203,3.9032648828,-2.9108374351\C,0,3.6966012137,2.
 1787091817,-4.1263285586\O,0,4.8626441061,2.5486762908,-4.6474276166\O
 ,0,2.927831504,1.3918285464,-4.6633708073\N,0,4.1402484786,-0.32866585
 21,-2.3119071964\H,0,3.6844603866,-0.3537460088,-3.2172683655\C,0,5.54
 33472998,-0.7181750261,-2.2932757498\H,0,5.6583737375,-1.7773779239,-2
 .040027235\C,0,6.3630175757,0.0413671414,-1.2562106392\C,0,6.065973448
 3,-0.4042811238,-3.7079013277\H,0,5.8379208446,0.6453694106,-3.8883449
 855\H,0,5.4677029897,-0.9862576897,-4.4187364671\O,0,7.1278256001,-0.4
 806177015,-0.4811872612\C,0,7.5482050262,-0.612588619,-3.9969164708\H,
 0,7.8171153731,-1.6774078628,-3.9688290796\H,0,8.1664068592,-0.1156281
 992,-3.2390577037\C,0,7.9036389467,-0.0100196911,-5.3669492898\H,0,8.9
 811023019,-0.1009130367,-5.5466544555\H,0,7.6533967186,1.0534144271,-5
 .3874903871\N,0,7.2065319324,-0.6350523191,-6.484230955\H,0,7.34899930
 38,-1.6309861704,-6.5880179687\N,0,5.4919715315,0.9536052356,-6.737525
 7773\H,0,4.7307143163,1.1727458584,-7.3778472758\H,0,5.1015580017,1.95
 99429409,-5.4459208696\N,0,5.5992826771,-1.01221097,-8.0744633766\H,0,
 4.8214274241,-0.6536783033,-8.612476234\H,0,6.3122546867,-1.428758542,
 -8.6622530637\C,0,6.0686195911,-0.1554709017,-7.0794877592\O,0,6.25701
 88916,1.3861301476,-1.3956411261\H,0,6.8188463791,1.7726354807,-0.6987
 134396\\Version=ES64L-G16RevC.01\HF=-2974.310862\RMSD=8.016e-09\Dipole
 =-5.4789073,2.0183157,7.6060777\Quadrupole=-17.4739023,-93.2095229,110
 .6834251,-33.8648641,-122.790334,55.1827372\PG=C01 [X(C41H61N10O11)]\\
 @
 The archive entry for this job was punched.


 "MATHEMATICS IS THE ART OF GIVING THE SAME NAME
 TO DIFFERENT THINGS."
                    - H. POINCARE
 Job cpu time:       0 days  0 hours  6 minutes 28.7 seconds.
 Elapsed time:       0 days  0 hours  1 minutes 37.8 seconds.
 File lengths (MBytes):  RWF=    816 Int=      0 D2E=      0 Chk=    128 Scr=     32
 Normal termination of Gaussian 16 at Thu Aug  4 01:14:37 2022.
