 Entering Gaussian System, Link 0=/opt/software/Gaussian/g16-AVX-C.01/g16/g16
 Input=charge-conf-876.com
 Output=charge-conf-876.log
 Initial command:
 /opt/software/Gaussian/g16-AVX-C.01/g16/l1.exe "/mnt/gs18/scratch/users/kengmith/Gau-44853.inp" -scrdir="/mnt/gs18/scratch/users/kengmith/"
 Entering Link 1 = /opt/software/Gaussian/g16-AVX-C.01/g16/l1.exe PID=     44870.
  
 Copyright (c) 1988-2019, Gaussian, Inc.  All Rights Reserved.
  
 This is part of the Gaussian(R) 16 program.  It is based on
 the Gaussian(R) 09 system (copyright 2009, Gaussian, Inc.),
 the Gaussian(R) 03 system (copyright 2003, Gaussian, Inc.),
 the Gaussian(R) 98 system (copyright 1998, Gaussian, Inc.),
 the Gaussian(R) 94 system (copyright 1995, Gaussian, Inc.),
 the Gaussian 92(TM) system (copyright 1992, Gaussian, Inc.),
 the Gaussian 90(TM) system (copyright 1990, Gaussian, Inc.),
 the Gaussian 88(TM) system (copyright 1988, Gaussian, Inc.),
 the Gaussian 86(TM) system (copyright 1986, Carnegie Mellon
 University), and the Gaussian 82(TM) system (copyright 1983,
 Carnegie Mellon University). Gaussian is a federally registered
 trademark of Gaussian, Inc.
  
 This software contains proprietary and confidential information,
 including trade secrets, belonging to Gaussian, Inc.
  
 This software is provided under written license and may be
 used, copied, transmitted, or stored only in accord with that
 written license.
  
 The following legend is applicable only to US Government
 contracts under FAR:
  
                    RESTRICTED RIGHTS LEGEND
  
 Use, reproduction and disclosure by the US Government is
 subject to restrictions as set forth in subparagraphs (a)
 and (c) of the Commercial Computer Software - Restricted
 Rights clause in FAR 52.227-19.
  
 Gaussian, Inc.
 340 Quinnipiac St., Bldg. 40, Wallingford CT 06492
  
  
 ---------------------------------------------------------------
 Warning -- This program may not be used in any manner that
 competes with the business of Gaussian, Inc. or will provide
 assistance to any competitor of Gaussian, Inc.  The licensee
 of this program is prohibited from giving any competitor of
 Gaussian, Inc. access to this program.  By using this program,
 the user acknowledges that Gaussian, Inc. is engaged in the
 business of creating and licensing software in the field of
 computational chemistry and represents and warrants to the
 licensee that it is not a competitor of Gaussian, Inc. and that
 it will not use this program in any manner prohibited above.
 ---------------------------------------------------------------
  

 Cite this work as:
 Gaussian 16, Revision C.01,
 M. J. Frisch, G. W. Trucks, H. B. Schlegel, G. E. Scuseria, 
 M. A. Robb, J. R. Cheeseman, G. Scalmani, V. Barone, 
 G. A. Petersson, H. Nakatsuji, X. Li, M. Caricato, A. V. Marenich, 
 J. Bloino, B. G. Janesko, R. Gomperts, B. Mennucci, H. P. Hratchian, 
 J. V. Ortiz, A. F. Izmaylov, J. L. Sonnenberg, D. Williams-Young, 
 F. Ding, F. Lipparini, F. Egidi, J. Goings, B. Peng, A. Petrone, 
 T. Henderson, D. Ranasinghe, V. G. Zakrzewski, J. Gao, N. Rega, 
 G. Zheng, W. Liang, M. Hada, M. Ehara, K. Toyota, R. Fukuda, 
 J. Hasegawa, M. Ishida, T. Nakajima, Y. Honda, O. Kitao, H. Nakai, 
 T. Vreven, K. Throssell, J. A. Montgomery, Jr., J. E. Peralta, 
 F. Ogliaro, M. J. Bearpark, J. J. Heyd, E. N. Brothers, K. N. Kudin, 
 V. N. Staroverov, T. A. Keith, R. Kobayashi, J. Normand, 
 K. Raghavachari, A. P. Rendell, J. C. Burant, S. S. Iyengar, 
 J. Tomasi, M. Cossi, J. M. Millam, M. Klene, C. Adamo, R. Cammi, 
 J. W. Ochterski, R. L. Martin, K. Morokuma, O. Farkas, 
 J. B. Foresman, and D. J. Fox, Gaussian, Inc., Wallingford CT, 2019.
 
 ******************************************
 Gaussian 16:  ES64L-G16RevC.01  3-Jul-2019
                27-May-2022 
 ******************************************
 %mem=8gb
 %nproc=4
 Will use up to    4 processors via shared memory.
 %chk=conf-876.chk
 -------------------------------------------------------------------
 # B3LYP/6-31G* guess=read geom=check nosymm integral(ultrafinegrid)
 -------------------------------------------------------------------
 1/29=2,38=1,172=1/1;
 2/12=2,15=1,40=1/2;
 3/5=1,6=6,7=1,11=2,14=-4,25=1,30=1,74=-5,75=-5,116=-2/1,2,3;
 4/5=1/1;
 5/5=2,38=6/2;
 6/7=2,8=2,9=2,10=2,28=1/1;
 99/5=1,9=1/99;
 ------------------------------------------------------
 Candidate Structure: Conf:876 Charge calc in gas phase
 ------------------------------------------------------
 Structure from the checkpoint file:  "conf-876.chk"
 Charge =  1 Multiplicity = 1
 Redundant internal coordinates found in file.  (old form).
 N,0,-5.5342872185,-0.9387397589,4.4141251547
 H,0,-5.4155605484,-1.7446542483,5.0335510333
 H,0,-6.3237570063,-0.3832022889,4.7535942357
 H,0,-5.7145182828,-1.2694117894,3.4007534276
 C,0,-4.2753803061,-0.1417222268,4.2117280505
 H,0,-3.4723539827,-0.5557071833,4.8237605146
 H,0,-4.4466170777,0.8973999025,4.4976839519
 C,0,-3.9965266454,-0.2932064425,2.6888443871
 O,0,-4.8192323056,-0.9689140979,2.0450888187
 N,0,-2.9189168586,0.3036765959,2.2202897303
 H,0,-2.2538787936,0.8157685253,2.8115582282
 C,0,-2.4613387218,0.2660610384,0.8244305952
 H,0,-2.5570683174,-0.7598168928,0.4573110679
 C,0,-0.9713009574,0.6736839322,0.9348109106
 C,0,-3.2994687595,1.2326918922,-0.049851445
 H,0,-4.3548818515,1.0049591579,0.1484698714
 H,0,-3.1174228038,2.2534199432,0.3108383394
 O,0,-0.5806220465,1.2555133567,1.9553265988
 C,0,-3.0705196042,1.1709711389,-1.575573263
 H,0,-2.0186103847,1.4006824745,-1.788919598
 C,0,-3.390797416,-0.211948412,-2.1652223344
 H,0,-4.4283311211,-0.4997103858,-1.9526874388
 H,0,-3.2615472023,-0.2028320802,-3.252210862
 H,0,-2.7401065639,-1.0047820886,-1.7762625106
 C,0,-3.9226495317,2.2558343236,-2.2536700892
 H,0,-4.9930210043,2.0783783411,-2.0883051482
 H,0,-3.6836015573,3.2542321224,-1.8693205206
 H,0,-3.7507249114,2.2631020551,-3.3350847327
 N,0,-0.1918924538,0.3637182761,-0.1068005632
 H,0,-0.5647508407,-0.0525634059,-0.958521689
 C,0,1.2015551685,0.7827802212,-0.2391200655
 H,0,1.3006281767,1.7838533153,0.1952691603
 C,0,1.4443648345,0.8382209963,-1.7638457613
 C,0,2.1603810454,-0.17967484,0.5297060801
 H,0,1.7162265739,-0.2493787765,1.5310790285
 O,0,0.6685734932,0.2627923588,-2.5345005916
 C,0,2.1990522698,-1.58566093,-0.0840909677
 H,0,2.662074078,-1.5793455762,-1.0776587793
 H,0,2.7869927548,-2.2583001549,0.549512367
 H,0,1.1958392309,-2.0136052501,-0.1851771564
 C,0,3.5713494631,0.4031633666,0.7003382413
 H,0,4.1274767491,0.4410127983,-0.2424706766
 H,0,4.1501215913,-0.2223676748,1.3882277059
 H,0,3.5430347188,1.4145046465,1.124721381
 N,0,2.5219083125,1.5314945001,-2.1749345359
 H,0,3.1819968999,1.9253702308,-1.5117982977
 C,0,2.9830311668,1.5389636598,-3.5586864788
 H,0,2.8400100441,0.5403923517,-3.9847231314
 C,0,4.4633045917,1.8947177554,-3.5314169176
 C,0,2.2173027317,2.5508485,-4.4543418998
 H,0,2.4317173794,2.2954764776,-5.49763749
 H,0,1.1535988849,2.3461050099,-4.2938081953
 O,0,5.0118176585,1.86370856,-4.7322580852
 C,0,2.4933619276,4.0569178421,-4.2232429593
 H,0,2.6070633366,4.2575516727,-3.1489058054
 H,0,1.5797181355,4.5855264081,-4.5180310445
 C,0,3.6736325986,4.69906749,-5.0160249058
 H,0,3.8979842119,4.0767915926,-5.8907544732
 H,0,3.3192676037,5.6549399219,-5.4167728972
 C,0,4.99284202,4.9756769514,-4.2433752302
 H,0,5.2078388231,6.0525279496,-4.2531767827
 H,0,4.8997603874,4.6764833124,-3.1969262197
 N,0,6.1461268687,4.2118462615,-4.7937579885
 H,0,6.9725584943,4.3726809477,-4.218826495
 H,0,5.7024442975,2.6375449881,-4.7719650176
 H,0,6.3733732474,4.5444264487,-5.7310566799
 O,0,5.0163158048,2.280484803,-2.509240216
 Recover connectivity data from disk.
                           ----------------------------
                           !    Current Parameters    !
                           ! (Angstroms and Degrees)  !
 --------------------------                            --------------------------
 ! Name  Definition              Value                                          !
 --------------------------------------------------------------------------------
 ! R1    R(1,2)                  1.0234                                         !
 ! R2    R(1,3)                  1.0233                                         !
 ! R3    R(1,4)                  1.0811                                         !
 ! R4    R(1,5)                  1.5037                                         !
 ! R5    R(5,6)                  1.0912                                         !
 ! R6    R(5,7)                  1.0913                                         !
 ! R7    R(5,8)                  1.5556                                         !
 ! R8    R(8,9)                  1.2441                                         !
 ! R9    R(8,10)                 1.318                                          !
 ! R10   R(10,11)                1.0267                                         !
 ! R11   R(10,12)                1.4694                                         !
 ! R12   R(12,13)                1.0938                                         !
 ! R13   R(12,14)                1.5487                                         !
 ! R14   R(12,15)                1.5496                                         !
 ! R15   R(14,18)                1.238                                          !
 ! R16   R(14,29)                1.3374                                         !
 ! R17   R(15,16)                1.0978                                         !
 ! R18   R(15,17)                1.0978                                         !
 ! R19   R(15,19)                1.544                                          !
 ! R20   R(19,20)                1.0976                                         !
 ! R21   R(19,21)                1.5371                                         !
 ! R22   R(19,25)                1.5372                                         !
 ! R23   R(21,22)                1.0975                                         !
 ! R24   R(21,23)                1.0947                                         !
 ! R25   R(21,24)                1.0969                                         !
 ! R26   R(25,26)                1.0975                                         !
 ! R27   R(25,27)                1.0962                                         !
 ! R28   R(25,28)                1.095                                          !
 ! R29   R(29,30)                1.0187                                         !
 ! R30   R(29,31)                1.4611                                         !
 ! R31   R(31,32)                1.0957                                         !
 ! R32   R(31,33)                1.5449                                         !
 ! R33   R(31,34)                1.561                                          !
 ! R34   R(33,36)                1.2357                                         !
 ! R35   R(33,45)                1.3456                                         !
 ! R36   R(34,35)                1.0977                                         !
 ! R37   R(34,37)                1.5346                                         !
 ! R38   R(34,41)                1.5361                                         !
 ! R39   R(37,38)                1.0962                                         !
 ! R40   R(37,39)                1.0952                                         !
 ! R41   R(37,40)                1.0953                                         !
 ! R42   R(41,42)                1.0953                                         !
 ! R43   R(41,43)                1.0952                                         !
 ! R44   R(41,44)                1.0971                                         !
 ! R45   R(45,46)                1.0152                                         !
 ! R46   R(45,47)                1.4586                                         !
 ! R47   R(47,48)                1.095                                          !
 ! R48   R(47,49)                1.5227                                         !
 ! R49   R(47,50)                1.5532                                         !
 ! R50   R(49,53)                1.3205                                         !
 ! R51   R(49,67)                1.2245                                         !
 ! R52   R(50,51)                1.0953                                         !
 ! R53   R(50,52)                1.0951                                         !
 ! R54   R(50,54)                1.5485                                         !
 ! R55   R(54,55)                1.0988                                         !
 ! R56   R(54,56)                1.0959                                         !
 ! R57   R(54,57)                1.5601                                         !
 ! R58   R(57,58)                1.0967                                         !
 ! R59   R(57,59)                1.0954                                         !
 ! R60   R(57,60)                1.5536                                         !
 ! R61   R(60,61)                1.0981                                         !
 ! R62   R(60,62)                1.0924                                         !
 ! R63   R(60,63)                1.4888                                         !
 ! R64   R(63,64)                1.0195                                         !
 ! R65   R(63,65)                1.6358                                         !
 ! R66   R(63,66)                1.0202                                         !
 ! A1    A(2,1,3)              108.4359                                         !
 ! A2    A(2,1,4)              110.2327                                         !
 ! A3    A(2,1,5)              113.6881                                         !
 ! A4    A(3,1,4)              110.3894                                         !
 ! A5    A(3,1,5)              113.754                                          !
 ! A6    A(4,1,5)              100.1095                                         !
 ! A7    A(1,5,6)              109.8475                                         !
 ! A8    A(1,5,7)              109.7596                                         !
 ! A9    A(1,5,8)              103.3108                                         !
 ! A10   A(6,5,7)              109.2533                                         !
 ! A11   A(6,5,8)              112.3465                                         !
 ! A12   A(7,5,8)              112.1718                                         !
 ! A13   A(5,8,9)              116.1617                                         !
 ! A14   A(5,8,10)             116.7758                                         !
 ! A15   A(9,8,10)             127.0625                                         !
 ! A16   A(8,10,11)            123.4192                                         !
 ! A17   A(8,10,12)            125.5017                                         !
 ! A18   A(11,10,12)           110.9849                                         !
 ! A19   A(10,12,13)           108.3966                                         !
 ! A20   A(10,12,14)           103.0122                                         !
 ! A21   A(10,12,15)           110.5828                                         !
 ! A22   A(13,12,14)           110.7925                                         !
 ! A23   A(13,12,15)           110.3873                                         !
 ! A24   A(14,12,15)           113.3537                                         !
 ! A25   A(12,14,18)           119.0825                                         !
 ! A26   A(12,14,29)           116.3722                                         !
 ! A27   A(18,14,29)           124.5451                                         !
 ! A28   A(12,15,16)           106.7784                                         !
 ! A29   A(12,15,17)           107.7549                                         !
 ! A30   A(12,15,19)           116.8962                                         !
 ! A31   A(16,15,17)           107.0356                                         !
 ! A32   A(16,15,19)           108.227                                          !
 ! A33   A(17,15,19)           109.709                                          !
 ! A34   A(15,19,20)           109.0141                                         !
 ! A35   A(15,19,21)           112.5894                                         !
 ! A36   A(15,19,25)           108.9954                                         !
 ! A37   A(20,19,21)           108.2646                                         !
 ! A38   A(20,19,25)           107.3265                                         !
 ! A39   A(21,19,25)           110.5013                                         !
 ! A40   A(19,21,22)           111.0139                                         !
 ! A41   A(19,21,23)           110.4149                                         !
 ! A42   A(19,21,24)           112.9946                                         !
 ! A43   A(22,21,23)           107.8245                                         !
 ! A44   A(22,21,24)           107.6143                                         !
 ! A45   A(23,21,24)           106.7427                                         !
 ! A46   A(19,25,26)           111.1041                                         !
 ! A47   A(19,25,27)           111.5449                                         !
 ! A48   A(19,25,28)           110.6894                                         !
 ! A49   A(26,25,27)           107.8852                                         !
 ! A50   A(26,25,28)           107.6377                                         !
 ! A51   A(27,25,28)           107.8171                                         !
 ! A52   A(14,29,30)           122.1811                                         !
 ! A53   A(14,29,31)           124.047                                          !
 ! A54   A(30,29,31)           112.9889                                         !
 ! A55   A(29,31,32)           108.2015                                         !
 ! A56   A(29,31,33)           104.4513                                         !
 ! A57   A(29,31,34)           111.3677                                         !
 ! A58   A(32,31,33)           110.1362                                         !
 ! A59   A(32,31,34)           108.21                                           !
 ! A60   A(33,31,34)           114.3095                                         !
 ! A61   A(31,33,36)           120.0087                                         !
 ! A62   A(31,33,45)           116.4774                                         !
 ! A63   A(36,33,45)           123.5138                                         !
 ! A64   A(31,34,35)           103.882                                          !
 ! A65   A(31,34,37)           112.5424                                         !
 ! A66   A(31,34,41)           112.6415                                         !
 ! A67   A(35,34,37)           108.4754                                         !
 ! A68   A(35,34,41)           107.1232                                         !
 ! A69   A(37,34,41)           111.648                                          !
 ! A70   A(34,37,38)           111.5858                                         !
 ! A71   A(34,37,39)           110.1703                                         !
 ! A72   A(34,37,40)           111.8253                                         !
 ! A73   A(38,37,39)           107.5262                                         !
 ! A74   A(38,37,40)           107.7864                                         !
 ! A75   A(39,37,40)           107.7643                                         !
 ! A76   A(34,41,42)           112.5745                                         !
 ! A77   A(34,41,43)           109.7836                                         !
 ! A78   A(34,41,44)           111.6548                                         !
 ! A79   A(42,41,43)           106.9823                                         !
 ! A80   A(42,41,44)           108.3135                                         !
 ! A81   A(43,41,44)           107.2882                                         !
 ! A82   A(33,45,46)           121.3998                                         !
 ! A83   A(33,45,47)           123.0673                                         !
 ! A84   A(46,45,47)           114.3403                                         !
 ! A85   A(45,47,48)           108.853                                          !
 ! A86   A(45,47,49)           106.9507                                         !
 ! A87   A(45,47,50)           113.2375                                         !
 ! A88   A(48,47,49)           110.3037                                         !
 ! A89   A(48,47,50)           107.7791                                         !
 ! A90   A(49,47,50)           109.7179                                         !
 ! A91   A(47,49,53)           112.4596                                         !
 ! A92   A(47,49,67)           121.8427                                         !
 ! A93   A(53,49,67)           125.3726                                         !
 ! A94   A(47,50,51)           107.5099                                         !
 ! A95   A(47,50,52)           105.8154                                         !
 ! A96   A(47,50,54)           117.3665                                         !
 ! A97   A(51,50,52)           106.6307                                         !
 ! A98   A(51,50,54)           109.5131                                         !
 ! A99   A(52,50,54)           109.4594                                         !
 ! A100  A(50,54,55)           109.9959                                         !
 ! A101  A(50,54,56)           106.2813                                         !
 ! A102  A(50,54,57)           117.346                                          !
 ! A103  A(55,54,56)           105.1405                                         !
 ! A104  A(55,54,57)           110.0844                                         !
 ! A105  A(56,54,57)           107.1863                                         !
 ! A106  A(54,57,58)           109.0583                                         !
 ! A107  A(54,57,59)           107.4787                                         !
 ! A108  A(54,57,60)           117.5774                                         !
 ! A109  A(58,57,59)           105.6358                                         !
 ! A110  A(58,57,60)           108.904                                          !
 ! A111  A(59,57,60)           107.534                                          !
 ! A112  A(57,60,61)           109.6569                                         !
 ! A113  A(57,60,62)           110.8116                                         !
 ! A114  A(57,60,63)           112.4929                                         !
 ! A115  A(61,60,62)           107.0868                                         !
 ! A116  A(61,60,63)           110.3742                                         !
 ! A117  A(62,60,63)           106.2386                                         !
 ! A118  A(60,63,64)           109.7874                                         !
 ! A119  A(60,63,65)           106.1851                                         !
 ! A120  A(60,63,66)           110.1788                                         !
 ! A121  A(64,63,65)           111.3574                                         !
 ! A122  A(64,63,66)           106.6257                                         !
 ! A123  A(65,63,66)           112.7311                                         !
 ! D1    D(2,1,5,6)             -3.1956                                         !
 ! D2    D(2,1,5,7)           -123.339                                          !
 ! D3    D(2,1,5,8)            116.8557                                         !
 ! D4    D(3,1,5,6)            121.5813                                         !
 ! D5    D(3,1,5,7)              1.4378                                         !
 ! D6    D(3,1,5,8)           -118.3675                                         !
 ! D7    D(4,1,5,6)           -120.701                                          !
 ! D8    D(4,1,5,7)            119.1556                                         !
 ! D9    D(4,1,5,8)             -0.6497                                         !
 ! D10   D(1,5,8,9)              0.7287                                         !
 ! D11   D(1,5,8,10)          -179.2112                                         !
 ! D12   D(6,5,8,9)            119.0539                                         !
 ! D13   D(6,5,8,10)           -60.886                                          !
 ! D14   D(7,5,8,9)           -117.4069                                         !
 ! D15   D(7,5,8,10)            62.6532                                         !
 ! D16   D(5,8,10,11)            2.6738                                         !
 ! D17   D(5,8,10,12)          178.8216                                         !
 ! D18   D(9,8,10,11)         -177.2587                                         !
 ! D19   D(9,8,10,12)           -1.1108                                         !
 ! D20   D(8,10,12,13)         -43.5082                                         !
 ! D21   D(8,10,12,14)        -160.9483                                         !
 ! D22   D(8,10,12,15)          77.6269                                         !
 ! D23   D(11,10,12,13)        133.0486                                         !
 ! D24   D(11,10,12,14)         15.6085                                         !
 ! D25   D(11,10,12,15)       -105.8163                                         !
 ! D26   D(10,12,14,18)        -18.7553                                         !
 ! D27   D(10,12,14,29)        161.3877                                         !
 ! D28   D(13,12,14,18)       -134.4912                                         !
 ! D29   D(13,12,14,29)         45.6518                                         !
 ! D30   D(15,12,14,18)        100.7699                                         !
 ! D31   D(15,12,14,29)        -79.0871                                         !
 ! D32   D(10,12,15,16)        -50.744                                          !
 ! D33   D(10,12,15,17)         63.9541                                         !
 ! D34   D(10,12,15,19)       -172.0261                                         !
 ! D35   D(13,12,15,16)         69.2035                                         !
 ! D36   D(13,12,15,17)       -176.0985                                         !
 ! D37   D(13,12,15,19)        -52.0787                                         !
 ! D38   D(14,12,15,16)       -165.839                                          !
 ! D39   D(14,12,15,17)        -51.1409                                         !
 ! D40   D(14,12,15,19)         72.8789                                         !
 ! D41   D(12,14,29,30)          4.5754                                         !
 ! D42   D(12,14,29,31)        173.7224                                         !
 ! D43   D(18,14,29,30)       -175.2729                                         !
 ! D44   D(18,14,29,31)         -6.1259                                         !
 ! D45   D(12,15,19,20)        -59.691                                          !
 ! D46   D(12,15,19,21)         60.4684                                         !
 ! D47   D(12,15,19,25)       -176.5484                                         !
 ! D48   D(16,15,19,20)        179.7902                                         !
 ! D49   D(16,15,19,21)        -60.0504                                         !
 ! D50   D(16,15,19,25)         62.9328                                         !
 ! D51   D(17,15,19,20)         63.3283                                         !
 ! D52   D(17,15,19,21)       -176.5123                                         !
 ! D53   D(17,15,19,25)        -53.529                                          !
 ! D54   D(15,19,21,22)         57.8369                                         !
 ! D55   D(15,19,21,23)        177.3657                                         !
 ! D56   D(15,19,21,24)        -63.1715                                         !
 ! D57   D(20,19,21,22)        178.4276                                         !
 ! D58   D(20,19,21,23)        -62.0436                                         !
 ! D59   D(20,19,21,24)         57.4192                                         !
 ! D60   D(25,19,21,22)        -64.2997                                         !
 ! D61   D(25,19,21,23)         55.2292                                         !
 ! D62   D(25,19,21,24)        174.692                                          !
 ! D63   D(15,19,25,26)        -62.7259                                         !
 ! D64   D(15,19,25,27)         57.6916                                         !
 ! D65   D(15,19,25,28)        177.741                                          !
 ! D66   D(20,19,25,26)        179.3478                                         !
 ! D67   D(20,19,25,27)        -60.2347                                         !
 ! D68   D(20,19,25,28)         59.8147                                         !
 ! D69   D(21,19,25,26)         61.4982                                         !
 ! D70   D(21,19,25,27)       -178.0844                                         !
 ! D71   D(21,19,25,28)        -58.035                                          !
 ! D72   D(14,29,31,32)        -35.2615                                         !
 ! D73   D(14,29,31,33)       -152.5817                                         !
 ! D74   D(14,29,31,34)         83.5474                                         !
 ! D75   D(30,29,31,32)        134.7699                                         !
 ! D76   D(30,29,31,33)         17.4496                                         !
 ! D77   D(30,29,31,34)       -106.4213                                         !
 ! D78   D(29,31,33,36)        -17.2911                                         !
 ! D79   D(29,31,33,45)        162.7639                                         !
 ! D80   D(32,31,33,36)       -133.2712                                         !
 ! D81   D(32,31,33,45)         46.7838                                         !
 ! D82   D(34,31,33,36)        104.6655                                         !
 ! D83   D(34,31,33,45)        -75.2796                                         !
 ! D84   D(29,31,34,35)        -50.5746                                         !
 ! D85   D(29,31,34,37)         66.5558                                         !
 ! D86   D(29,31,34,41)       -166.1499                                         !
 ! D87   D(32,31,34,35)         68.2291                                         !
 ! D88   D(32,31,34,37)       -174.6404                                         !
 ! D89   D(32,31,34,41)        -47.3461                                         !
 ! D90   D(33,31,34,35)       -168.6597                                         !
 ! D91   D(33,31,34,37)        -51.5292                                         !
 ! D92   D(33,31,34,41)         75.765                                          !
 ! D93   D(31,33,45,46)          5.2274                                         !
 ! D94   D(31,33,45,47)        172.0364                                         !
 ! D95   D(36,33,45,46)       -174.7155                                         !
 ! D96   D(36,33,45,47)         -7.9065                                         !
 ! D97   D(31,34,37,38)         67.2906                                         !
 ! D98   D(31,34,37,39)       -173.346                                          !
 ! D99   D(31,34,37,40)        -53.5279                                         !
 ! D100  D(35,34,37,38)       -178.3429                                         !
 ! D101  D(35,34,37,39)        -58.9795                                         !
 ! D102  D(35,34,37,40)         60.8385                                         !
 ! D103  D(41,34,37,38)        -60.5295                                         !
 ! D104  D(41,34,37,39)         58.8339                                         !
 ! D105  D(41,34,37,40)        178.652                                          !
 ! D106  D(31,34,41,42)        -70.7357                                         !
 ! D107  D(31,34,41,43)        170.2065                                         !
 ! D108  D(31,34,41,44)         51.3503                                         !
 ! D109  D(35,34,41,42)        175.6537                                         !
 ! D110  D(35,34,41,43)         56.5959                                         !
 ! D111  D(35,34,41,44)        -62.2603                                         !
 ! D112  D(37,34,41,42)         57.0312                                         !
 ! D113  D(37,34,41,43)        -62.0266                                         !
 ! D114  D(37,34,41,44)        179.1172                                         !
 ! D115  D(33,45,47,48)        -37.1814                                         !
 ! D116  D(33,45,47,49)       -156.3509                                         !
 ! D117  D(33,45,47,50)         82.6704                                         !
 ! D118  D(46,45,47,48)        130.4746                                         !
 ! D119  D(46,45,47,49)         11.3051                                         !
 ! D120  D(46,45,47,50)       -109.6736                                         !
 ! D121  D(45,47,49,53)        176.6761                                         !
 ! D122  D(45,47,49,67)         -9.5409                                         !
 ! D123  D(48,47,49,53)         58.4492                                         !
 ! D124  D(48,47,49,67)       -127.7678                                         !
 ! D125  D(50,47,49,53)        -60.1357                                         !
 ! D126  D(50,47,49,67)        113.6473                                         !
 ! D127  D(45,47,50,51)       -164.8018                                         !
 ! D128  D(45,47,50,52)        -51.1435                                         !
 ! D129  D(45,47,50,54)         71.302                                          !
 ! D130  D(48,47,50,51)        -44.3382                                         !
 ! D131  D(48,47,50,52)         69.3201                                         !
 ! D132  D(48,47,50,54)       -168.2344                                         !
 ! D133  D(49,47,50,51)         75.7958                                         !
 ! D134  D(49,47,50,52)       -170.5459                                         !
 ! D135  D(49,47,50,54)        -48.1004                                         !
 ! D136  D(47,50,54,55)        -38.5078                                         !
 ! D137  D(47,50,54,56)       -151.8258                                         !
 ! D138  D(47,50,54,57)         88.3332                                         !
 ! D139  D(51,50,54,55)       -161.3862                                         !
 ! D140  D(51,50,54,56)         85.2958                                         !
 ! D141  D(51,50,54,57)        -34.5452                                         !
 ! D142  D(52,50,54,55)         82.0467                                         !
 ! D143  D(52,50,54,56)        -31.2713                                         !
 ! D144  D(52,50,54,57)       -151.1123                                         !
 ! D145  D(50,54,57,58)         20.8792                                         !
 ! D146  D(50,54,57,59)        134.9421                                         !
 ! D147  D(50,54,57,60)       -103.6718                                         !
 ! D148  D(55,54,57,58)        147.677                                          !
 ! D149  D(55,54,57,59)        -98.2601                                         !
 ! D150  D(55,54,57,60)         23.1261                                         !
 ! D151  D(56,54,57,58)        -98.4829                                         !
 ! D152  D(56,54,57,59)         15.5799                                         !
 ! D153  D(56,54,57,60)        136.9661                                         !
 ! D154  D(54,57,60,61)       -118.6759                                         !
 ! D155  D(54,57,60,62)         -0.6707                                         !
 ! D156  D(54,57,60,63)        118.0915                                         !
 ! D157  D(58,57,60,61)        116.6962                                         !
 ! D158  D(58,57,60,62)       -125.2987                                         !
 ! D159  D(58,57,60,63)         -6.5365                                         !
 ! D160  D(59,57,60,61)          2.6817                                         !
 ! D161  D(59,57,60,62)        120.6869                                         !
 ! D162  D(59,57,60,63)       -120.551                                          !
 ! D163  D(57,60,63,64)       -176.064                                          !
 ! D164  D(57,60,63,65)        -55.5711                                         !
 ! D165  D(57,60,63,66)         66.7954                                         !
 ! D166  D(61,60,63,64)         61.1052                                         !
 ! D167  D(61,60,63,65)       -178.4018                                         !
 ! D168  D(61,60,63,66)        -56.0354                                         !
 ! D169  D(62,60,63,64)        -54.6559                                         !
 ! D170  D(62,60,63,65)         65.837                                          !
 ! D171  D(62,60,63,66)       -171.7965                                         !
 --------------------------------------------------------------------------------
 Symmetry turned off by external request.
 Stoichiometry    C19H38N5O5(1+)
 Framework group  C1[X(C19H38N5O5)]
 Deg. of freedom   195
 Full point group                 C1      NOp   1
                          Input orientation:                          
 ---------------------------------------------------------------------
 Center     Atomic      Atomic             Coordinates (Angstroms)
 Number     Number       Type             X           Y           Z
 ---------------------------------------------------------------------
      1          7           0       -5.534287   -0.938740    4.414125
      2          1           0       -5.415561   -1.744654    5.033551
      3          1           0       -6.323757   -0.383202    4.753594
      4          1           0       -5.714518   -1.269412    3.400753
      5          6           0       -4.275380   -0.141722    4.211728
      6          1           0       -3.472354   -0.555707    4.823761
      7          1           0       -4.446617    0.897400    4.497684
      8          6           0       -3.996527   -0.293206    2.688844
      9          8           0       -4.819232   -0.968914    2.045089
     10          7           0       -2.918917    0.303677    2.220290
     11          1           0       -2.253879    0.815769    2.811558
     12          6           0       -2.461339    0.266061    0.824431
     13          1           0       -2.557068   -0.759817    0.457311
     14          6           0       -0.971301    0.673684    0.934811
     15          6           0       -3.299469    1.232692   -0.049851
     16          1           0       -4.354882    1.004959    0.148470
     17          1           0       -3.117423    2.253420    0.310838
     18          8           0       -0.580622    1.255513    1.955327
     19          6           0       -3.070520    1.170971   -1.575573
     20          1           0       -2.018610    1.400682   -1.788920
     21          6           0       -3.390797   -0.211948   -2.165222
     22          1           0       -4.428331   -0.499710   -1.952687
     23          1           0       -3.261547   -0.202832   -3.252211
     24          1           0       -2.740107   -1.004782   -1.776263
     25          6           0       -3.922650    2.255834   -2.253670
     26          1           0       -4.993021    2.078378   -2.088305
     27          1           0       -3.683602    3.254232   -1.869321
     28          1           0       -3.750725    2.263102   -3.335085
     29          7           0       -0.191892    0.363718   -0.106801
     30          1           0       -0.564751   -0.052563   -0.958522
     31          6           0        1.201555    0.782780   -0.239120
     32          1           0        1.300628    1.783853    0.195269
     33          6           0        1.444365    0.838221   -1.763846
     34          6           0        2.160381   -0.179675    0.529706
     35          1           0        1.716227   -0.249379    1.531079
     36          8           0        0.668573    0.262792   -2.534501
     37          6           0        2.199052   -1.585661   -0.084091
     38          1           0        2.662074   -1.579346   -1.077659
     39          1           0        2.786993   -2.258300    0.549512
     40          1           0        1.195839   -2.013605   -0.185177
     41          6           0        3.571349    0.403163    0.700338
     42          1           0        4.127477    0.441013   -0.242471
     43          1           0        4.150122   -0.222368    1.388228
     44          1           0        3.543035    1.414505    1.124721
     45          7           0        2.521908    1.531495   -2.174935
     46          1           0        3.181997    1.925370   -1.511798
     47          6           0        2.983031    1.538964   -3.558686
     48          1           0        2.840010    0.540392   -3.984723
     49          6           0        4.463305    1.894718   -3.531417
     50          6           0        2.217303    2.550848   -4.454342
     51          1           0        2.431717    2.295476   -5.497637
     52          1           0        1.153599    2.346105   -4.293808
     53          8           0        5.011818    1.863709   -4.732258
     54          6           0        2.493362    4.056918   -4.223243
     55          1           0        2.607063    4.257552   -3.148906
     56          1           0        1.579718    4.585526   -4.518031
     57          6           0        3.673633    4.699067   -5.016025
     58          1           0        3.897984    4.076792   -5.890754
     59          1           0        3.319268    5.654940   -5.416773
     60          6           0        4.992842    4.975677   -4.243375
     61          1           0        5.207839    6.052528   -4.253177
     62          1           0        4.899760    4.676483   -3.196926
     63          7           0        6.146127    4.211846   -4.793758
     64          1           0        6.972558    4.372681   -4.218826
     65          1           0        5.702444    2.637545   -4.771965
     66          1           0        6.373373    4.544426   -5.731057
     67          8           0        5.016316    2.280485   -2.509240
 ---------------------------------------------------------------------
 Rotational constants (GHZ):           0.3146402           0.0603392           0.0552071
 Standard basis: 6-31G(d) (6D, 7F)
   511 basis functions,   964 primitive gaussians,   511 cartesian basis functions
   113 alpha electrons      113 beta electrons
       nuclear repulsion energy      3008.3302697723 Hartrees.
 NAtoms=   67 NActive=   67 NUniq=   67 SFac= 1.00D+00 NAtFMM=   60 NAOKFM=T Big=T
 Integral buffers will be    131072 words long.
 Raffenetti 2 integral format.
 Two-electron integral symmetry is turned off.
 One-electron integrals computed using PRISM.
 NBasis=   511 RedAO= T EigKep=  1.84D-03  NBF=   511
 NBsUse=   511 1.00D-06 EigRej= -1.00D+00 NBFU=   511
 Initial guess from the checkpoint file:  "conf-876.chk"
 B after Tr=     0.000000    0.000000    0.000000
         Rot=    1.000000    0.000000    0.000000    0.000000 Ang=   0.00 deg.
 Requested convergence on RMS density matrix=1.00D-08 within 128 cycles.
 Requested convergence on MAX density matrix=1.00D-06.
 Requested convergence on             energy=1.00D-06.
 No special actions if energy rises.
 SCF Done:  E(RB3LYP) =  -1396.64415466     A.U. after    1 cycles
            NFock=  1  Conv=0.51D-08     -V/T= 2.0095

 **********************************************************************

            Population analysis using the SCF Density.

 **********************************************************************

 Alpha  occ. eigenvalues --  -19.28096 -19.22214 -19.21939 -19.19613 -19.19587
 Alpha  occ. eigenvalues --  -14.61542 -14.50089 -14.45261 -14.43282 -14.41392
 Alpha  occ. eigenvalues --  -10.44853 -10.42057 -10.38970 -10.37338 -10.36628
 Alpha  occ. eigenvalues --  -10.34730 -10.31485 -10.29894 -10.28536 -10.28075
 Alpha  occ. eigenvalues --  -10.27515 -10.27107 -10.25251 -10.25096 -10.25015
 Alpha  occ. eigenvalues --  -10.24964 -10.24943 -10.24407 -10.24321  -1.20527
 Alpha  occ. eigenvalues --   -1.15105  -1.14782  -1.13867  -1.11387  -1.06756
 Alpha  occ. eigenvalues --   -1.06248  -1.01890  -0.99812  -0.96666  -0.92114
 Alpha  occ. eigenvalues --   -0.89531  -0.88142  -0.86051  -0.84645  -0.81971
 Alpha  occ. eigenvalues --   -0.79024  -0.76629  -0.75941  -0.75795  -0.75547
 Alpha  occ. eigenvalues --   -0.75366  -0.75179  -0.71530  -0.69763  -0.68862
 Alpha  occ. eigenvalues --   -0.67997  -0.66810  -0.65839  -0.65171  -0.64010
 Alpha  occ. eigenvalues --   -0.63900  -0.62935  -0.61554  -0.60912  -0.59130
 Alpha  occ. eigenvalues --   -0.57675  -0.56921  -0.56633  -0.56085  -0.55539
 Alpha  occ. eigenvalues --   -0.54361  -0.54163  -0.53964  -0.53574  -0.52974
 Alpha  occ. eigenvalues --   -0.52523  -0.51797  -0.51603  -0.50972  -0.50586
 Alpha  occ. eigenvalues --   -0.50102  -0.49257  -0.48436  -0.47740  -0.47558
 Alpha  occ. eigenvalues --   -0.46681  -0.46632  -0.46357  -0.46139  -0.45525
 Alpha  occ. eigenvalues --   -0.44970  -0.44644  -0.44198  -0.43284  -0.43159
 Alpha  occ. eigenvalues --   -0.42667  -0.42434  -0.41460  -0.41150  -0.40879
 Alpha  occ. eigenvalues --   -0.40727  -0.40607  -0.39635  -0.39554  -0.38993
 Alpha  occ. eigenvalues --   -0.38842  -0.36309  -0.36125  -0.34937  -0.33778
 Alpha  occ. eigenvalues --   -0.33615  -0.32950  -0.32391
 Alpha virt. eigenvalues --   -0.13139  -0.12904  -0.07903  -0.07317  -0.05752
 Alpha virt. eigenvalues --   -0.05548  -0.04919  -0.02199  -0.01335  -0.00360
 Alpha virt. eigenvalues --    0.00513   0.01267   0.01587   0.02596   0.03211
 Alpha virt. eigenvalues --    0.03307   0.03889   0.04298   0.04650   0.05407
 Alpha virt. eigenvalues --    0.05787   0.06048   0.06266   0.06939   0.07353
 Alpha virt. eigenvalues --    0.07693   0.07756   0.08137   0.08388   0.08691
 Alpha virt. eigenvalues --    0.08997   0.09697   0.09971   0.10307   0.10886
 Alpha virt. eigenvalues --    0.11185   0.11541   0.11624   0.12160   0.12715
 Alpha virt. eigenvalues --    0.13023   0.13483   0.13491   0.13791   0.14193
 Alpha virt. eigenvalues --    0.14326   0.15102   0.15493   0.16182   0.16369
 Alpha virt. eigenvalues --    0.16921   0.17406   0.17811   0.18309   0.18636
 Alpha virt. eigenvalues --    0.19038   0.19317   0.19942   0.20126   0.21117
 Alpha virt. eigenvalues --    0.23064   0.24013   0.25037   0.26008   0.26913
 Alpha virt. eigenvalues --    0.29032   0.29484   0.31890   0.34305   0.34548
 Alpha virt. eigenvalues --    0.35950   0.37230   0.38546   0.40776   0.41918
 Alpha virt. eigenvalues --    0.42570   0.42835   0.43132   0.43502   0.43774
 Alpha virt. eigenvalues --    0.44396   0.44504   0.45770   0.45937   0.46859
 Alpha virt. eigenvalues --    0.47949   0.48409   0.48541   0.49067   0.49221
 Alpha virt. eigenvalues --    0.50022   0.50936   0.51552   0.51771   0.52256
 Alpha virt. eigenvalues --    0.52546   0.54895   0.55292   0.55628   0.56355
 Alpha virt. eigenvalues --    0.56858   0.57774   0.58074   0.58550   0.58649
 Alpha virt. eigenvalues --    0.59232   0.59797   0.60343   0.60770   0.61497
 Alpha virt. eigenvalues --    0.62605   0.62897   0.63144   0.63733   0.64242
 Alpha virt. eigenvalues --    0.64431   0.64850   0.64910   0.65929   0.66082
 Alpha virt. eigenvalues --    0.66867   0.67494   0.68101   0.68546   0.68975
 Alpha virt. eigenvalues --    0.69631   0.70583   0.71082   0.71397   0.72708
 Alpha virt. eigenvalues --    0.73329   0.74343   0.74653   0.75186   0.75428
 Alpha virt. eigenvalues --    0.75796   0.76068   0.77267   0.77401   0.77933
 Alpha virt. eigenvalues --    0.78482   0.78567   0.78793   0.79227   0.80205
 Alpha virt. eigenvalues --    0.80809   0.80869   0.81308   0.81765   0.82178
 Alpha virt. eigenvalues --    0.82436   0.82811   0.83095   0.83358   0.83546
 Alpha virt. eigenvalues --    0.84025   0.84248   0.85200   0.85743   0.85842
 Alpha virt. eigenvalues --    0.85964   0.86489   0.86865   0.87263   0.87626
 Alpha virt. eigenvalues --    0.88170   0.88796   0.89333   0.89508   0.90723
 Alpha virt. eigenvalues --    0.91270   0.91707   0.92387   0.92655   0.92702
 Alpha virt. eigenvalues --    0.93969   0.94258   0.94910   0.95836   0.96252
 Alpha virt. eigenvalues --    0.98071   0.99184   0.99843   1.00209   1.00963
 Alpha virt. eigenvalues --    1.01244   1.02342   1.03450   1.05281   1.05596
 Alpha virt. eigenvalues --    1.06472   1.07208   1.09658   1.10852   1.12073
 Alpha virt. eigenvalues --    1.13115   1.14762   1.15599   1.16770   1.17659
 Alpha virt. eigenvalues --    1.20128   1.20437   1.22721   1.23002   1.24637
 Alpha virt. eigenvalues --    1.27636   1.28356   1.30131   1.30884   1.33748
 Alpha virt. eigenvalues --    1.34123   1.35730   1.36433   1.36998   1.37300
 Alpha virt. eigenvalues --    1.38142   1.39440   1.39926   1.41453   1.43131
 Alpha virt. eigenvalues --    1.44354   1.45046   1.45896   1.47175   1.48012
 Alpha virt. eigenvalues --    1.49467   1.52167   1.52791   1.53956   1.54583
 Alpha virt. eigenvalues --    1.56414   1.56659   1.57219   1.57671   1.60770
 Alpha virt. eigenvalues --    1.61716   1.62518   1.63473   1.63981   1.65569
 Alpha virt. eigenvalues --    1.66807   1.67499   1.68067   1.68745   1.69280
 Alpha virt. eigenvalues --    1.69853   1.70190   1.70987   1.72479   1.72621
 Alpha virt. eigenvalues --    1.73145   1.73640   1.74173   1.74982   1.75205
 Alpha virt. eigenvalues --    1.76389   1.77070   1.77780   1.78232   1.78791
 Alpha virt. eigenvalues --    1.79141   1.79738   1.81550   1.81694   1.82229
 Alpha virt. eigenvalues --    1.83178   1.83350   1.84270   1.84514   1.85699
 Alpha virt. eigenvalues --    1.86330   1.87580   1.87634   1.88355   1.88917
 Alpha virt. eigenvalues --    1.89635   1.90464   1.91215   1.92372   1.92900
 Alpha virt. eigenvalues --    1.93051   1.93906   1.95022   1.95281   1.96040
 Alpha virt. eigenvalues --    1.97325   1.98454   1.99353   2.00529   2.01002
 Alpha virt. eigenvalues --    2.02135   2.02834   2.03578   2.05758   2.06457
 Alpha virt. eigenvalues --    2.07498   2.08721   2.09813   2.10651   2.11128
 Alpha virt. eigenvalues --    2.11948   2.14281   2.15198   2.15978   2.16161
 Alpha virt. eigenvalues --    2.16419   2.16589   2.17904   2.18386   2.19410
 Alpha virt. eigenvalues --    2.20020   2.21420   2.21869   2.24134   2.25392
 Alpha virt. eigenvalues --    2.25639   2.28237   2.29223   2.29756   2.31163
 Alpha virt. eigenvalues --    2.31663   2.31697   2.34063   2.35028   2.36311
 Alpha virt. eigenvalues --    2.36589   2.37496   2.39365   2.39896   2.41015
 Alpha virt. eigenvalues --    2.42066   2.42440   2.43622   2.44161   2.46413
 Alpha virt. eigenvalues --    2.47555   2.48468   2.50739   2.52327   2.53146
 Alpha virt. eigenvalues --    2.53522   2.55540   2.57869   2.59671   2.61062
 Alpha virt. eigenvalues --    2.62199   2.62715   2.62930   2.64194   2.66175
 Alpha virt. eigenvalues --    2.66723   2.67286   2.68257   2.70635   2.74148
 Alpha virt. eigenvalues --    2.75517   2.78682   2.79297   2.80942   2.84172
 Alpha virt. eigenvalues --    2.87356   2.88741   2.89796   2.92471   2.96424
 Alpha virt. eigenvalues --    3.02754   3.06839   3.11908   3.14770   3.61632
 Alpha virt. eigenvalues --    3.77945   3.90480   3.93235   3.94037   3.96694
 Alpha virt. eigenvalues --    3.98428   4.03201   4.06620   4.10066   4.10660
 Alpha virt. eigenvalues --    4.11725   4.15233   4.17328   4.21008   4.21522
 Alpha virt. eigenvalues --    4.22450   4.25320   4.27571   4.32722   4.32995
 Alpha virt. eigenvalues --    4.37022   4.44879   4.49610   4.49752   4.52815
 Alpha virt. eigenvalues --    4.55513   4.58808   4.61404
          Condensed to atoms (all electrons):
 Mulliken charges:
               1
     1  N   -0.752154
     2  H    0.421865
     3  H    0.421674
     4  H    0.440703
     5  C   -0.276395
     6  H    0.247463
     7  H    0.247534
     8  C    0.641994
     9  O   -0.534941
    10  N   -0.603470
    11  H    0.376825
    12  C   -0.069558
    13  H    0.192520
    14  C    0.628457
    15  C   -0.258840
    16  H    0.158202
    17  H    0.152257
    18  O   -0.553070
    19  C   -0.098201
    20  H    0.148034
    21  C   -0.453915
    22  H    0.150350
    23  H    0.171600
    24  H    0.138800
    25  C   -0.447844
    26  H    0.146164
    27  H    0.148253
    28  H    0.162606
    29  N   -0.622275
    30  H    0.377483
    31  C   -0.060394
    32  H    0.177382
    33  C    0.629527
    34  C   -0.072513
    35  H    0.154214
    36  O   -0.553859
    37  C   -0.456654
    38  H    0.162051
    39  H    0.157786
    40  H    0.143010
    41  C   -0.476611
    42  H    0.167672
    43  H    0.162935
    44  H    0.150485
    45  N   -0.618424
    46  H    0.363334
    47  C   -0.041504
    48  H    0.191993
    49  C    0.607490
    50  C   -0.265843
    51  H    0.165298
    52  H    0.164947
    53  O   -0.604892
    54  C   -0.286822
    55  H    0.141675
    56  H    0.148982
    57  C   -0.282836
    58  H    0.159723
    59  H    0.151033
    60  C   -0.159354
    61  H    0.150119
    62  H    0.182736
    63  N   -0.775512
    64  H    0.339405
    65  H    0.460031
    66  H    0.331252
    67  O   -0.509978
 Sum of Mulliken charges =   1.00000
 Mulliken charges with hydrogens summed into heavy atoms:
               1
     1  N    0.532088
     5  C    0.218602
     8  C    0.641994
     9  O   -0.534941
    10  N   -0.226645
    12  C    0.122962
    14  C    0.628457
    15  C    0.051619
    18  O   -0.553070
    19  C    0.049833
    21  C    0.006834
    25  C    0.009179
    29  N   -0.244792
    31  C    0.116988
    33  C    0.629527
    34  C    0.081701
    36  O   -0.553859
    37  C    0.006193
    41  C    0.004480
    45  N   -0.255090
    47  C    0.150489
    49  C    0.607490
    50  C    0.064401
    53  O   -0.144862
    54  C    0.003835
    57  C    0.027920
    60  C    0.173502
    63  N   -0.104855
    67  O   -0.509978
 Electronic spatial extent (au):  <R**2>=          21463.2730
 Charge=              1.0000 electrons
 Dipole moment (field-independent basis, Debye):
    X=            -13.9315    Y=              3.6187    Z=             11.6209  Tot=             18.4994
 Quadrupole moment (field-independent basis, Debye-Ang):
   XX=            -40.8205   YY=           -139.6957   ZZ=            -70.0282
   XY=             39.7582   XZ=           -114.3328   YZ=            -45.8094
 Traceless Quadrupole moment (field-independent basis, Debye-Ang):
   XX=             42.6943   YY=            -56.1809   ZZ=             13.4866
   XY=             39.7582   XZ=           -114.3328   YZ=            -45.8094
 Octapole moment (field-independent basis, Debye-Ang**2):
  XXX=           -559.9732  YYY=           -504.6890  ZZZ=            803.7278  XYY=             77.9470
  XXY=            -79.9780  XXZ=            497.9051  XZZ=           -358.3401  YZZ=           -125.1185
  YYZ=             52.0812  XYZ=           -100.9809
 Hexadecapole moment (field-independent basis, Debye-Ang**3):
 XXXX=          -8346.1812 YYYY=          -4194.6443 ZZZZ=          -6679.3938 XXXY=           -415.7715
 XXXZ=           -251.1733 YYYX=          -1187.6265 YYYZ=           1758.9826 ZZZX=            848.5113
 ZZZY=           1375.7368 XXYY=          -1812.6822 XXZZ=           -323.9022 YYZZ=          -1456.9184
 XXYZ=           -597.9171 YYXZ=            238.8986 ZZXY=            550.3508
 N-N= 3.008330269772D+03 E-N=-9.247950323045D+03  KE= 1.383497386434D+03
 Unable to Open any file for archive entry.
 1\1\GINC-QML-000\SP\RB3LYP\6-31G(d)\C19H38N5O5(1+)\KENGMITH\27-May-202
 2\0\\# B3LYP/6-31G* guess=read geom=check nosymm integral(ultrafinegri
 d)\\Candidate Structure: Conf:876 Charge calc in gas phase\\1,1\N,0,-5
 .5342872185,-0.9387397589,4.4141251547\H,0,-5.4155605484,-1.7446542483
 ,5.0335510333\H,0,-6.3237570063,-0.3832022889,4.7535942357\H,0,-5.7145
 182828,-1.2694117894,3.4007534276\C,0,-4.2753803061,-0.1417222268,4.21
 17280505\H,0,-3.4723539827,-0.5557071833,4.8237605146\H,0,-4.446617077
 7,0.8973999025,4.4976839519\C,0,-3.9965266454,-0.2932064425,2.68884438
 71\O,0,-4.8192323056,-0.9689140979,2.0450888187\N,0,-2.9189168586,0.30
 36765959,2.2202897303\H,0,-2.2538787936,0.8157685253,2.8115582282\C,0,
 -2.4613387218,0.2660610384,0.8244305952\H,0,-2.5570683174,-0.759816892
 8,0.4573110679\C,0,-0.9713009574,0.6736839322,0.9348109106\C,0,-3.2994
 687595,1.2326918922,-0.049851445\H,0,-4.3548818515,1.0049591579,0.1484
 698714\H,0,-3.1174228038,2.2534199432,0.3108383394\O,0,-0.5806220465,1
 .2555133567,1.9553265988\C,0,-3.0705196042,1.1709711389,-1.575573263\H
 ,0,-2.0186103847,1.4006824745,-1.788919598\C,0,-3.390797416,-0.2119484
 12,-2.1652223344\H,0,-4.4283311211,-0.4997103858,-1.9526874388\H,0,-3.
 2615472023,-0.2028320802,-3.252210862\H,0,-2.7401065639,-1.0047820886,
 -1.7762625106\C,0,-3.9226495317,2.2558343236,-2.2536700892\H,0,-4.9930
 210043,2.0783783411,-2.0883051482\H,0,-3.6836015573,3.2542321224,-1.86
 93205206\H,0,-3.7507249114,2.2631020551,-3.3350847327\N,0,-0.191892453
 8,0.3637182761,-0.1068005632\H,0,-0.5647508407,-0.0525634059,-0.958521
 689\C,0,1.2015551685,0.7827802212,-0.2391200655\H,0,1.3006281767,1.783
 8533153,0.1952691603\C,0,1.4443648345,0.8382209963,-1.7638457613\C,0,2
 .1603810454,-0.17967484,0.5297060801\H,0,1.7162265739,-0.2493787765,1.
 5310790285\O,0,0.6685734932,0.2627923588,-2.5345005916\C,0,2.199052269
 8,-1.58566093,-0.0840909677\H,0,2.662074078,-1.5793455762,-1.077658779
 3\H,0,2.7869927548,-2.2583001549,0.549512367\H,0,1.1958392309,-2.01360
 52501,-0.1851771564\C,0,3.5713494631,0.4031633666,0.7003382413\H,0,4.1
 274767491,0.4410127983,-0.2424706766\H,0,4.1501215913,-0.2223676748,1.
 3882277059\H,0,3.5430347188,1.4145046465,1.124721381\N,0,2.5219083125,
 1.5314945001,-2.1749345359\H,0,3.1819968999,1.9253702308,-1.5117982977
 \C,0,2.9830311668,1.5389636598,-3.5586864788\H,0,2.8400100441,0.540392
 3517,-3.9847231314\C,0,4.4633045917,1.8947177554,-3.5314169176\C,0,2.2
 173027317,2.5508485,-4.4543418998\H,0,2.4317173794,2.2954764776,-5.497
 63749\H,0,1.1535988849,2.3461050099,-4.2938081953\O,0,5.0118176585,1.8
 6370856,-4.7322580852\C,0,2.4933619276,4.0569178421,-4.2232429593\H,0,
 2.6070633366,4.2575516727,-3.1489058054\H,0,1.5797181355,4.5855264081,
 -4.5180310445\C,0,3.6736325986,4.69906749,-5.0160249058\H,0,3.89798421
 19,4.0767915926,-5.8907544732\H,0,3.3192676037,5.6549399219,-5.4167728
 972\C,0,4.99284202,4.9756769514,-4.2433752302\H,0,5.2078388231,6.05252
 79496,-4.2531767827\H,0,4.8997603874,4.6764833124,-3.1969262197\N,0,6.
 1461268687,4.2118462615,-4.7937579885\H,0,6.9725584943,4.3726809477,-4
 .218826495\H,0,5.7024442975,2.6375449881,-4.7719650176\H,0,6.373373247
 4,4.5444264487,-5.7310566799\O,0,5.0163158048,2.280484803,-2.509240216
 \\Version=ES64L-G16RevC.01\HF=-1396.6441547\RMSD=5.112e-09\Dipole=-6.2
 066916,-0.892191,6.5103622\Quadrupole=31.7421776,-41.769136,10.0269584
 ,29.5592676,-85.0036344,-34.0581987\PG=C01 [X(C19H38N5O5)]\\@
 The archive entry for this job was punched.


 ART, GLORY, FREEDOM FAIL, BUT NATURE STILL IS FAIR.

                                           -- BYRON
 Job cpu time:       0 days  0 hours  1 minutes 50.4 seconds.
 Elapsed time:       0 days  0 hours  0 minutes 28.8 seconds.
 File lengths (MBytes):  RWF=    256 Int=      0 D2E=      0 Chk=     40 Scr=     16
 Normal termination of Gaussian 16 at Fri May 27 02:06:07 2022.
