 Entering Gaussian System, Link 0=/opt/software/Gaussian/g16-AVX-C.01/g16/g16
 Input=charge-conf-34.com
 Output=charge-conf-34.log
 Initial command:
 /opt/software/Gaussian/g16-AVX-C.01/g16/l1.exe "/mnt/gs18/scratch/users/kengmith/Gau-12474.inp" -scrdir="/mnt/gs18/scratch/users/kengmith/"
 Entering Link 1 = /opt/software/Gaussian/g16-AVX-C.01/g16/l1.exe PID=     12486.
  
 Copyright (c) 1988-2019, Gaussian, Inc.  All Rights Reserved.
  
 This is part of the Gaussian(R) 16 program.  It is based on
 the Gaussian(R) 09 system (copyright 2009, Gaussian, Inc.),
 the Gaussian(R) 03 system (copyright 2003, Gaussian, Inc.),
 the Gaussian(R) 98 system (copyright 1998, Gaussian, Inc.),
 the Gaussian(R) 94 system (copyright 1995, Gaussian, Inc.),
 the Gaussian 92(TM) system (copyright 1992, Gaussian, Inc.),
 the Gaussian 90(TM) system (copyright 1990, Gaussian, Inc.),
 the Gaussian 88(TM) system (copyright 1988, Gaussian, Inc.),
 the Gaussian 86(TM) system (copyright 1986, Carnegie Mellon
 University), and the Gaussian 82(TM) system (copyright 1983,
 Carnegie Mellon University). Gaussian is a federally registered
 trademark of Gaussian, Inc.
  
 This software contains proprietary and confidential information,
 including trade secrets, belonging to Gaussian, Inc.
  
 This software is provided under written license and may be
 used, copied, transmitted, or stored only in accord with that
 written license.
  
 The following legend is applicable only to US Government
 contracts under FAR:
  
                    RESTRICTED RIGHTS LEGEND
  
 Use, reproduction and disclosure by the US Government is
 subject to restrictions as set forth in subparagraphs (a)
 and (c) of the Commercial Computer Software - Restricted
 Rights clause in FAR 52.227-19.
  
 Gaussian, Inc.
 340 Quinnipiac St., Bldg. 40, Wallingford CT 06492
  
  
 ---------------------------------------------------------------
 Warning -- This program may not be used in any manner that
 competes with the business of Gaussian, Inc. or will provide
 assistance to any competitor of Gaussian, Inc.  The licensee
 of this program is prohibited from giving any competitor of
 Gaussian, Inc. access to this program.  By using this program,
 the user acknowledges that Gaussian, Inc. is engaged in the
 business of creating and licensing software in the field of
 computational chemistry and represents and warrants to the
 licensee that it is not a competitor of Gaussian, Inc. and that
 it will not use this program in any manner prohibited above.
 ---------------------------------------------------------------
  

 Cite this work as:
 Gaussian 16, Revision C.01,
 M. J. Frisch, G. W. Trucks, H. B. Schlegel, G. E. Scuseria, 
 M. A. Robb, J. R. Cheeseman, G. Scalmani, V. Barone, 
 G. A. Petersson, H. Nakatsuji, X. Li, M. Caricato, A. V. Marenich, 
 J. Bloino, B. G. Janesko, R. Gomperts, B. Mennucci, H. P. Hratchian, 
 J. V. Ortiz, A. F. Izmaylov, J. L. Sonnenberg, D. Williams-Young, 
 F. Ding, F. Lipparini, F. Egidi, J. Goings, B. Peng, A. Petrone, 
 T. Henderson, D. Ranasinghe, V. G. Zakrzewski, J. Gao, N. Rega, 
 G. Zheng, W. Liang, M. Hada, M. Ehara, K. Toyota, R. Fukuda, 
 J. Hasegawa, M. Ishida, T. Nakajima, Y. Honda, O. Kitao, H. Nakai, 
 T. Vreven, K. Throssell, J. A. Montgomery, Jr., J. E. Peralta, 
 F. Ogliaro, M. J. Bearpark, J. J. Heyd, E. N. Brothers, K. N. Kudin, 
 V. N. Staroverov, T. A. Keith, R. Kobayashi, J. Normand, 
 K. Raghavachari, A. P. Rendell, J. C. Burant, S. S. Iyengar, 
 J. Tomasi, M. Cossi, J. M. Millam, M. Klene, C. Adamo, R. Cammi, 
 J. W. Ochterski, R. L. Martin, K. Morokuma, O. Farkas, 
 J. B. Foresman, and D. J. Fox, Gaussian, Inc., Wallingford CT, 2019.
 
 ******************************************
 Gaussian 16:  ES64L-G16RevC.01  3-Jul-2019
                27-May-2022 
 ******************************************
 %mem=8gb
 %nproc=4
 Will use up to    4 processors via shared memory.
 %chk=conf-34.chk
 -------------------------------------------------------------------
 # B3LYP/6-31G* guess=read geom=check nosymm integral(ultrafinegrid)
 -------------------------------------------------------------------
 1/29=2,38=1,172=1/1;
 2/12=2,15=1,40=1/2;
 3/5=1,6=6,7=1,11=2,14=-4,25=1,30=1,74=-5,75=-5,116=-2/1,2,3;
 4/5=1/1;
 5/5=2,38=6/2;
 6/7=2,8=2,9=2,10=2,28=1/1;
 99/5=1,9=1/99;
 -----------------------------------------------------
 Candidate Structure: Conf:34 Charge calc in gas phase
 -----------------------------------------------------
 Structure from the checkpoint file:  "conf-34.chk"
 Charge =  1 Multiplicity = 1
 Redundant internal coordinates found in file.  (old form).
 N,0,-5.4021832878,-0.016130829,3.7466208502
 H,0,-5.463796363,-0.8813258223,4.2901812899
 H,0,-6.1307608066,0.6236386288,4.0745589125
 H,0,-5.5345965094,-0.226538303,2.6988147126
 C,0,-4.0261816896,0.5910908053,3.7332781114
 H,0,-3.3569524327,0.0038216955,4.3645342837
 H,0,-4.0714447466,1.6139152438,4.1108571943
 C,0,-3.6195236674,0.5382410146,2.2330816663
 O,0,-4.4572111948,0.056168601,1.452697825
 N,0,-2.4266585294,1.0187064112,1.9308074613
 H,0,-1.749152115,1.274992027,2.6552970553
 C,0,-1.7879175693,0.9731550834,0.6084842486
 H,0,-2.212154467,0.1338564101,0.0499572311
 C,0,-0.2925627236,0.7410981912,0.9318887657
 C,0,-1.9508811209,2.3022627369,-0.1656005243
 H,0,-1.5532025125,3.1019407935,0.4729536285
 H,0,-1.3016423959,2.2720165157,-1.0499434152
 O,0,0.1367665839,1.055849495,2.0434872602
 C,0,-3.3763720857,2.6641992242,-0.6277047372
 H,0,-4.0447526033,2.6444054699,0.2460855549
 C,0,-3.3662439597,4.0975284206,-1.1843003339
 H,0,-2.6555930814,4.1884253474,-2.0143732653
 H,0,-4.3590939351,4.3816092768,-1.5501819077
 H,0,-3.0696033609,4.8222420758,-0.4171288655
 C,0,-3.9208124748,1.673305681,-1.6670985226
 H,0,-3.2724132909,1.6402028437,-2.5520147594
 H,0,-4.0123317125,0.6578836144,-1.2662584904
 H,0,-4.9182140482,1.9779701801,-2.0025497476
 N,0,0.4634602385,0.2591679852,-0.0760951001
 H,0,0.0008385961,-0.035218407,-0.9276016789
 C,0,1.9251069569,0.0999958814,-0.0037642874
 H,0,2.2254511261,0.674346985,0.880108588
 C,0,2.5755380851,0.764938412,-1.2498042884
 C,0,2.387530174,-1.3723336877,0.1873489981
 H,0,2.3971218826,-1.8506365834,-0.8010420905
 O,0,3.6355732666,0.3695928956,-1.7192539303
 C,0,3.8198816465,-1.4084273053,0.747383791
 H,0,3.8544322549,-0.9605599679,1.7494601686
 H,0,4.1625590485,-2.4451762882,0.836185697
 H,0,4.5112875438,-0.8719871827,0.0965250111
 C,0,1.441238075,-2.158597843,1.1070903587
 H,0,1.3535288624,-1.67807748,2.0891585244
 H,0,1.833772717,-3.1689560562,1.2632076551
 H,0,0.4345651618,-2.2587627321,0.6860158868
 N,0,1.8803066243,1.8107476354,-1.7648252533
 H,0,1.0232571549,2.1255462058,-1.3310106653
 C,0,2.3264993774,2.6077745841,-2.89675998
 H,0,3.3617470756,2.927359005,-2.7447054522
 C,0,1.4252447285,3.8318332301,-2.9815380918
 C,0,2.2395715779,1.8128522267,-4.2414675395
 H,0,3.0627778558,1.0937048208,-4.2228818004
 H,0,1.3091194878,1.2308179147,-4.2200212734
 O,0,2.0255782731,4.8434368634,-3.5822724599
 C,0,2.2893590427,2.665784042,-5.529509258
 H,0,2.7370727567,2.06022132,-6.3255467665
 H,0,2.9647958599,3.5131230939,-5.3765492634
 C,0,0.8982097955,3.1660385206,-6.0156487642
 H,0,0.5255255364,2.4688734677,-6.7752521674
 H,0,0.1677585998,3.1178376256,-5.1977452042
 C,0,0.8578641479,4.5908027356,-6.608083981
 H,0,1.8359059075,4.8602434936,-7.0204678466
 H,0,0.1390215172,4.6319338186,-7.4374590052
 N,0,0.514963777,5.6111008844,-5.5784809766
 H,0,0.6347624095,6.549299945,-5.9593165398
 H,0,-0.470294788,5.5258630828,-5.327933917
 H,0,1.3647324423,5.3417923119,-4.203784417
 O,0,0.2551148349,3.8100856638,-2.6152792933
 Recover connectivity data from disk.
                           ----------------------------
                           !    Current Parameters    !
                           ! (Angstroms and Degrees)  !
 --------------------------                            --------------------------
 ! Name  Definition              Value                                          !
 --------------------------------------------------------------------------------
 ! R1    R(1,2)                  1.0236                                         !
 ! R2    R(1,3)                  1.0236                                         !
 ! R3    R(1,4)                  1.0769                                         !
 ! R4    R(1,5)                  1.5041                                         !
 ! R5    R(5,6)                  1.0914                                         !
 ! R6    R(5,7)                  1.0912                                         !
 ! R7    R(5,8)                  1.5552                                         !
 ! R8    R(8,9)                  1.2422                                         !
 ! R9    R(8,10)                 1.321                                          !
 ! R10   R(10,11)                1.0245                                         !
 ! R11   R(10,12)                1.4692                                         !
 ! R12   R(12,13)                1.0938                                         !
 ! R13   R(12,14)                1.5474                                         !
 ! R14   R(12,15)                1.5467                                         !
 ! R15   R(14,18)                1.2325                                         !
 ! R16   R(14,29)                1.349                                          !
 ! R17   R(15,16)                1.0979                                         !
 ! R18   R(15,17)                1.0975                                         !
 ! R19   R(15,19)                1.5416                                         !
 ! R20   R(19,20)                1.1003                                         !
 ! R21   R(19,21)                1.5376                                         !
 ! R22   R(19,25)                1.5358                                         !
 ! R23   R(21,22)                1.0965                                         !
 ! R24   R(21,23)                1.0956                                         !
 ! R25   R(21,24)                1.0962                                         !
 ! R26   R(25,26)                1.0975                                         !
 ! R27   R(25,27)                1.0955                                         !
 ! R28   R(25,28)                1.0955                                         !
 ! R29   R(29,30)                1.0128                                         !
 ! R30   R(29,31)                1.4721                                         !
 ! R31   R(31,32)                1.096                                          !
 ! R32   R(31,33)                1.5549                                         !
 ! R33   R(31,34)                1.555                                          !
 ! R34   R(33,36)                1.2249                                         !
 ! R35   R(33,45)                1.3573                                         !
 ! R36   R(34,35)                1.0981                                         !
 ! R37   R(34,37)                1.5384                                         !
 ! R38   R(34,41)                1.5361                                         !
 ! R39   R(37,38)                1.0982                                         !
 ! R40   R(37,39)                1.0955                                         !
 ! R41   R(37,40)                1.0906                                         !
 ! R42   R(41,42)                1.0968                                         !
 ! R43   R(41,43)                1.0951                                         !
 ! R44   R(41,44)                1.0958                                         !
 ! R45   R(45,46)                1.0109                                         !
 ! R46   R(45,47)                1.4545                                         !
 ! R47   R(47,48)                1.0941                                         !
 ! R48   R(47,49)                1.5224                                         !
 ! R49   R(47,50)                1.5645                                         !
 ! R50   R(49,53)                1.3208                                         !
 ! R51   R(49,67)                1.2263                                         !
 ! R52   R(50,51)                1.0932                                         !
 ! R53   R(50,52)                1.0977                                         !
 ! R54   R(50,54)                1.5456                                         !
 ! R55   R(54,55)                1.0958                                         !
 ! R56   R(54,56)                1.0943                                         !
 ! R57   R(54,57)                1.5562                                         !
 ! R58   R(57,58)                1.0963                                         !
 ! R59   R(57,59)                1.0977                                         !
 ! R60   R(57,60)                1.5436                                         !
 ! R61   R(60,61)                1.0951                                         !
 ! R62   R(60,62)                1.0983                                         !
 ! R63   R(60,63)                1.4895                                         !
 ! R64   R(63,64)                1.0196                                         !
 ! R65   R(63,65)                1.0202                                         !
 ! R66   R(63,66)                1.6384                                         !
 ! A1    A(2,1,3)              108.3805                                         !
 ! A2    A(2,1,4)              110.1285                                         !
 ! A3    A(2,1,5)              113.641                                          !
 ! A4    A(3,1,4)              110.2634                                         !
 ! A5    A(3,1,5)              113.6842                                         !
 ! A6    A(4,1,5)              100.5291                                         !
 ! A7    A(1,5,6)              109.791                                          !
 ! A8    A(1,5,7)              109.718                                          !
 ! A9    A(1,5,8)              103.5355                                         !
 ! A10   A(6,5,7)              109.2475                                         !
 ! A11   A(6,5,8)              112.2897                                         !
 ! A12   A(7,5,8)              112.1149                                         !
 ! A13   A(5,8,9)              116.2856                                         !
 ! A14   A(5,8,10)             116.3892                                         !
 ! A15   A(9,8,10)             127.3236                                         !
 ! A16   A(8,10,11)            121.757                                          !
 ! A17   A(8,10,12)            125.9606                                         !
 ! A18   A(11,10,12)           110.8988                                         !
 ! A19   A(10,12,13)           108.3459                                         !
 ! A20   A(10,12,14)           103.69                                           !
 ! A21   A(10,12,15)           112.2091                                         !
 ! A22   A(13,12,14)           111.4975                                         !
 ! A23   A(13,12,15)           111.282                                          !
 ! A24   A(14,12,15)           109.5895                                         !
 ! A25   A(12,14,18)           119.1316                                         !
 ! A26   A(12,14,29)           116.0387                                         !
 ! A27   A(18,14,29)           124.7444                                         !
 ! A28   A(12,15,16)           107.2568                                         !
 ! A29   A(12,15,17)           108.4975                                         !
 ! A30   A(12,15,19)           116.692                                          !
 ! A31   A(16,15,17)           105.9295                                         !
 ! A32   A(16,15,19)           109.7715                                         !
 ! A33   A(17,15,19)           108.1762                                         !
 ! A34   A(15,19,20)           108.6285                                         !
 ! A35   A(15,19,21)           108.7395                                         !
 ! A36   A(15,19,25)           112.2835                                         !
 ! A37   A(20,19,21)           107.953                                          !
 ! A38   A(20,19,25)           108.0901                                         !
 ! A39   A(21,19,25)           111.0258                                         !
 ! A40   A(19,21,22)           110.8284                                         !
 ! A41   A(19,21,23)           110.8929                                         !
 ! A42   A(19,21,24)           111.3892                                         !
 ! A43   A(22,21,23)           108.2415                                         !
 ! A44   A(22,21,24)           107.4334                                         !
 ! A45   A(23,21,24)           107.9095                                         !
 ! A46   A(19,25,26)           110.8364                                         !
 ! A47   A(19,25,27)           112.3351                                         !
 ! A48   A(19,25,28)           110.5213                                         !
 ! A49   A(26,25,27)           108.4459                                         !
 ! A50   A(26,25,28)           107.4197                                         !
 ! A51   A(27,25,28)           107.0827                                         !
 ! A52   A(14,29,30)           118.4282                                         !
 ! A53   A(14,29,31)           123.9432                                         !
 ! A54   A(30,29,31)           117.6085                                         !
 ! A55   A(29,31,32)           104.7764                                         !
 ! A56   A(29,31,33)           109.2522                                         !
 ! A57   A(29,31,34)           113.8087                                         !
 ! A58   A(32,31,33)           107.909                                          !
 ! A59   A(32,31,34)           108.3944                                         !
 ! A60   A(33,31,34)           112.2708                                         !
 ! A61   A(31,33,36)           122.08                                           !
 ! A62   A(31,33,45)           114.7901                                         !
 ! A63   A(36,33,45)           123.1296                                         !
 ! A64   A(31,34,35)           107.7215                                         !
 ! A65   A(31,34,37)           110.1107                                         !
 ! A66   A(31,34,41)           112.0262                                         !
 ! A67   A(35,34,37)           108.0187                                         !
 ! A68   A(35,34,41)           108.7456                                         !
 ! A69   A(37,34,41)           110.0964                                         !
 ! A70   A(34,37,38)           110.6049                                         !
 ! A71   A(34,37,39)           110.0571                                         !
 ! A72   A(34,37,40)           111.1909                                         !
 ! A73   A(38,37,39)           107.5868                                         !
 ! A74   A(38,37,40)           108.9064                                         !
 ! A75   A(39,37,40)           108.3944                                         !
 ! A76   A(34,41,42)           111.1689                                         !
 ! A77   A(34,41,43)           109.6812                                         !
 ! A78   A(34,41,44)           112.4978                                         !
 ! A79   A(42,41,43)           107.7709                                         !
 ! A80   A(42,41,44)           108.0981                                         !
 ! A81   A(43,41,44)           107.442                                          !
 ! A82   A(33,45,46)           120.756                                          !
 ! A83   A(33,45,47)           124.0813                                         !
 ! A84   A(46,45,47)           115.0507                                         !
 ! A85   A(45,47,48)           110.0096                                         !
 ! A86   A(45,47,49)           107.5966                                         !
 ! A87   A(45,47,50)           111.9268                                         !
 ! A88   A(48,47,49)           109.4533                                         !
 ! A89   A(48,47,50)           108.69                                           !
 ! A90   A(49,47,50)           109.1332                                         !
 ! A91   A(47,49,53)           111.8418                                         !
 ! A92   A(47,49,67)           122.2747                                         !
 ! A93   A(53,49,67)           125.6695                                         !
 ! A94   A(47,50,51)           106.1278                                         !
 ! A95   A(47,50,52)           107.4402                                         !
 ! A96   A(47,50,54)           115.7271                                         !
 ! A97   A(51,50,52)           106.8065                                         !
 ! A98   A(51,50,54)           110.6654                                         !
 ! A99   A(52,50,54)           109.6442                                         !
 ! A100  A(50,54,55)           108.2747                                         !
 ! A101  A(50,54,56)           109.3099                                         !
 ! A102  A(50,54,57)           114.1363                                         !
 ! A103  A(55,54,56)           106.0959                                         !
 ! A104  A(55,54,57)           108.4174                                         !
 ! A105  A(56,54,57)           110.2732                                         !
 ! A106  A(54,57,58)           108.4152                                         !
 ! A107  A(54,57,59)           110.3643                                         !
 ! A108  A(54,57,60)           116.1022                                         !
 ! A109  A(58,57,59)           105.1968                                         !
 ! A110  A(58,57,60)           108.1893                                         !
 ! A111  A(59,57,60)           108.0069                                         !
 ! A112  A(57,60,61)           110.3833                                         !
 ! A113  A(57,60,62)           109.9686                                         !
 ! A114  A(57,60,63)           111.8997                                         !
 ! A115  A(61,60,62)           106.9155                                         !
 ! A116  A(61,60,63)           107.2995                                         !
 ! A117  A(62,60,63)           110.2215                                         !
 ! A118  A(60,63,64)           110.1855                                         !
 ! A119  A(60,63,65)           109.5638                                         !
 ! A120  A(60,63,66)           110.3638                                         !
 ! A121  A(64,63,65)           106.3846                                         !
 ! A122  A(64,63,66)           113.8095                                         !
 ! A123  A(65,63,66)           106.326                                          !
 ! D1    D(2,1,5,6)             -3.0068                                         !
 ! D2    D(2,1,5,7)           -123.0819                                         !
 ! D3    D(2,1,5,8)            117.0754                                         !
 ! D4    D(3,1,5,6)            121.5959                                         !
 ! D5    D(3,1,5,7)              1.5208                                         !
 ! D6    D(3,1,5,8)           -118.3218                                         !
 ! D7    D(4,1,5,6)           -120.6166                                         !
 ! D8    D(4,1,5,7)            119.3083                                         !
 ! D9    D(4,1,5,8)             -0.5343                                         !
 ! D10   D(1,5,8,9)              0.4665                                         !
 ! D11   D(1,5,8,10)          -179.9647                                         !
 ! D12   D(6,5,8,9)            118.8304                                         !
 ! D13   D(6,5,8,10)           -61.6008                                         !
 ! D14   D(7,5,8,9)           -117.7245                                         !
 ! D15   D(7,5,8,10)            61.8443                                         !
 ! D16   D(5,8,10,11)            9.3064                                         !
 ! D17   D(5,8,10,12)          174.631                                          !
 ! D18   D(9,8,10,11)         -171.1798                                         !
 ! D19   D(9,8,10,12)           -5.8552                                         !
 ! D20   D(8,10,12,13)         -24.8221                                         !
 ! D21   D(8,10,12,14)        -143.3867                                         !
 ! D22   D(8,10,12,15)          98.4369                                         !
 ! D23   D(11,10,12,13)        141.8464                                         !
 ! D24   D(11,10,12,14)         23.2818                                         !
 ! D25   D(11,10,12,15)        -94.8946                                         !
 ! D26   D(10,12,14,18)        -22.616                                          !
 ! D27   D(10,12,14,29)        160.5822                                         !
 ! D28   D(13,12,14,18)       -138.9829                                         !
 ! D29   D(13,12,14,29)         44.2153                                         !
 ! D30   D(15,12,14,18)         97.3595                                         !
 ! D31   D(15,12,14,29)        -79.4423                                         !
 ! D32   D(10,12,15,16)         55.506                                          !
 ! D33   D(10,12,15,17)        169.5207                                         !
 ! D34   D(10,12,15,19)        -68.0426                                         !
 ! D35   D(13,12,15,16)        177.0995                                         !
 ! D36   D(13,12,15,17)        -68.8858                                         !
 ! D37   D(13,12,15,19)         53.5509                                         !
 ! D38   D(14,12,15,16)        -59.1164                                         !
 ! D39   D(14,12,15,17)         54.8982                                         !
 ! D40   D(14,12,15,19)        177.335                                          !
 ! D41   D(12,14,29,30)         -7.9747                                         !
 ! D42   D(12,14,29,31)        173.698                                          !
 ! D43   D(18,14,29,30)        175.4254                                         !
 ! D44   D(18,14,29,31)         -2.9019                                         !
 ! D45   D(12,15,19,20)         54.4374                                         !
 ! D46   D(12,15,19,21)        171.6855                                         !
 ! D47   D(12,15,19,25)        -65.0522                                         !
 ! D48   D(16,15,19,20)        -67.8092                                         !
 ! D49   D(16,15,19,21)         49.4389                                         !
 ! D50   D(16,15,19,25)        172.7012                                         !
 ! D51   D(17,15,19,20)        177.0412                                         !
 ! D52   D(17,15,19,21)        -65.7107                                         !
 ! D53   D(17,15,19,25)         57.5516                                         !
 ! D54   D(15,19,21,22)         58.1443                                         !
 ! D55   D(15,19,21,23)        178.3893                                         !
 ! D56   D(15,19,21,24)        -61.411                                          !
 ! D57   D(20,19,21,22)        175.822                                          !
 ! D58   D(20,19,21,23)        -63.933                                          !
 ! D59   D(20,19,21,24)         56.2667                                         !
 ! D60   D(25,19,21,22)        -65.8686                                         !
 ! D61   D(25,19,21,23)         54.3764                                         !
 ! D62   D(25,19,21,24)        174.5761                                         !
 ! D63   D(15,19,25,26)        -58.9114                                         !
 ! D64   D(15,19,25,27)         62.5802                                         !
 ! D65   D(15,19,25,28)       -177.8899                                         !
 ! D66   D(20,19,25,26)       -178.7149                                         !
 ! D67   D(20,19,25,27)        -57.2233                                         !
 ! D68   D(20,19,25,28)         62.3066                                         !
 ! D69   D(21,19,25,26)         63.0587                                         !
 ! D70   D(21,19,25,27)       -175.4497                                         !
 ! D71   D(21,19,25,28)        -55.9197                                         !
 ! D72   D(14,29,31,32)        -13.92                                           !
 ! D73   D(14,29,31,33)       -129.3233                                         !
 ! D74   D(14,29,31,34)        104.3151                                         !
 ! D75   D(30,29,31,32)        167.74                                           !
 ! D76   D(30,29,31,33)         52.3367                                         !
 ! D77   D(30,29,31,34)        -74.0249                                         !
 ! D78   D(29,31,33,36)       -151.0899                                         !
 ! D79   D(29,31,33,45)         29.1136                                         !
 ! D80   D(32,31,33,36)         95.533                                          !
 ! D81   D(32,31,33,45)        -84.2635                                         !
 ! D82   D(34,31,33,36)        -23.8539                                         !
 ! D83   D(34,31,33,45)        156.3496                                         !
 ! D84   D(29,31,34,35)         82.6603                                         !
 ! D85   D(29,31,34,37)       -159.7699                                         !
 ! D86   D(29,31,34,41)        -36.8918                                         !
 ! D87   D(32,31,34,35)       -161.203                                          !
 ! D88   D(32,31,34,37)        -43.6332                                         !
 ! D89   D(32,31,34,41)         79.2448                                         !
 ! D90   D(33,31,34,35)        -42.1003                                         !
 ! D91   D(33,31,34,37)         75.4695                                         !
 ! D92   D(33,31,34,41)       -161.6525                                         !
 ! D93   D(31,33,45,46)          1.7374                                         !
 ! D94   D(31,33,45,47)        177.6951                                         !
 ! D95   D(36,33,45,46)       -178.0567                                         !
 ! D96   D(36,33,45,47)         -2.099                                          !
 ! D97   D(31,34,37,38)         63.9756                                         !
 ! D98   D(31,34,37,39)       -177.2797                                         !
 ! D99   D(31,34,37,40)        -57.1579                                         !
 ! D100  D(35,34,37,38)       -178.6388                                         !
 ! D101  D(35,34,37,39)        -59.8942                                         !
 ! D102  D(35,34,37,40)         60.2276                                         !
 ! D103  D(41,34,37,38)        -60.0278                                         !
 ! D104  D(41,34,37,39)         58.7169                                         !
 ! D105  D(41,34,37,40)        178.8387                                         !
 ! D106  D(31,34,41,42)        -57.5397                                         !
 ! D107  D(31,34,41,43)       -176.6253                                         !
 ! D108  D(31,34,41,44)         63.8565                                         !
 ! D109  D(35,34,41,42)       -176.4895                                         !
 ! D110  D(35,34,41,43)         64.4249                                         !
 ! D111  D(35,34,41,44)        -55.0933                                         !
 ! D112  D(37,34,41,42)         65.3464                                         !
 ! D113  D(37,34,41,43)        -53.7392                                         !
 ! D114  D(37,34,41,44)       -173.2574                                         !
 ! D115  D(33,45,47,48)        -49.6303                                         !
 ! D116  D(33,45,47,49)       -168.7954                                         !
 ! D117  D(33,45,47,50)         71.3148                                         !
 ! D118  D(46,45,47,48)        126.5355                                         !
 ! D119  D(46,45,47,49)          7.3704                                         !
 ! D120  D(46,45,47,50)       -112.5194                                         !
 ! D121  D(45,47,49,53)        154.7996                                         !
 ! D122  D(45,47,49,67)        -30.2369                                         !
 ! D123  D(48,47,49,53)         35.2797                                         !
 ! D124  D(48,47,49,67)       -149.7568                                         !
 ! D125  D(50,47,49,53)        -83.5532                                         !
 ! D126  D(50,47,49,67)         91.4103                                         !
 ! D127  D(45,47,50,51)        -73.9471                                         !
 ! D128  D(45,47,50,52)         40.0273                                         !
 ! D129  D(45,47,50,54)        162.883                                          !
 ! D130  D(48,47,50,51)         47.7594                                         !
 ! D131  D(48,47,50,52)        161.7338                                         !
 ! D132  D(48,47,50,54)        -75.4105                                         !
 ! D133  D(49,47,50,51)        167.067                                          !
 ! D134  D(49,47,50,52)        -78.9586                                         !
 ! D135  D(49,47,50,54)         43.8971                                         !
 ! D136  D(47,50,54,55)        150.7454                                         !
 ! D137  D(47,50,54,56)         35.5894                                         !
 ! D138  D(47,50,54,57)        -88.42                                           !
 ! D139  D(51,50,54,55)         29.9953                                         !
 ! D140  D(51,50,54,56)        -85.1607                                         !
 ! D141  D(51,50,54,57)        150.83                                           !
 ! D142  D(52,50,54,55)        -87.5697                                         !
 ! D143  D(52,50,54,56)        157.2742                                         !
 ! D144  D(52,50,54,57)         33.2649                                         !
 ! D145  D(50,54,57,58)        -95.7235                                         !
 ! D146  D(50,54,57,59)         19.0031                                         !
 ! D147  D(50,54,57,60)        142.305                                          !
 ! D148  D(55,54,57,58)         25.0317                                         !
 ! D149  D(55,54,57,59)        139.7584                                         !
 ! D150  D(55,54,57,60)        -96.9397                                         !
 ! D151  D(56,54,57,58)        140.7859                                         !
 ! D152  D(56,54,57,59)       -104.4874                                         !
 ! D153  D(56,54,57,60)         18.8145                                         !
 ! D154  D(54,57,60,61)         26.2629                                         !
 ! D155  D(54,57,60,62)        143.99                                           !
 ! D156  D(54,57,60,63)        -93.1611                                         !
 ! D157  D(58,57,60,61)        -95.828                                          !
 ! D158  D(58,57,60,62)         21.8991                                         !
 ! D159  D(58,57,60,63)        144.748                                          !
 ! D160  D(59,57,60,61)        150.785                                          !
 ! D161  D(59,57,60,62)        -91.4879                                         !
 ! D162  D(59,57,60,63)         31.3611                                         !
 ! D163  D(57,60,63,64)        171.3415                                         !
 ! D164  D(57,60,63,65)        -71.9401                                         !
 ! D165  D(57,60,63,66)         44.8112                                         !
 ! D166  D(61,60,63,64)         50.1182                                         !
 ! D167  D(61,60,63,65)        166.8365                                         !
 ! D168  D(61,60,63,66)        -76.4122                                         !
 ! D169  D(62,60,63,64)        -65.9533                                         !
 ! D170  D(62,60,63,65)         50.7651                                         !
 ! D171  D(62,60,63,66)        167.5164                                         !
 --------------------------------------------------------------------------------
 Symmetry turned off by external request.
 Stoichiometry    C19H38N5O5(1+)
 Framework group  C1[X(C19H38N5O5)]
 Deg. of freedom   195
 Full point group                 C1      NOp   1
                          Input orientation:                          
 ---------------------------------------------------------------------
 Center     Atomic      Atomic             Coordinates (Angstroms)
 Number     Number       Type             X           Y           Z
 ---------------------------------------------------------------------
      1          7           0       -5.402183   -0.016131    3.746621
      2          1           0       -5.463796   -0.881326    4.290181
      3          1           0       -6.130761    0.623639    4.074559
      4          1           0       -5.534597   -0.226538    2.698815
      5          6           0       -4.026182    0.591091    3.733278
      6          1           0       -3.356952    0.003822    4.364534
      7          1           0       -4.071445    1.613915    4.110857
      8          6           0       -3.619524    0.538241    2.233082
      9          8           0       -4.457211    0.056169    1.452698
     10          7           0       -2.426659    1.018706    1.930807
     11          1           0       -1.749152    1.274992    2.655297
     12          6           0       -1.787918    0.973155    0.608484
     13          1           0       -2.212154    0.133856    0.049957
     14          6           0       -0.292563    0.741098    0.931889
     15          6           0       -1.950881    2.302263   -0.165601
     16          1           0       -1.553203    3.101941    0.472954
     17          1           0       -1.301642    2.272017   -1.049943
     18          8           0        0.136767    1.055849    2.043487
     19          6           0       -3.376372    2.664199   -0.627705
     20          1           0       -4.044753    2.644405    0.246086
     21          6           0       -3.366244    4.097528   -1.184300
     22          1           0       -2.655593    4.188425   -2.014373
     23          1           0       -4.359094    4.381609   -1.550182
     24          1           0       -3.069603    4.822242   -0.417129
     25          6           0       -3.920812    1.673306   -1.667099
     26          1           0       -3.272413    1.640203   -2.552015
     27          1           0       -4.012332    0.657884   -1.266258
     28          1           0       -4.918214    1.977970   -2.002550
     29          7           0        0.463460    0.259168   -0.076095
     30          1           0        0.000839   -0.035218   -0.927602
     31          6           0        1.925107    0.099996   -0.003764
     32          1           0        2.225451    0.674347    0.880109
     33          6           0        2.575538    0.764938   -1.249804
     34          6           0        2.387530   -1.372334    0.187349
     35          1           0        2.397122   -1.850637   -0.801042
     36          8           0        3.635573    0.369593   -1.719254
     37          6           0        3.819882   -1.408427    0.747384
     38          1           0        3.854432   -0.960560    1.749460
     39          1           0        4.162559   -2.445176    0.836186
     40          1           0        4.511288   -0.871987    0.096525
     41          6           0        1.441238   -2.158598    1.107090
     42          1           0        1.353529   -1.678077    2.089159
     43          1           0        1.833773   -3.168956    1.263208
     44          1           0        0.434565   -2.258763    0.686016
     45          7           0        1.880307    1.810748   -1.764825
     46          1           0        1.023257    2.125546   -1.331011
     47          6           0        2.326499    2.607775   -2.896760
     48          1           0        3.361747    2.927359   -2.744705
     49          6           0        1.425245    3.831833   -2.981538
     50          6           0        2.239572    1.812852   -4.241468
     51          1           0        3.062778    1.093705   -4.222882
     52          1           0        1.309119    1.230818   -4.220021
     53          8           0        2.025578    4.843437   -3.582272
     54          6           0        2.289359    2.665784   -5.529509
     55          1           0        2.737073    2.060221   -6.325547
     56          1           0        2.964796    3.513123   -5.376549
     57          6           0        0.898210    3.166039   -6.015649
     58          1           0        0.525526    2.468873   -6.775252
     59          1           0        0.167759    3.117838   -5.197745
     60          6           0        0.857864    4.590803   -6.608084
     61          1           0        1.835906    4.860243   -7.020468
     62          1           0        0.139022    4.631934   -7.437459
     63          7           0        0.514964    5.611101   -5.578481
     64          1           0        0.634762    6.549300   -5.959317
     65          1           0       -0.470295    5.525863   -5.327934
     66          1           0        1.364732    5.341792   -4.203784
     67          8           0        0.255115    3.810086   -2.615279
 ---------------------------------------------------------------------
 Rotational constants (GHZ):           0.1878835           0.0907271           0.0662132
 Standard basis: 6-31G(d) (6D, 7F)
   511 basis functions,   964 primitive gaussians,   511 cartesian basis functions
   113 alpha electrons      113 beta electrons
       nuclear repulsion energy      3070.7565705140 Hartrees.
 NAtoms=   67 NActive=   67 NUniq=   67 SFac= 1.00D+00 NAtFMM=   60 NAOKFM=T Big=T
 Integral buffers will be    131072 words long.
 Raffenetti 2 integral format.
 Two-electron integral symmetry is turned off.
 One-electron integrals computed using PRISM.
 NBasis=   511 RedAO= T EigKep=  1.80D-03  NBF=   511
 NBsUse=   511 1.00D-06 EigRej= -1.00D+00 NBFU=   511
 Initial guess from the checkpoint file:  "conf-34.chk"
 B after Tr=     0.000000    0.000000    0.000000
         Rot=    1.000000    0.000000    0.000000    0.000000 Ang=   0.00 deg.
 Requested convergence on RMS density matrix=1.00D-08 within 128 cycles.
 Requested convergence on MAX density matrix=1.00D-06.
 Requested convergence on             energy=1.00D-06.
 No special actions if energy rises.
 SCF Done:  E(RB3LYP) =  -1396.63508508     A.U. after    3 cycles
            NFock=  3  Conv=0.92D-09     -V/T= 2.0095

 **********************************************************************

            Population analysis using the SCF Density.

 **********************************************************************

 Alpha  occ. eigenvalues --  -19.28777 -19.22993 -19.22820 -19.20297 -19.18279
 Alpha  occ. eigenvalues --  -14.62216 -14.50905 -14.47073 -14.42882 -14.42341
 Alpha  occ. eigenvalues --  -10.45611 -10.42646 -10.40077 -10.38000 -10.35921
 Alpha  occ. eigenvalues --  -10.35593 -10.31456 -10.30002 -10.29136 -10.28809
 Alpha  occ. eigenvalues --  -10.28201 -10.26450 -10.25720 -10.25462 -10.25363
 Alpha  occ. eigenvalues --  -10.25136 -10.24746 -10.24548 -10.22760  -1.21189
 Alpha  occ. eigenvalues --   -1.15818  -1.15206  -1.14924  -1.10375  -1.07576
 Alpha  occ. eigenvalues --   -1.06806  -1.03391  -0.99173  -0.97639  -0.92811
 Alpha  occ. eigenvalues --   -0.89980  -0.87935  -0.86471  -0.85231  -0.82339
 Alpha  occ. eigenvalues --   -0.78996  -0.76929  -0.76325  -0.76132  -0.76061
 Alpha  occ. eigenvalues --   -0.75828  -0.74588  -0.72353  -0.69704  -0.69660
 Alpha  occ. eigenvalues --   -0.68373  -0.67423  -0.65937  -0.65402  -0.64958
 Alpha  occ. eigenvalues --   -0.63920  -0.63635  -0.62383  -0.61639  -0.59899
 Alpha  occ. eigenvalues --   -0.58193  -0.57972  -0.57616  -0.56960  -0.56214
 Alpha  occ. eigenvalues --   -0.55073  -0.54685  -0.53935  -0.53507  -0.53341
 Alpha  occ. eigenvalues --   -0.52477  -0.51961  -0.51684  -0.51278  -0.50192
 Alpha  occ. eigenvalues --   -0.49844  -0.49426  -0.48522  -0.48341  -0.48154
 Alpha  occ. eigenvalues --   -0.47826  -0.47531  -0.46474  -0.45818  -0.45264
 Alpha  occ. eigenvalues --   -0.44756  -0.44419  -0.43844  -0.43671  -0.43429
 Alpha  occ. eigenvalues --   -0.42516  -0.42379  -0.41778  -0.41663  -0.41284
 Alpha  occ. eigenvalues --   -0.40449  -0.40178  -0.39955  -0.39873  -0.39805
 Alpha  occ. eigenvalues --   -0.39655  -0.36920  -0.36420  -0.36312  -0.34553
 Alpha  occ. eigenvalues --   -0.33834  -0.31939  -0.31500
 Alpha virt. eigenvalues --   -0.13775  -0.13438  -0.08656  -0.07947  -0.06362
 Alpha virt. eigenvalues --   -0.06093  -0.04759  -0.02896  -0.02721  -0.01835
 Alpha virt. eigenvalues --   -0.00365   0.00493   0.01313   0.01836   0.02664
 Alpha virt. eigenvalues --    0.03044   0.03678   0.04062   0.04635   0.05144
 Alpha virt. eigenvalues --    0.05739   0.06054   0.06737   0.06785   0.06874
 Alpha virt. eigenvalues --    0.07132   0.07146   0.07364   0.07641   0.07978
 Alpha virt. eigenvalues --    0.08508   0.08654   0.09380   0.09794   0.10305
 Alpha virt. eigenvalues --    0.10583   0.10798   0.11457   0.11614   0.11978
 Alpha virt. eigenvalues --    0.12279   0.12622   0.12965   0.13994   0.14185
 Alpha virt. eigenvalues --    0.14698   0.14935   0.15377   0.15756   0.16707
 Alpha virt. eigenvalues --    0.16968   0.17298   0.17687   0.18300   0.18596
 Alpha virt. eigenvalues --    0.19334   0.19947   0.20101   0.20333   0.20941
 Alpha virt. eigenvalues --    0.21699   0.23125   0.24634   0.25081   0.26389
 Alpha virt. eigenvalues --    0.27662   0.28071   0.31322   0.33510   0.33971
 Alpha virt. eigenvalues --    0.35527   0.36843   0.37809   0.39779   0.40825
 Alpha virt. eigenvalues --    0.41462   0.43021   0.43401   0.43450   0.43668
 Alpha virt. eigenvalues --    0.44396   0.44782   0.45322   0.46132   0.46774
 Alpha virt. eigenvalues --    0.47136   0.47477   0.47930   0.48165   0.48512
 Alpha virt. eigenvalues --    0.50440   0.51007   0.51883   0.52192   0.53145
 Alpha virt. eigenvalues --    0.53479   0.54198   0.54670   0.55113   0.56130
 Alpha virt. eigenvalues --    0.56628   0.56831   0.57278   0.57965   0.58208
 Alpha virt. eigenvalues --    0.58676   0.58940   0.59511   0.59796   0.60156
 Alpha virt. eigenvalues --    0.62508   0.62994   0.63093   0.63247   0.63515
 Alpha virt. eigenvalues --    0.63882   0.64067   0.64632   0.65106   0.66126
 Alpha virt. eigenvalues --    0.66722   0.66963   0.67293   0.67965   0.68446
 Alpha virt. eigenvalues --    0.69303   0.70042   0.70243   0.71222   0.73126
 Alpha virt. eigenvalues --    0.73162   0.73463   0.74047   0.74147   0.75234
 Alpha virt. eigenvalues --    0.75342   0.75989   0.76494   0.76780   0.77168
 Alpha virt. eigenvalues --    0.77716   0.78194   0.78897   0.79733   0.80232
 Alpha virt. eigenvalues --    0.80504   0.80873   0.81075   0.81368   0.81523
 Alpha virt. eigenvalues --    0.81860   0.82465   0.82697   0.83113   0.83426
 Alpha virt. eigenvalues --    0.83802   0.84295   0.84514   0.84911   0.85045
 Alpha virt. eigenvalues --    0.85467   0.86240   0.86478   0.87137   0.87814
 Alpha virt. eigenvalues --    0.88066   0.88262   0.89219   0.89649   0.90119
 Alpha virt. eigenvalues --    0.90538   0.91620   0.91724   0.92992   0.93331
 Alpha virt. eigenvalues --    0.94145   0.94932   0.95481   0.97091   0.97545
 Alpha virt. eigenvalues --    0.98081   0.99264   1.00384   1.00882   1.01341
 Alpha virt. eigenvalues --    1.02906   1.03912   1.05259   1.05942   1.06968
 Alpha virt. eigenvalues --    1.08013   1.09160   1.10249   1.12465   1.13164
 Alpha virt. eigenvalues --    1.13927   1.14767   1.15589   1.17531   1.18558
 Alpha virt. eigenvalues --    1.18975   1.20169   1.22703   1.23285   1.24208
 Alpha virt. eigenvalues --    1.26950   1.28055   1.28558   1.30532   1.31083
 Alpha virt. eigenvalues --    1.33939   1.34981   1.35522   1.36172   1.36376
 Alpha virt. eigenvalues --    1.37904   1.38469   1.39718   1.41198   1.42510
 Alpha virt. eigenvalues --    1.43264   1.44917   1.46109   1.46673   1.47183
 Alpha virt. eigenvalues --    1.48736   1.50588   1.52826   1.53685   1.55464
 Alpha virt. eigenvalues --    1.56595   1.56947   1.57188   1.59255   1.60525
 Alpha virt. eigenvalues --    1.61328   1.61793   1.62582   1.63724   1.64676
 Alpha virt. eigenvalues --    1.65969   1.66447   1.67321   1.68588   1.68723
 Alpha virt. eigenvalues --    1.69373   1.69643   1.70563   1.71044   1.71644
 Alpha virt. eigenvalues --    1.72556   1.73473   1.73691   1.75271   1.75916
 Alpha virt. eigenvalues --    1.76377   1.76573   1.77303   1.78268   1.78912
 Alpha virt. eigenvalues --    1.79408   1.79736   1.80530   1.81088   1.82349
 Alpha virt. eigenvalues --    1.83007   1.83405   1.84087   1.84759   1.84854
 Alpha virt. eigenvalues --    1.85899   1.86324   1.87548   1.87683   1.88477
 Alpha virt. eigenvalues --    1.89326   1.90390   1.91062   1.91943   1.93087
 Alpha virt. eigenvalues --    1.93483   1.94340   1.95140   1.95286   1.96551
 Alpha virt. eigenvalues --    1.97224   1.98046   1.98350   1.98575   2.00020
 Alpha virt. eigenvalues --    2.00394   2.01593   2.02118   2.03600   2.05220
 Alpha virt. eigenvalues --    2.07292   2.07815   2.09046   2.09767   2.10752
 Alpha virt. eigenvalues --    2.11853   2.13093   2.14081   2.14763   2.15895
 Alpha virt. eigenvalues --    2.16567   2.17180   2.17618   2.17896   2.18695
 Alpha virt. eigenvalues --    2.19733   2.20439   2.22899   2.24534   2.24630
 Alpha virt. eigenvalues --    2.26133   2.27931   2.29245   2.30042   2.31131
 Alpha virt. eigenvalues --    2.31300   2.32550   2.33232   2.34408   2.35547
 Alpha virt. eigenvalues --    2.36095   2.37526   2.38536   2.39904   2.40501
 Alpha virt. eigenvalues --    2.41038   2.42682   2.42922   2.44038   2.45679
 Alpha virt. eigenvalues --    2.46654   2.48054   2.49102   2.51332   2.51769
 Alpha virt. eigenvalues --    2.54433   2.56737   2.57173   2.58465   2.60181
 Alpha virt. eigenvalues --    2.62367   2.62894   2.64061   2.65108   2.66301
 Alpha virt. eigenvalues --    2.68002   2.69557   2.69744   2.70814   2.71452
 Alpha virt. eigenvalues --    2.75568   2.76628   2.78328   2.81668   2.85142
 Alpha virt. eigenvalues --    2.85241   2.89261   2.90665   2.95675   2.96994
 Alpha virt. eigenvalues --    3.01387   3.06421   3.07735   3.14581   3.60961
 Alpha virt. eigenvalues --    3.77313   3.90908   3.93166   3.95507   3.96811
 Alpha virt. eigenvalues --    4.00180   4.03891   4.05628   4.07827   4.08886
 Alpha virt. eigenvalues --    4.10482   4.12656   4.16560   4.21373   4.23104
 Alpha virt. eigenvalues --    4.25325   4.26221   4.29714   4.31790   4.34979
 Alpha virt. eigenvalues --    4.37612   4.39616   4.46883   4.50698   4.51710
 Alpha virt. eigenvalues --    4.56124   4.60623   4.66238
          Condensed to atoms (all electrons):
 Mulliken charges:
               1
     1  N   -0.750977
     2  H    0.423707
     3  H    0.423470
     4  H    0.440627
     5  C   -0.279090
     6  H    0.250107
     7  H    0.250166
     8  C    0.639851
     9  O   -0.529401
    10  N   -0.583483
    11  H    0.374653
    12  C   -0.093435
    13  H    0.186733
    14  C    0.632509
    15  C   -0.271173
    16  H    0.157764
    17  H    0.180070
    18  O   -0.534217
    19  C   -0.071624
    20  H    0.111397
    21  C   -0.453289
    22  H    0.173633
    23  H    0.150155
    24  H    0.146414
    25  C   -0.460451
    26  H    0.149557
    27  H    0.151308
    28  H    0.158128
    29  N   -0.630686
    30  H    0.342838
    31  C   -0.055073
    32  H    0.206509
    33  C    0.606220
    34  C   -0.072337
    35  H    0.143686
    36  O   -0.511336
    37  C   -0.463641
    38  H    0.139257
    39  H    0.150919
    40  H    0.197210
    41  C   -0.451151
    42  H    0.151766
    43  H    0.161198
    44  H    0.119860
    45  N   -0.642148
    46  H    0.354471
    47  C    0.014037
    48  H    0.189896
    49  C    0.570128
    50  C   -0.283148
    51  H    0.188351
    52  H    0.132974
    53  O   -0.596135
    54  C   -0.284313
    55  H    0.151995
    56  H    0.170777
    57  C   -0.289730
    58  H    0.153231
    59  H    0.150621
    60  C   -0.145918
    61  H    0.170848
    62  H    0.151271
    63  N   -0.776689
    64  H    0.337266
    65  H    0.334612
    66  H    0.458852
    67  O   -0.519594
 Sum of Mulliken charges =   1.00000
 Mulliken charges with hydrogens summed into heavy atoms:
               1
     1  N    0.536827
     5  C    0.221183
     8  C    0.639851
     9  O   -0.529401
    10  N   -0.208829
    12  C    0.093298
    14  C    0.632509
    15  C    0.066660
    18  O   -0.534217
    19  C    0.039773
    21  C    0.016914
    25  C   -0.001458
    29  N   -0.287847
    31  C    0.151436
    33  C    0.606220
    34  C    0.071348
    36  O   -0.511336
    37  C    0.023745
    41  C   -0.018328
    45  N   -0.287677
    47  C    0.203933
    49  C    0.570128
    50  C    0.038177
    53  O   -0.137283
    54  C    0.038459
    57  C    0.014122
    60  C    0.176201
    63  N   -0.104811
    67  O   -0.519594
 Electronic spatial extent (au):  <R**2>=          19273.0366
 Charge=              1.0000 electrons
 Dipole moment (field-independent basis, Debye):
    X=            -20.0956    Y=              5.2961    Z=              7.3279  Tot=             22.0358
 Quadrupole moment (field-independent basis, Debye-Ang):
   XX=            -86.0055   YY=           -140.8819   ZZ=            -64.0553
   XY=             -7.1295   XZ=            -76.4619   YZ=            -36.5565
 Traceless Quadrupole moment (field-independent basis, Debye-Ang):
   XX=             10.9754   YY=            -43.9010   ZZ=             32.9256
   XY=             -7.1295   XZ=            -76.4619   YZ=            -36.5565
 Octapole moment (field-independent basis, Debye-Ang**2):
  XXX=           -503.1689  YYY=           -661.7035  ZZZ=            482.1844  XYY=             -0.5699
  XXY=           -263.3531  XXZ=            618.8467  XZZ=           -280.6087  YZZ=            -14.6308
  YYZ=            -16.8197  XYZ=            -18.7810
 Hexadecapole moment (field-independent basis, Debye-Ang**3):
 XXXX=          -4861.2758 YYYY=          -5754.5601 ZZZZ=          -6723.8540 XXXY=             93.4757
 XXXZ=           -348.3546 YYYX=            130.3750 YYYZ=           1623.5365 ZZZX=            291.5715
 ZZZY=           1295.8858 XXYY=          -2349.6894 XXZZ=          -1183.8486 YYZZ=          -1261.3683
 XXYZ=            994.9063 YYXZ=            520.6626 ZZXY=            144.1577
 N-N= 3.070756570514D+03 E-N=-9.372017123844D+03  KE= 1.383486148228D+03
 Unable to Open any file for archive entry.
 1\1\GINC-QML-002\SP\RB3LYP\6-31G(d)\C19H38N5O5(1+)\KENGMITH\27-May-202
 2\0\\# B3LYP/6-31G* guess=read geom=check nosymm integral(ultrafinegri
 d)\\Candidate Structure: Conf:34 Charge calc in gas phase\\1,1\N,0,-5.
 4021832878,-0.016130829,3.7466208502\H,0,-5.463796363,-0.8813258223,4.
 2901812899\H,0,-6.1307608066,0.6236386288,4.0745589125\H,0,-5.53459650
 94,-0.226538303,2.6988147126\C,0,-4.0261816896,0.5910908053,3.73327811
 14\H,0,-3.3569524327,0.0038216955,4.3645342837\H,0,-4.0714447466,1.613
 9152438,4.1108571943\C,0,-3.6195236674,0.5382410146,2.2330816663\O,0,-
 4.4572111948,0.056168601,1.452697825\N,0,-2.4266585294,1.0187064112,1.
 9308074613\H,0,-1.749152115,1.274992027,2.6552970553\C,0,-1.7879175693
 ,0.9731550834,0.6084842486\H,0,-2.212154467,0.1338564101,0.0499572311\
 C,0,-0.2925627236,0.7410981912,0.9318887657\C,0,-1.9508811209,2.302262
 7369,-0.1656005243\H,0,-1.5532025125,3.1019407935,0.4729536285\H,0,-1.
 3016423959,2.2720165157,-1.0499434152\O,0,0.1367665839,1.055849495,2.0
 434872602\C,0,-3.3763720857,2.6641992242,-0.6277047372\H,0,-4.04475260
 33,2.6444054699,0.2460855549\C,0,-3.3662439597,4.0975284206,-1.1843003
 339\H,0,-2.6555930814,4.1884253474,-2.0143732653\H,0,-4.3590939351,4.3
 816092768,-1.5501819077\H,0,-3.0696033609,4.8222420758,-0.4171288655\C
 ,0,-3.9208124748,1.673305681,-1.6670985226\H,0,-3.2724132909,1.6402028
 437,-2.5520147594\H,0,-4.0123317125,0.6578836144,-1.2662584904\H,0,-4.
 9182140482,1.9779701801,-2.0025497476\N,0,0.4634602385,0.2591679852,-0
 .0760951001\H,0,0.0008385961,-0.035218407,-0.9276016789\C,0,1.92510695
 69,0.0999958814,-0.0037642874\H,0,2.2254511261,0.674346985,0.880108588
 \C,0,2.5755380851,0.764938412,-1.2498042884\C,0,2.387530174,-1.3723336
 877,0.1873489981\H,0,2.3971218826,-1.8506365834,-0.8010420905\O,0,3.63
 55732666,0.3695928956,-1.7192539303\C,0,3.8198816465,-1.4084273053,0.7
 47383791\H,0,3.8544322549,-0.9605599679,1.7494601686\H,0,4.1625590485,
 -2.4451762882,0.836185697\H,0,4.5112875438,-0.8719871827,0.0965250111\
 C,0,1.441238075,-2.158597843,1.1070903587\H,0,1.3535288624,-1.67807748
 ,2.0891585244\H,0,1.833772717,-3.1689560562,1.2632076551\H,0,0.4345651
 618,-2.2587627321,0.6860158868\N,0,1.8803066243,1.8107476354,-1.764825
 2533\H,0,1.0232571549,2.1255462058,-1.3310106653\C,0,2.3264993774,2.60
 77745841,-2.89675998\H,0,3.3617470756,2.927359005,-2.7447054522\C,0,1.
 4252447285,3.8318332301,-2.9815380918\C,0,2.2395715779,1.8128522267,-4
 .2414675395\H,0,3.0627778558,1.0937048208,-4.2228818004\H,0,1.30911948
 78,1.2308179147,-4.2200212734\O,0,2.0255782731,4.8434368634,-3.5822724
 599\C,0,2.2893590427,2.665784042,-5.529509258\H,0,2.7370727567,2.06022
 132,-6.3255467665\H,0,2.9647958599,3.5131230939,-5.3765492634\C,0,0.89
 82097955,3.1660385206,-6.0156487642\H,0,0.5255255364,2.4688734677,-6.7
 752521674\H,0,0.1677585998,3.1178376256,-5.1977452042\C,0,0.8578641479
 ,4.5908027356,-6.608083981\H,0,1.8359059075,4.8602434936,-7.0204678466
 \H,0,0.1390215172,4.6319338186,-7.4374590052\N,0,0.514963777,5.6111008
 844,-5.5784809766\H,0,0.6347624095,6.549299945,-5.9593165398\H,0,-0.47
 0294788,5.5258630828,-5.327933917\H,0,1.3647324423,5.3417923119,-4.203
 784417\O,0,0.2551148349,3.8100856638,-2.6152792933\\Version=ES64L-G16R
 evC.01\HF=-1396.6350851\RMSD=9.240e-10\Dipole=-7.5629998,-1.0134823,4.
 8597776\Quadrupole=8.1599673,-32.6393361,24.4793688,-5.3006422,-56.847
 5434,-27.1788532\PG=C01 [X(C19H38N5O5)]\\@
 The archive entry for this job was punched.


 WE LEARN WISDOM FROM FAILURE MUCH MORE THAN FROM SUCCESS.
 WE DISCOVER WHAT WILL DO BY FINDING OUT WHAT WILL NOT DO...
 AND HE WHO NEVER MADE A MISTAKE NEVER MADE A DISCOVERY
 Job cpu time:       0 days  0 hours  4 minutes 20.4 seconds.
 Elapsed time:       0 days  0 hours  1 minutes  5.8 seconds.
 File lengths (MBytes):  RWF=    256 Int=      0 D2E=      0 Chk=     40 Scr=     16
 Normal termination of Gaussian 16 at Fri May 27 01:49:31 2022.
