 Entering Gaussian System, Link 0=/opt/software/Gaussian/g16-AVX2-C.01/g16/g16
 Input=charge-conf-448.com
 Output=charge-conf-448.log
 Initial command:
 /opt/software/Gaussian/g16-AVX2-C.01/g16/l1.exe "/mnt/gs18/scratch/users/kengmith/Gau-125862.inp" -scrdir="/mnt/gs18/scratch/users/kengmith/"
 Entering Link 1 = /opt/software/Gaussian/g16-AVX2-C.01/g16/l1.exe PID=    125872.
  
 Copyright (c) 1988-2019, Gaussian, Inc.  All Rights Reserved.
  
 This is part of the Gaussian(R) 16 program.  It is based on
 the Gaussian(R) 09 system (copyright 2009, Gaussian, Inc.),
 the Gaussian(R) 03 system (copyright 2003, Gaussian, Inc.),
 the Gaussian(R) 98 system (copyright 1998, Gaussian, Inc.),
 the Gaussian(R) 94 system (copyright 1995, Gaussian, Inc.),
 the Gaussian 92(TM) system (copyright 1992, Gaussian, Inc.),
 the Gaussian 90(TM) system (copyright 1990, Gaussian, Inc.),
 the Gaussian 88(TM) system (copyright 1988, Gaussian, Inc.),
 the Gaussian 86(TM) system (copyright 1986, Carnegie Mellon
 University), and the Gaussian 82(TM) system (copyright 1983,
 Carnegie Mellon University). Gaussian is a federally registered
 trademark of Gaussian, Inc.
  
 This software contains proprietary and confidential information,
 including trade secrets, belonging to Gaussian, Inc.
  
 This software is provided under written license and may be
 used, copied, transmitted, or stored only in accord with that
 written license.
  
 The following legend is applicable only to US Government
 contracts under FAR:
  
                    RESTRICTED RIGHTS LEGEND
  
 Use, reproduction and disclosure by the US Government is
 subject to restrictions as set forth in subparagraphs (a)
 and (c) of the Commercial Computer Software - Restricted
 Rights clause in FAR 52.227-19.
  
 Gaussian, Inc.
 340 Quinnipiac St., Bldg. 40, Wallingford CT 06492
  
  
 ---------------------------------------------------------------
 Warning -- This program may not be used in any manner that
 competes with the business of Gaussian, Inc. or will provide
 assistance to any competitor of Gaussian, Inc.  The licensee
 of this program is prohibited from giving any competitor of
 Gaussian, Inc. access to this program.  By using this program,
 the user acknowledges that Gaussian, Inc. is engaged in the
 business of creating and licensing software in the field of
 computational chemistry and represents and warrants to the
 licensee that it is not a competitor of Gaussian, Inc. and that
 it will not use this program in any manner prohibited above.
 ---------------------------------------------------------------
  

 Cite this work as:
 Gaussian 16, Revision C.01,
 M. J. Frisch, G. W. Trucks, H. B. Schlegel, G. E. Scuseria, 
 M. A. Robb, J. R. Cheeseman, G. Scalmani, V. Barone, 
 G. A. Petersson, H. Nakatsuji, X. Li, M. Caricato, A. V. Marenich, 
 J. Bloino, B. G. Janesko, R. Gomperts, B. Mennucci, H. P. Hratchian, 
 J. V. Ortiz, A. F. Izmaylov, J. L. Sonnenberg, D. Williams-Young, 
 F. Ding, F. Lipparini, F. Egidi, J. Goings, B. Peng, A. Petrone, 
 T. Henderson, D. Ranasinghe, V. G. Zakrzewski, J. Gao, N. Rega, 
 G. Zheng, W. Liang, M. Hada, M. Ehara, K. Toyota, R. Fukuda, 
 J. Hasegawa, M. Ishida, T. Nakajima, Y. Honda, O. Kitao, H. Nakai, 
 T. Vreven, K. Throssell, J. A. Montgomery, Jr., J. E. Peralta, 
 F. Ogliaro, M. J. Bearpark, J. J. Heyd, E. N. Brothers, K. N. Kudin, 
 V. N. Staroverov, T. A. Keith, R. Kobayashi, J. Normand, 
 K. Raghavachari, A. P. Rendell, J. C. Burant, S. S. Iyengar, 
 J. Tomasi, M. Cossi, J. M. Millam, M. Klene, C. Adamo, R. Cammi, 
 J. W. Ochterski, R. L. Martin, K. Morokuma, O. Farkas, 
 J. B. Foresman, and D. J. Fox, Gaussian, Inc., Wallingford CT, 2019.
 
 ******************************************
 Gaussian 16:  ES64L-G16RevC.01  3-Jul-2019
                27-May-2022 
 ******************************************
 %mem=8gb
 %nproc=4
 Will use up to    4 processors via shared memory.
 %chk=conf-448.chk
 -------------------------------------------------------------------
 # B3LYP/6-31G* guess=read geom=check nosymm integral(ultrafinegrid)
 -------------------------------------------------------------------
 1/29=2,38=1,172=1/1;
 2/12=2,15=1,40=1/2;
 3/5=1,6=6,7=1,11=2,14=-4,25=1,30=1,74=-5,75=-5,116=-2/1,2,3;
 4/5=1/1;
 5/5=2,38=6/2;
 6/7=2,8=2,9=2,10=2,28=1/1;
 99/5=1,9=1/99;
 ------------------------------------------------------
 Candidate Structure: Conf:448 Charge calc in gas phase
 ------------------------------------------------------
 Structure from the checkpoint file:  "conf-448.chk"
 Charge =  1 Multiplicity = 1
 Redundant internal coordinates found in file.  (old form).
 N,0,-0.3538601731,5.4185098836,0.5754787194
 H,0,-0.5417020897,5.4033389181,1.5808772951
 H,0,0.9185799169,4.495976025,0.2498278154
 H,0,-0.2047159605,6.3911089779,0.3096676184
 C,0,-1.5431779563,4.8700433715,-0.1094559671
 H,0,-1.2835302258,4.6575719095,-1.1483636968
 H,0,-2.3910563626,5.5676011888,-0.0883100996
 C,0,-1.9683675678,3.6106587163,0.6530882305
 O,0,-2.1421092809,3.6589015823,1.8641911244
 N,0,-2.1534389194,2.4954747335,-0.1138107731
 H,0,-1.7328590044,2.5166050004,-1.0357528053
 C,0,-2.418355281,1.1804693836,0.48043977
 H,0,-2.4926659976,1.3506391858,1.5554137073
 C,0,-1.1476172225,0.327869867,0.3051277851
 C,0,-3.7137311972,0.5457235527,-0.0530639886
 H,0,-3.6567092327,0.4467073157,-1.1489539442
 H,0,-3.7888382789,-0.4740023261,0.350520715
 O,0,-0.2546280016,0.3343378391,1.1560602452
 C,0,-5.003869574,1.32232525,0.2860499828
 H,0,-4.9011125962,2.33275698,-0.1339352661
 C,0,-6.2060204225,0.6485056578,-0.3928253822
 H,0,-6.3611133411,-0.366339174,-0.0046499222
 H,0,-7.1249862239,1.2155507092,-0.2096955936
 H,0,-6.0701702402,0.5749570927,-1.4789209469
 C,0,-5.2314857757,1.4551599488,1.8000534789
 H,0,-5.2649939337,0.4693058629,2.2822324018
 H,0,-4.4521187139,2.050167419,2.286934111
 H,0,-6.1888896867,1.9496609778,1.9976537215
 N,0,-1.0230524309,-0.3696104423,-0.8598893129
 H,0,-1.763990791,-0.327344367,-1.5451466954
 C,0,0.1605411536,-1.1770771674,-1.1721605743
 H,0,0.508868228,-1.5784988909,-0.2138978763
 C,0,1.2749914842,-0.2261007268,-1.6876463443
 C,0,-0.192273212,-2.3804369022,-2.0752230056
 H,0,-0.9228366044,-2.9527865009,-1.4868167337
 O,0,1.5697978951,-0.1658429403,-2.8982214093
 C,0,-0.8598148796,-2.0256875671,-3.4152669396
 H,0,-0.1962742632,-1.4333099918,-4.0489031468
 H,0,-1.1207927368,-2.9458629466,-3.9487439891
 H,0,-1.796150005,-1.4674942697,-3.2892787139
 C,0,1.0341092051,-3.2835893247,-2.281737122
 H,0,1.7952786356,-2.7870646475,-2.8924828352
 H,0,0.7423158862,-4.2061861432,-2.7936064923
 H,0,1.4912570443,-3.5665962367,-1.3263012053
 N,0,1.8514934166,0.478509053,-0.6939371912
 H,0,1.3840617393,0.3346203778,0.2087385121
 C,0,2.5407186964,1.7772856427,-0.752992257
 H,0,3.1151240525,1.8544326771,0.1740952093
 C,0,1.4653548554,2.8873144234,-0.7421678793
 C,0,3.4852760553,1.9796699661,-1.9447572277
 H,0,2.8744770061,2.0386300028,-2.8495827361
 H,0,3.9428613497,2.9695848395,-1.8245587117
 O,0,0.5087240499,2.8428846327,-1.5071147301
 C,0,4.596917921,0.9199056781,-2.0484147949
 H,0,4.1867882548,-0.0794403974,-1.8576675918
 H,0,5.3237605859,1.1017051228,-1.2493135317
 C,0,5.3367453934,0.9213683791,-3.4024058906
 H,0,5.437089469,1.9455170861,-3.7883279146
 H,0,6.3607888475,0.5542896731,-3.2676849227
 C,0,4.7248946893,0.0194155302,-4.4737374939
 H,0,5.2956558464,0.0588003873,-5.4050139042
 H,0,4.679111473,-1.0194613787,-4.1362695904
 N,0,3.2976312997,0.3987026735,-4.8095406171
 H,0,2.9281503342,-0.1876567418,-5.5646461679
 H,0,2.6446695438,0.2689943804,-3.9677518853
 H,0,3.2351206505,1.372680958,-5.1213978938
 O,0,1.7161842439,3.8181297407,0.1458621004
 Recover connectivity data from disk.
                           ----------------------------
                           !    Current Parameters    !
                           ! (Angstroms and Degrees)  !
 --------------------------                            --------------------------
 ! Name  Definition              Value                                          !
 --------------------------------------------------------------------------------
 ! R1    R(1,2)                  1.0229                                         !
 ! R2    R(1,3)                  1.6051                                         !
 ! R3    R(1,4)                  1.0192                                         !
 ! R4    R(1,5)                  1.478                                          !
 ! R5    R(5,6)                  1.0917                                         !
 ! R6    R(5,7)                  1.0981                                         !
 ! R7    R(5,8)                  1.5324                                         !
 ! R8    R(8,9)                  1.2245                                         !
 ! R9    R(8,10)                 1.366                                          !
 ! R10   R(10,11)                1.0136                                         !
 ! R11   R(10,12)                1.4672                                         !
 ! R12   R(12,13)                1.0909                                         !
 ! R13   R(12,14)                1.5403                                         !
 ! R14   R(12,15)                1.538                                          !
 ! R15   R(14,18)                1.2335                                         !
 ! R16   R(14,29)                1.3635                                         !
 ! R17   R(15,16)                1.1018                                         !
 ! R18   R(15,17)                1.0993                                         !
 ! R19   R(15,19)                1.5436                                         !
 ! R20   R(19,20)                1.0991                                         !
 ! R21   R(19,21)                1.5363                                         !
 ! R22   R(19,25)                1.5368                                         !
 ! R23   R(21,22)                1.0976                                         !
 ! R24   R(21,23)                1.0953                                         !
 ! R25   R(21,24)                1.097                                          !
 ! R26   R(25,26)                1.098                                          !
 ! R27   R(25,27)                1.0948                                         !
 ! R28   R(25,28)                1.0955                                         !
 ! R29   R(29,30)                1.0101                                         !
 ! R30   R(29,31)                1.4664                                         !
 ! R31   R(31,32)                1.0958                                         !
 ! R32   R(31,33)                1.5531                                         !
 ! R33   R(31,34)                1.5453                                         !
 ! R34   R(33,36)                1.2474                                         !
 ! R35   R(33,45)                1.3477                                         !
 ! R36   R(34,35)                1.0989                                         !
 ! R37   R(34,37)                1.5386                                         !
 ! R38   R(34,41)                1.537                                          !
 ! R39   R(37,38)                1.0921                                         !
 ! R40   R(37,39)                1.0952                                         !
 ! R41   R(37,40)                1.0973                                         !
 ! R42   R(41,42)                1.095                                          !
 ! R43   R(41,43)                1.0947                                         !
 ! R44   R(41,44)                1.0963                                         !
 ! R45   R(45,46)                1.0267                                         !
 ! R46   R(45,47)                1.4715                                         !
 ! R47   R(47,48)                1.0933                                         !
 ! R48   R(47,49)                1.5455                                         !
 ! R49   R(47,50)                1.5341                                         !
 ! R50   R(49,53)                1.2257                                         !
 ! R51   R(49,67)                1.3107                                         !
 ! R52   R(50,51)                1.0933                                         !
 ! R53   R(50,52)                1.0972                                         !
 ! R54   R(50,54)                1.5393                                         !
 ! R55   R(54,55)                1.0969                                         !
 ! R56   R(54,56)                1.0954                                         !
 ! R57   R(54,57)                1.5429                                         !
 ! R58   R(57,58)                1.099                                          !
 ! R59   R(57,59)                1.0962                                         !
 ! R60   R(57,60)                1.5283                                         !
 ! R61   R(60,61)                1.093                                          !
 ! R62   R(60,62)                1.0933                                         !
 ! R63   R(60,63)                1.5145                                         !
 ! R64   R(63,64)                1.0249                                         !
 ! R65   R(63,65)                1.0732                                         !
 ! R66   R(63,66)                1.0246                                         !
 ! A1    A(2,1,3)              109.6621                                         !
 ! A2    A(2,1,4)              107.2987                                         !
 ! A3    A(2,1,5)              107.591                                          !
 ! A4    A(3,1,4)              112.3056                                         !
 ! A5    A(3,1,5)              109.3063                                         !
 ! A6    A(4,1,5)              110.5486                                         !
 ! A7    A(1,5,6)              108.7744                                         !
 ! A8    A(1,5,7)              112.1266                                         !
 ! A9    A(1,5,8)              107.316                                          !
 ! A10   A(6,5,7)              109.0004                                         !
 ! A11   A(6,5,8)              112.3074                                         !
 ! A12   A(7,5,8)              107.351                                          !
 ! A13   A(5,8,9)              119.9453                                         !
 ! A14   A(5,8,10)             115.4134                                         !
 ! A15   A(9,8,10)             124.6269                                         !
 ! A16   A(8,10,11)            115.9396                                         !
 ! A17   A(8,10,12)            121.9232                                         !
 ! A18   A(11,10,12)           117.5184                                         !
 ! A19   A(10,12,13)           105.7601                                         !
 ! A20   A(10,12,14)           107.5216                                         !
 ! A21   A(10,12,15)           112.4255                                         !
 ! A22   A(13,12,14)           104.756                                          !
 ! A23   A(13,12,15)           110.4151                                         !
 ! A24   A(14,12,15)           115.2724                                         !
 ! A25   A(12,14,18)           121.0534                                         !
 ! A26   A(12,14,29)           117.1139                                         !
 ! A27   A(18,14,29)           121.7323                                         !
 ! A28   A(12,15,16)           109.7858                                         !
 ! A29   A(12,15,17)           108.2423                                         !
 ! A30   A(12,15,19)           114.8414                                         !
 ! A31   A(16,15,17)           106.579                                          !
 ! A32   A(16,15,19)           107.8774                                         !
 ! A33   A(17,15,19)           109.2055                                         !
 ! A34   A(15,19,20)           107.485                                          !
 ! A35   A(15,19,21)           109.6508                                         !
 ! A36   A(15,19,25)           112.5648                                         !
 ! A37   A(20,19,21)           107.9111                                         !
 ! A38   A(20,19,25)           108.1106                                         !
 ! A39   A(21,19,25)           110.9386                                         !
 ! A40   A(19,21,22)           111.0906                                         !
 ! A41   A(19,21,23)           110.8303                                         !
 ! A42   A(19,21,24)           111.7158                                         !
 ! A43   A(22,21,23)           107.5185                                         !
 ! A44   A(22,21,24)           107.7975                                         !
 ! A45   A(23,21,24)           107.7071                                         !
 ! A46   A(19,25,26)           111.0732                                         !
 ! A47   A(19,25,27)           112.3142                                         !
 ! A48   A(19,25,28)           110.2521                                         !
 ! A49   A(26,25,27)           108.3261                                         !
 ! A50   A(26,25,28)           107.4221                                         !
 ! A51   A(27,25,28)           107.2536                                         !
 ! A52   A(14,29,30)           119.4198                                         !
 ! A53   A(14,29,31)           122.5025                                         !
 ! A54   A(30,29,31)           118.0743                                         !
 ! A55   A(29,31,32)           105.7871                                         !
 ! A56   A(29,31,33)           108.2213                                         !
 ! A57   A(29,31,34)           111.6508                                         !
 ! A58   A(32,31,33)           106.6465                                         !
 ! A59   A(32,31,34)           107.3585                                         !
 ! A60   A(33,31,34)           116.5307                                         !
 ! A61   A(31,33,36)           121.4178                                         !
 ! A62   A(31,33,45)           112.4797                                         !
 ! A63   A(36,33,45)           126.1012                                         !
 ! A64   A(31,34,35)           104.15                                           !
 ! A65   A(31,34,37)           115.3715                                         !
 ! A66   A(31,34,41)           110.7274                                         !
 ! A67   A(35,34,37)           107.3384                                         !
 ! A68   A(35,34,41)           107.2392                                         !
 ! A69   A(37,34,41)           111.3862                                         !
 ! A70   A(34,37,38)           111.5177                                         !
 ! A71   A(34,37,39)           109.5071                                         !
 ! A72   A(34,37,40)           112.799                                          !
 ! A73   A(38,37,39)           108.5362                                         !
 ! A74   A(38,37,40)           108.0067                                         !
 ! A75   A(39,37,40)           106.2592                                         !
 ! A76   A(34,41,42)           111.2944                                         !
 ! A77   A(34,41,43)           110.2047                                         !
 ! A78   A(34,41,44)           111.5495                                         !
 ! A79   A(42,41,43)           107.8581                                         !
 ! A80   A(42,41,44)           108.2576                                         !
 ! A81   A(43,41,44)           107.5231                                         !
 ! A82   A(33,45,46)           112.3498                                         !
 ! A83   A(33,45,47)           129.2141                                         !
 ! A84   A(46,45,47)           111.8537                                         !
 ! A85   A(45,47,48)           105.9215                                         !
 ! A86   A(45,47,49)           107.9227                                         !
 ! A87   A(45,47,50)           115.849                                          !
 ! A88   A(48,47,49)           107.9946                                         !
 ! A89   A(48,47,50)           109.0227                                         !
 ! A90   A(49,47,50)           109.8216                                         !
 ! A91   A(47,49,53)           120.8407                                         !
 ! A92   A(47,49,67)           112.4356                                         !
 ! A93   A(53,49,67)           126.7236                                         !
 ! A94   A(47,50,51)           107.8225                                         !
 ! A95   A(47,50,52)           106.9005                                         !
 ! A96   A(47,50,54)           113.9616                                         !
 ! A97   A(51,50,52)           105.9631                                         !
 ! A98   A(51,50,54)           112.6345                                         !
 ! A99   A(52,50,54)           109.108                                          !
 ! A100  A(50,54,55)           110.2115                                         !
 ! A101  A(50,54,56)           108.4086                                         !
 ! A102  A(50,54,57)           113.8728                                         !
 ! A103  A(55,54,56)           105.8091                                         !
 ! A104  A(55,54,57)           109.4349                                         !
 ! A105  A(56,54,57)           108.7749                                         !
 ! A106  A(54,57,58)           110.6591                                         !
 ! A107  A(54,57,59)           109.8634                                         !
 ! A108  A(54,57,60)           115.0012                                         !
 ! A109  A(58,57,59)           105.6595                                         !
 ! A110  A(58,57,60)           109.8987                                         !
 ! A111  A(59,57,60)           105.2204                                         !
 ! A112  A(57,60,61)           111.5284                                         !
 ! A113  A(57,60,62)           111.1735                                         !
 ! A114  A(57,60,63)           112.6389                                         !
 ! A115  A(61,60,62)           108.6097                                         !
 ! A116  A(61,60,63)           107.1085                                         !
 ! A117  A(62,60,63)           105.4831                                         !
 ! A118  A(60,63,64)           111.0881                                         !
 ! A119  A(60,63,65)           111.6657                                         !
 ! A120  A(60,63,66)           111.2875                                         !
 ! A121  A(64,63,65)           106.8215                                         !
 ! A122  A(64,63,66)           107.3131                                         !
 ! A123  A(65,63,66)           108.4518                                         !
 ! D1    D(2,1,5,6)           -166.8465                                         !
 ! D2    D(2,1,5,7)             72.528                                          !
 ! D3    D(2,1,5,8)            -45.1164                                         !
 ! D4    D(3,1,5,6)            -47.8289                                         !
 ! D5    D(3,1,5,7)           -168.4544                                         !
 ! D6    D(3,1,5,8)             73.9012                                         !
 ! D7    D(4,1,5,6)             76.2827                                         !
 ! D8    D(4,1,5,7)            -44.3428                                         !
 ! D9    D(4,1,5,8)           -161.9872                                         !
 ! D10   D(1,5,8,9)             52.1673                                         !
 ! D11   D(1,5,8,10)          -129.1496                                         !
 ! D12   D(6,5,8,9)            171.6595                                         !
 ! D13   D(6,5,8,10)            -9.6574                                         !
 ! D14   D(7,5,8,9)            -68.5468                                         !
 ! D15   D(7,5,8,10)           110.1363                                         !
 ! D16   D(5,8,10,11)           17.9711                                         !
 ! D17   D(5,8,10,12)          173.2559                                         !
 ! D18   D(9,8,10,11)         -163.4157                                         !
 ! D19   D(9,8,10,12)           -8.1309                                         !
 ! D20   D(8,10,12,13)           3.9013                                         !
 ! D21   D(8,10,12,14)        -107.6066                                         !
 ! D22   D(8,10,12,15)         124.4696                                         !
 ! D23   D(11,10,12,13)        158.817                                          !
 ! D24   D(11,10,12,14)         47.3091                                         !
 ! D25   D(11,10,12,15)        -80.6146                                         !
 ! D26   D(10,12,14,18)         89.207                                          !
 ! D27   D(10,12,14,29)        -87.2111                                         !
 ! D28   D(13,12,14,18)        -22.984                                          !
 ! D29   D(13,12,14,29)        160.5979                                         !
 ! D30   D(15,12,14,18)       -144.5341                                         !
 ! D31   D(15,12,14,29)         39.0478                                         !
 ! D32   D(10,12,15,16)         58.0111                                         !
 ! D33   D(10,12,15,17)        173.9783                                         !
 ! D34   D(10,12,15,19)        -63.7275                                         !
 ! D35   D(13,12,15,16)        175.8589                                         !
 ! D36   D(13,12,15,17)        -68.1738                                         !
 ! D37   D(13,12,15,19)         54.1203                                         !
 ! D38   D(14,12,15,16)        -65.6999                                         !
 ! D39   D(14,12,15,17)         50.2674                                         !
 ! D40   D(14,12,15,19)        172.5615                                         !
 ! D41   D(12,14,29,30)         -1.7121                                         !
 ! D42   D(12,14,29,31)        177.6011                                         !
 ! D43   D(18,14,29,30)       -178.1041                                         !
 ! D44   D(18,14,29,31)          1.2091                                         !
 ! D45   D(12,15,19,20)         58.5315                                         !
 ! D46   D(12,15,19,21)        175.5878                                         !
 ! D47   D(12,15,19,25)        -60.4043                                         !
 ! D48   D(16,15,19,20)        -64.2386                                         !
 ! D49   D(16,15,19,21)         52.8177                                         !
 ! D50   D(16,15,19,25)        176.8257                                         !
 ! D51   D(17,15,19,20)       -179.6961                                         !
 ! D52   D(17,15,19,21)        -62.6399                                         !
 ! D53   D(17,15,19,25)         61.3681                                         !
 ! D54   D(15,19,21,22)         63.6203                                         !
 ! D55   D(15,19,21,23)       -176.9124                                         !
 ! D56   D(15,19,21,24)        -56.7926                                         !
 ! D57   D(20,19,21,22)       -179.5912                                         !
 ! D58   D(20,19,21,23)        -60.1239                                         !
 ! D59   D(20,19,21,24)         59.9959                                         !
 ! D60   D(25,19,21,22)        -61.3324                                         !
 ! D61   D(25,19,21,23)         58.1349                                         !
 ! D62   D(25,19,21,24)        178.2546                                         !
 ! D63   D(15,19,25,26)        -57.1247                                         !
 ! D64   D(15,19,25,27)         64.3676                                         !
 ! D65   D(15,19,25,28)       -176.0836                                         !
 ! D66   D(20,19,25,26)       -175.6944                                         !
 ! D67   D(20,19,25,27)        -54.2022                                         !
 ! D68   D(20,19,25,28)         65.3467                                         !
 ! D69   D(21,19,25,26)         66.1678                                         !
 ! D70   D(21,19,25,27)       -172.3399                                         !
 ! D71   D(21,19,25,28)        -52.791                                          !
 ! D72   D(14,29,31,32)         33.4751                                         !
 ! D73   D(14,29,31,33)        -80.509                                          !
 ! D74   D(14,29,31,34)        149.9502                                         !
 ! D75   D(30,29,31,32)       -147.2028                                         !
 ! D76   D(30,29,31,33)         98.813                                          !
 ! D77   D(30,29,31,34)        -30.7278                                         !
 ! D78   D(29,31,33,36)       -104.855                                          !
 ! D79   D(29,31,33,45)         75.5377                                         !
 ! D80   D(32,31,33,36)        141.7303                                         !
 ! D81   D(32,31,33,45)        -37.877                                          !
 ! D82   D(34,31,33,36)         21.9072                                         !
 ! D83   D(34,31,33,45)       -157.7002                                         !
 ! D84   D(29,31,34,35)        -59.7504                                         !
 ! D85   D(29,31,34,37)         57.6176                                         !
 ! D86   D(29,31,34,41)       -174.7233                                         !
 ! D87   D(32,31,34,35)         55.7656                                         !
 ! D88   D(32,31,34,37)        173.1336                                         !
 ! D89   D(32,31,34,41)        -59.2072                                         !
 ! D90   D(33,31,34,35)        175.206                                          !
 ! D91   D(33,31,34,37)        -67.426                                          !
 ! D92   D(33,31,34,41)         60.2332                                         !
 ! D93   D(31,33,45,46)         -6.1093                                         !
 ! D94   D(31,33,45,47)       -154.8638                                         !
 ! D95   D(36,33,45,46)        174.3054                                         !
 ! D96   D(36,33,45,47)         25.5508                                         !
 ! D97   D(31,34,37,38)         63.1839                                         !
 ! D98   D(31,34,37,39)       -176.6704                                         !
 ! D99   D(31,34,37,40)        -58.5636                                         !
 ! D100  D(35,34,37,38)        178.7459                                         !
 ! D101  D(35,34,37,39)        -61.1083                                         !
 ! D102  D(35,34,37,40)         56.9985                                         !
 ! D103  D(41,34,37,38)        -64.1446                                         !
 ! D104  D(41,34,37,39)         56.0011                                         !
 ! D105  D(41,34,37,40)        174.1079                                         !
 ! D106  D(31,34,41,42)        -68.8512                                         !
 ! D107  D(31,34,41,43)        171.5346                                         !
 ! D108  D(31,34,41,44)         52.1756                                         !
 ! D109  D(35,34,41,42)        178.1261                                         !
 ! D110  D(35,34,41,43)         58.5118                                         !
 ! D111  D(35,34,41,44)        -60.8472                                         !
 ! D112  D(37,34,41,42)         60.9565                                         !
 ! D113  D(37,34,41,43)        -58.6578                                         !
 ! D114  D(37,34,41,44)       -178.0168                                         !
 ! D115  D(33,45,47,48)       -163.2403                                         !
 ! D116  D(33,45,47,49)         81.2986                                         !
 ! D117  D(33,45,47,50)        -42.2541                                         !
 ! D118  D(46,45,47,48)         47.8833                                         !
 ! D119  D(46,45,47,49)        -67.5779                                         !
 ! D120  D(46,45,47,50)        168.8695                                         !
 ! D121  D(45,47,49,53)        -49.5254                                         !
 ! D122  D(45,47,49,67)        130.5551                                         !
 ! D123  D(48,47,49,53)       -163.6169                                         !
 ! D124  D(48,47,49,67)         16.4636                                         !
 ! D125  D(50,47,49,53)         77.6083                                         !
 ! D126  D(50,47,49,67)       -102.3112                                         !
 ! D127  D(45,47,50,51)         68.4779                                         !
 ! D128  D(45,47,50,52)       -177.9687                                         !
 ! D129  D(45,47,50,54)        -57.3433                                         !
 ! D130  D(48,47,50,51)       -172.217                                          !
 ! D131  D(48,47,50,52)        -58.6636                                         !
 ! D132  D(48,47,50,54)         61.9618                                         !
 ! D133  D(49,47,50,51)        -54.0772                                         !
 ! D134  D(49,47,50,52)         59.4762                                         !
 ! D135  D(49,47,50,54)       -179.8984                                         !
 ! D136  D(47,50,54,55)         43.1353                                         !
 ! D137  D(47,50,54,56)        -72.2368                                         !
 ! D138  D(47,50,54,57)        166.5488                                         !
 ! D139  D(51,50,54,55)        -80.1079                                         !
 ! D140  D(51,50,54,56)        164.52                                           !
 ! D141  D(51,50,54,57)         43.3056                                         !
 ! D142  D(52,50,54,55)        162.5182                                         !
 ! D143  D(52,50,54,56)         47.146                                          !
 ! D144  D(52,50,54,57)        -74.0684                                         !
 ! D145  D(50,54,57,58)         35.7128                                         !
 ! D146  D(50,54,57,59)        152.0042                                         !
 ! D147  D(50,54,57,60)        -89.5404                                         !
 ! D148  D(55,54,57,58)        159.5472                                         !
 ! D149  D(55,54,57,59)        -84.1613                                         !
 ! D150  D(55,54,57,60)         34.2941                                         !
 ! D151  D(56,54,57,58)        -85.2975                                         !
 ! D152  D(56,54,57,59)         30.994                                          !
 ! D153  D(56,54,57,60)        149.4494                                         !
 ! D154  D(54,57,60,61)       -179.6444                                         !
 ! D155  D(54,57,60,62)        -58.2659                                         !
 ! D156  D(54,57,60,63)         59.8803                                         !
 ! D157  D(58,57,60,61)         54.7079                                         !
 ! D158  D(58,57,60,62)        176.0863                                         !
 ! D159  D(58,57,60,63)        -65.7675                                         !
 ! D160  D(59,57,60,61)        -58.6191                                         !
 ! D161  D(59,57,60,62)         62.7593                                         !
 ! D162  D(59,57,60,63)       -179.0944                                         !
 ! D163  D(57,60,63,64)        176.9374                                         !
 ! D164  D(57,60,63,65)        -63.9234                                         !
 ! D165  D(57,60,63,66)         57.4282                                         !
 ! D166  D(61,60,63,64)         53.9553                                         !
 ! D167  D(61,60,63,65)        173.0945                                         !
 ! D168  D(61,60,63,66)        -65.5539                                         !
 ! D169  D(62,60,63,64)        -61.6222                                         !
 ! D170  D(62,60,63,65)         57.517                                          !
 ! D171  D(62,60,63,66)        178.8686                                         !
 --------------------------------------------------------------------------------
 Symmetry turned off by external request.
 Stoichiometry    C19H38N5O5(1+)
 Framework group  C1[X(C19H38N5O5)]
 Deg. of freedom   195
 Full point group                 C1      NOp   1
                          Input orientation:                          
 ---------------------------------------------------------------------
 Center     Atomic      Atomic             Coordinates (Angstroms)
 Number     Number       Type             X           Y           Z
 ---------------------------------------------------------------------
      1          7           0       -0.353860    5.418510    0.575479
      2          1           0       -0.541702    5.403339    1.580877
      3          1           0        0.918580    4.495976    0.249828
      4          1           0       -0.204716    6.391109    0.309668
      5          6           0       -1.543178    4.870043   -0.109456
      6          1           0       -1.283530    4.657572   -1.148364
      7          1           0       -2.391056    5.567601   -0.088310
      8          6           0       -1.968368    3.610659    0.653088
      9          8           0       -2.142109    3.658902    1.864191
     10          7           0       -2.153439    2.495475   -0.113811
     11          1           0       -1.732859    2.516605   -1.035753
     12          6           0       -2.418355    1.180469    0.480440
     13          1           0       -2.492666    1.350639    1.555414
     14          6           0       -1.147617    0.327870    0.305128
     15          6           0       -3.713731    0.545724   -0.053064
     16          1           0       -3.656709    0.446707   -1.148954
     17          1           0       -3.788838   -0.474002    0.350521
     18          8           0       -0.254628    0.334338    1.156060
     19          6           0       -5.003870    1.322325    0.286050
     20          1           0       -4.901113    2.332757   -0.133935
     21          6           0       -6.206020    0.648506   -0.392825
     22          1           0       -6.361113   -0.366339   -0.004650
     23          1           0       -7.124986    1.215551   -0.209696
     24          1           0       -6.070170    0.574957   -1.478921
     25          6           0       -5.231486    1.455160    1.800053
     26          1           0       -5.264994    0.469306    2.282232
     27          1           0       -4.452119    2.050167    2.286934
     28          1           0       -6.188890    1.949661    1.997654
     29          7           0       -1.023052   -0.369610   -0.859889
     30          1           0       -1.763991   -0.327344   -1.545147
     31          6           0        0.160541   -1.177077   -1.172161
     32          1           0        0.508868   -1.578499   -0.213898
     33          6           0        1.274991   -0.226101   -1.687646
     34          6           0       -0.192273   -2.380437   -2.075223
     35          1           0       -0.922837   -2.952787   -1.486817
     36          8           0        1.569798   -0.165843   -2.898221
     37          6           0       -0.859815   -2.025688   -3.415267
     38          1           0       -0.196274   -1.433310   -4.048903
     39          1           0       -1.120793   -2.945863   -3.948744
     40          1           0       -1.796150   -1.467494   -3.289279
     41          6           0        1.034109   -3.283589   -2.281737
     42          1           0        1.795279   -2.787065   -2.892483
     43          1           0        0.742316   -4.206186   -2.793606
     44          1           0        1.491257   -3.566596   -1.326301
     45          7           0        1.851493    0.478509   -0.693937
     46          1           0        1.384062    0.334620    0.208739
     47          6           0        2.540719    1.777286   -0.752992
     48          1           0        3.115124    1.854433    0.174095
     49          6           0        1.465355    2.887314   -0.742168
     50          6           0        3.485276    1.979670   -1.944757
     51          1           0        2.874477    2.038630   -2.849583
     52          1           0        3.942861    2.969585   -1.824559
     53          8           0        0.508724    2.842885   -1.507115
     54          6           0        4.596918    0.919906   -2.048415
     55          1           0        4.186788   -0.079440   -1.857668
     56          1           0        5.323761    1.101705   -1.249314
     57          6           0        5.336745    0.921368   -3.402406
     58          1           0        5.437089    1.945517   -3.788328
     59          1           0        6.360789    0.554290   -3.267685
     60          6           0        4.724895    0.019416   -4.473737
     61          1           0        5.295656    0.058800   -5.405014
     62          1           0        4.679111   -1.019461   -4.136270
     63          7           0        3.297631    0.398703   -4.809541
     64          1           0        2.928150   -0.187657   -5.564646
     65          1           0        2.644670    0.268994   -3.967752
     66          1           0        3.235121    1.372681   -5.121398
     67          8           0        1.716184    3.818130    0.145862
 ---------------------------------------------------------------------
 Rotational constants (GHZ):           0.2234087           0.1067930           0.0809697
 Standard basis: 6-31G(d) (6D, 7F)
   511 basis functions,   964 primitive gaussians,   511 cartesian basis functions
   113 alpha electrons      113 beta electrons
       nuclear repulsion energy      3219.6746410210 Hartrees.
 NAtoms=   67 NActive=   67 NUniq=   67 SFac= 1.00D+00 NAtFMM=   60 NAOKFM=T Big=T
 Integral buffers will be    131072 words long.
 Raffenetti 2 integral format.
 Two-electron integral symmetry is turned off.
 One-electron integrals computed using PRISM.
 NBasis=   511 RedAO= T EigKep=  1.89D-03  NBF=   511
 NBsUse=   511 1.00D-06 EigRej= -1.00D+00 NBFU=   511
 Initial guess from the checkpoint file:  "conf-448.chk"
 B after Tr=     0.000000    0.000000    0.000000
         Rot=    1.000000    0.000000    0.000000    0.000000 Ang=   0.00 deg.
 Requested convergence on RMS density matrix=1.00D-08 within 128 cycles.
 Requested convergence on MAX density matrix=1.00D-06.
 Requested convergence on             energy=1.00D-06.
 No special actions if energy rises.
 SCF Done:  E(RB3LYP) =  -1396.66886819     A.U. after    1 cycles
            NFock=  1  Conv=0.14D-08     -V/T= 2.0095

 **********************************************************************

            Population analysis using the SCF Density.

 **********************************************************************

 Alpha  occ. eigenvalues --  -19.25971 -19.25416 -19.22710 -19.22008 -19.20185
 Alpha  occ. eigenvalues --  -14.58638 -14.47292 -14.47031 -14.44961 -14.44276
 Alpha  occ. eigenvalues --  -10.41566 -10.40936 -10.39089 -10.38997 -10.37473
 Alpha  occ. eigenvalues --  -10.34597 -10.34221 -10.33084 -10.31827 -10.31308
 Alpha  occ. eigenvalues --  -10.31242 -10.31182 -10.29917 -10.27279 -10.27263
 Alpha  occ. eigenvalues --  -10.27205 -10.26113 -10.23877 -10.23300  -1.18007
 Alpha  occ. eigenvalues --   -1.16190  -1.13899  -1.13311  -1.12083  -1.09424
 Alpha  occ. eigenvalues --   -1.04410  -1.02984  -1.01159  -0.99586  -0.93911
 Alpha  occ. eigenvalues --   -0.90948  -0.89586  -0.88565  -0.84483  -0.83540
 Alpha  occ. eigenvalues --   -0.80711  -0.78484  -0.78132  -0.77348  -0.74595
 Alpha  occ. eigenvalues --   -0.74129  -0.73227  -0.72527  -0.71409  -0.70513
 Alpha  occ. eigenvalues --   -0.69029  -0.67783  -0.67218  -0.66544  -0.64719
 Alpha  occ. eigenvalues --   -0.63826  -0.62947  -0.62055  -0.60991  -0.60325
 Alpha  occ. eigenvalues --   -0.59592  -0.58824  -0.58257  -0.57465  -0.56890
 Alpha  occ. eigenvalues --   -0.56022  -0.55748  -0.55356  -0.54493  -0.54274
 Alpha  occ. eigenvalues --   -0.53370  -0.53131  -0.52639  -0.52214  -0.51919
 Alpha  occ. eigenvalues --   -0.51357  -0.50921  -0.50323  -0.49830  -0.49664
 Alpha  occ. eigenvalues --   -0.49064  -0.48247  -0.48160  -0.47596  -0.47555
 Alpha  occ. eigenvalues --   -0.47157  -0.46485  -0.45878  -0.45849  -0.45545
 Alpha  occ. eigenvalues --   -0.44888  -0.44725  -0.43965  -0.43888  -0.43631
 Alpha  occ. eigenvalues --   -0.43372  -0.40522  -0.40139  -0.39557  -0.39406
 Alpha  occ. eigenvalues --   -0.39260  -0.38764  -0.37151  -0.36710  -0.35723
 Alpha  occ. eigenvalues --   -0.35418  -0.34041  -0.33059
 Alpha virt. eigenvalues --   -0.11691  -0.10655  -0.09132  -0.07229  -0.05903
 Alpha virt. eigenvalues --   -0.05388  -0.03344  -0.03167  -0.01950  -0.01429
 Alpha virt. eigenvalues --   -0.00189  -0.00020   0.01182   0.01726   0.02175
 Alpha virt. eigenvalues --    0.02318   0.02614   0.03179   0.03677   0.04556
 Alpha virt. eigenvalues --    0.04717   0.05175   0.05615   0.05743   0.05895
 Alpha virt. eigenvalues --    0.06129   0.06281   0.06784   0.07035   0.07493
 Alpha virt. eigenvalues --    0.08115   0.08281   0.08686   0.08985   0.09176
 Alpha virt. eigenvalues --    0.09447   0.09762   0.09860   0.10507   0.11019
 Alpha virt. eigenvalues --    0.11315   0.11887   0.12033   0.12346   0.12807
 Alpha virt. eigenvalues --    0.13063   0.13458   0.13704   0.14042   0.14167
 Alpha virt. eigenvalues --    0.14764   0.15517   0.15897   0.16339   0.17078
 Alpha virt. eigenvalues --    0.17419   0.17750   0.18431   0.18444   0.19181
 Alpha virt. eigenvalues --    0.19494   0.22510   0.23815   0.24995   0.25977
 Alpha virt. eigenvalues --    0.27387   0.29859   0.31103   0.32782   0.33956
 Alpha virt. eigenvalues --    0.35110   0.37416   0.38292   0.38581   0.39779
 Alpha virt. eigenvalues --    0.40211   0.40941   0.41566   0.41870   0.42620
 Alpha virt. eigenvalues --    0.43526   0.44296   0.44437   0.44841   0.45165
 Alpha virt. eigenvalues --    0.45341   0.45886   0.46739   0.46984   0.47695
 Alpha virt. eigenvalues --    0.48148   0.48697   0.50422   0.51166   0.51572
 Alpha virt. eigenvalues --    0.52304   0.52694   0.53310   0.53991   0.54576
 Alpha virt. eigenvalues --    0.55393   0.55730   0.56331   0.56951   0.57228
 Alpha virt. eigenvalues --    0.58046   0.58554   0.58727   0.59216   0.60122
 Alpha virt. eigenvalues --    0.60630   0.61772   0.62258   0.63186   0.64033
 Alpha virt. eigenvalues --    0.64242   0.64673   0.65064   0.65528   0.65975
 Alpha virt. eigenvalues --    0.66885   0.67645   0.68446   0.69040   0.69239
 Alpha virt. eigenvalues --    0.70890   0.71127   0.71508   0.72050   0.72409
 Alpha virt. eigenvalues --    0.72758   0.73417   0.73694   0.74145   0.74756
 Alpha virt. eigenvalues --    0.75177   0.76129   0.76638   0.77091   0.77393
 Alpha virt. eigenvalues --    0.77566   0.77997   0.78351   0.78704   0.79247
 Alpha virt. eigenvalues --    0.79539   0.80260   0.80676   0.81006   0.81671
 Alpha virt. eigenvalues --    0.82116   0.82623   0.83389   0.83526   0.83857
 Alpha virt. eigenvalues --    0.84061   0.84425   0.84568   0.84708   0.85351
 Alpha virt. eigenvalues --    0.85873   0.86107   0.86371   0.87381   0.87804
 Alpha virt. eigenvalues --    0.88315   0.89054   0.89405   0.90020   0.90099
 Alpha virt. eigenvalues --    0.90696   0.91194   0.91681   0.92470   0.93112
 Alpha virt. eigenvalues --    0.93755   0.95055   0.95771   0.95948   0.97095
 Alpha virt. eigenvalues --    0.98275   0.99356   0.99822   1.01691   1.02832
 Alpha virt. eigenvalues --    1.03537   1.04052   1.04906   1.05985   1.08057
 Alpha virt. eigenvalues --    1.09278   1.09720   1.10184   1.11503   1.13066
 Alpha virt. eigenvalues --    1.13986   1.14987   1.16898   1.17457   1.18772
 Alpha virt. eigenvalues --    1.21609   1.22713   1.23759   1.25093   1.25512
 Alpha virt. eigenvalues --    1.26708   1.28646   1.29121   1.30560   1.32394
 Alpha virt. eigenvalues --    1.33047   1.33608   1.34660   1.35304   1.37055
 Alpha virt. eigenvalues --    1.38109   1.38751   1.40296   1.40977   1.41183
 Alpha virt. eigenvalues --    1.42066   1.44410   1.46154   1.47158   1.48013
 Alpha virt. eigenvalues --    1.50160   1.50240   1.52338   1.52944   1.55119
 Alpha virt. eigenvalues --    1.56437   1.57014   1.57410   1.59789   1.59875
 Alpha virt. eigenvalues --    1.60524   1.62226   1.62675   1.62972   1.64737
 Alpha virt. eigenvalues --    1.65340   1.66154   1.66432   1.68149   1.68326
 Alpha virt. eigenvalues --    1.69057   1.69402   1.70096   1.70786   1.71364
 Alpha virt. eigenvalues --    1.71934   1.72449   1.72800   1.73872   1.73972
 Alpha virt. eigenvalues --    1.75099   1.75513   1.76148   1.76485   1.76695
 Alpha virt. eigenvalues --    1.77871   1.78796   1.79638   1.80030   1.81348
 Alpha virt. eigenvalues --    1.82587   1.82863   1.83044   1.83818   1.84007
 Alpha virt. eigenvalues --    1.84653   1.86047   1.86979   1.87407   1.88558
 Alpha virt. eigenvalues --    1.89508   1.90617   1.91725   1.91929   1.92154
 Alpha virt. eigenvalues --    1.94036   1.94907   1.95013   1.95402   1.96086
 Alpha virt. eigenvalues --    1.97520   1.98296   1.99450   2.00188   2.00523
 Alpha virt. eigenvalues --    2.01304   2.02102   2.02860   2.03726   2.04061
 Alpha virt. eigenvalues --    2.05316   2.06309   2.07212   2.08569   2.08728
 Alpha virt. eigenvalues --    2.09722   2.10677   2.13001   2.15517   2.15838
 Alpha virt. eigenvalues --    2.16827   2.17874   2.18197   2.19126   2.20048
 Alpha virt. eigenvalues --    2.20537   2.20803   2.22000   2.23395   2.24054
 Alpha virt. eigenvalues --    2.24410   2.26956   2.28135   2.29058   2.29309
 Alpha virt. eigenvalues --    2.30536   2.31510   2.32208   2.33356   2.34866
 Alpha virt. eigenvalues --    2.35454   2.36779   2.39170   2.39618   2.40577
 Alpha virt. eigenvalues --    2.41295   2.42739   2.43508   2.44258   2.44663
 Alpha virt. eigenvalues --    2.44980   2.45345   2.48180   2.49623   2.51963
 Alpha virt. eigenvalues --    2.52252   2.54325   2.55590   2.55980   2.57911
 Alpha virt. eigenvalues --    2.57984   2.59070   2.61271   2.63627   2.64852
 Alpha virt. eigenvalues --    2.66454   2.68210   2.68339   2.69919   2.70214
 Alpha virt. eigenvalues --    2.73501   2.76671   2.79909   2.82963   2.85754
 Alpha virt. eigenvalues --    2.90139   2.90850   2.91829   2.94009   2.95718
 Alpha virt. eigenvalues --    3.02285   3.03904   3.04498   3.07495   3.69846
 Alpha virt. eigenvalues --    3.78077   3.87997   3.92556   3.95446   3.99714
 Alpha virt. eigenvalues --    4.02136   4.07765   4.08661   4.10168   4.10883
 Alpha virt. eigenvalues --    4.13857   4.18423   4.18945   4.20863   4.22142
 Alpha virt. eigenvalues --    4.24045   4.28144   4.30226   4.32101   4.33828
 Alpha virt. eigenvalues --    4.39464   4.39957   4.45980   4.46749   4.49921
 Alpha virt. eigenvalues --    4.52429   4.61671   4.62877
          Condensed to atoms (all electrons):
 Mulliken charges:
               1
     1  N   -0.788081
     2  H    0.361357
     3  H    0.476147
     4  H    0.342997
     5  C   -0.221772
     6  H    0.175912
     7  H    0.186677
     8  C    0.605116
     9  O   -0.499014
    10  N   -0.599204
    11  H    0.351926
    12  C   -0.072819
    13  H    0.225251
    14  C    0.619149
    15  C   -0.271801
    16  H    0.113315
    17  H    0.152589
    18  O   -0.531163
    19  C   -0.070035
    20  H    0.134504
    21  C   -0.446792
    22  H    0.147499
    23  H    0.158813
    24  H    0.137151
    25  C   -0.467978
    26  H    0.143814
    27  H    0.174621
    28  H    0.156708
    29  N   -0.614884
    30  H    0.350226
    31  C   -0.069815
    32  H    0.193317
    33  C    0.662022
    34  C   -0.093273
    35  H    0.158848
    36  O   -0.601035
    37  C   -0.463655
    38  H    0.156918
    39  H    0.167663
    40  H    0.138631
    41  C   -0.458618
    42  H    0.134652
    43  H    0.168286
    44  H    0.158229
    45  N   -0.602435
    46  H    0.399392
    47  C   -0.035990
    48  H    0.192107
    49  C    0.596229
    50  C   -0.297174
    51  H    0.131130
    52  H    0.181290
    53  O   -0.523419
    54  C   -0.286090
    55  H    0.163776
    56  H    0.180640
    57  C   -0.289820
    58  H    0.167311
    59  H    0.196840
    60  C   -0.197498
    61  H    0.209543
    62  H    0.214431
    63  N   -0.771965
    64  H    0.407476
    65  H    0.472909
    66  H    0.400325
    67  O   -0.591408
 Sum of Mulliken charges =   1.00000
 Mulliken charges with hydrogens summed into heavy atoms:
               1
     1  N   -0.083726
     5  C    0.140817
     8  C    0.605116
     9  O   -0.499014
    10  N   -0.247278
    12  C    0.152433
    14  C    0.619149
    15  C   -0.005897
    18  O   -0.531163
    19  C    0.064469
    21  C   -0.003328
    25  C    0.007165
    29  N   -0.264658
    31  C    0.123502
    33  C    0.662022
    34  C    0.065576
    36  O   -0.601035
    37  C   -0.000443
    41  C    0.002549
    45  N   -0.203043
    47  C    0.156117
    49  C    0.596229
    50  C    0.015246
    53  O   -0.523419
    54  C    0.058326
    57  C    0.074331
    60  C    0.226475
    63  N    0.508745
    67  O   -0.115261
 Electronic spatial extent (au):  <R**2>=          15582.4678
 Charge=              1.0000 electrons
 Dipole moment (field-independent basis, Debye):
    X=             10.0583    Y=              4.3599    Z=            -17.9414  Tot=             21.0255
 Quadrupole moment (field-independent basis, Debye-Ang):
   XX=           -101.9344   YY=           -130.7960   ZZ=           -102.6671
   XY=              3.1908   XZ=            -53.3334   YZ=             -6.4187
 Traceless Quadrupole moment (field-independent basis, Debye-Ang):
   XX=              9.8648   YY=            -18.9968   ZZ=              9.1320
   XY=              3.1908   XZ=            -53.3334   YZ=             -6.4187
 Octapole moment (field-independent basis, Debye-Ang**2):
  XXX=            248.4292  YYY=           -313.6619  ZZZ=            114.1187  XYY=             -2.0819
  XXY=           -141.2296  XXZ=            -68.7409  XZZ=            301.5081  YZZ=           -176.1525
  YYZ=            152.0794  XYZ=            -15.0676
 Hexadecapole moment (field-independent basis, Debye-Ang**3):
 XXXX=          -8202.3344 YYYY=          -4153.0326 ZZZZ=          -2354.4862 XXXY=            442.6906
 XXXZ=            721.0837 YYYX=            228.5469 YYYZ=           -300.5209 ZZZX=            384.5225
 ZZZY=           -540.0156 XXYY=          -2551.5541 XXZZ=          -1280.6222 YYZZ=          -1675.4077
 XXYZ=           -275.8055 YYXZ=            595.4419 ZZXY=            290.2951
 N-N= 3.219674641021D+03 E-N=-9.667893116844D+03  KE= 1.383488807321D+03
 Unable to Open any file for archive entry.
 1\1\GINC-AMR-095\SP\RB3LYP\6-31G(d)\C19H38N5O5(1+)\KENGMITH\27-May-202
 2\0\\# B3LYP/6-31G* guess=read geom=check nosymm integral(ultrafinegri
 d)\\Candidate Structure: Conf:448 Charge calc in gas phase\\1,1\N,0,-0
 .3538601731,5.4185098836,0.5754787194\H,0,-0.5417020897,5.4033389181,1
 .5808772951\H,0,0.9185799169,4.495976025,0.2498278154\H,0,-0.204715960
 5,6.3911089779,0.3096676184\C,0,-1.5431779563,4.8700433715,-0.10945596
 71\H,0,-1.2835302258,4.6575719095,-1.1483636968\H,0,-2.3910563626,5.56
 76011888,-0.0883100996\C,0,-1.9683675678,3.6106587163,0.6530882305\O,0
 ,-2.1421092809,3.6589015823,1.8641911244\N,0,-2.1534389194,2.495474733
 5,-0.1138107731\H,0,-1.7328590044,2.5166050004,-1.0357528053\C,0,-2.41
 8355281,1.1804693836,0.48043977\H,0,-2.4926659976,1.3506391858,1.55541
 37073\C,0,-1.1476172225,0.327869867,0.3051277851\C,0,-3.7137311972,0.5
 457235527,-0.0530639886\H,0,-3.6567092327,0.4467073157,-1.1489539442\H
 ,0,-3.7888382789,-0.4740023261,0.350520715\O,0,-0.2546280016,0.3343378
 391,1.1560602452\C,0,-5.003869574,1.32232525,0.2860499828\H,0,-4.90111
 25962,2.33275698,-0.1339352661\C,0,-6.2060204225,0.6485056578,-0.39282
 53822\H,0,-6.3611133411,-0.366339174,-0.0046499222\H,0,-7.1249862239,1
 .2155507092,-0.2096955936\H,0,-6.0701702402,0.5749570927,-1.4789209469
 \C,0,-5.2314857757,1.4551599488,1.8000534789\H,0,-5.2649939337,0.46930
 58629,2.2822324018\H,0,-4.4521187139,2.050167419,2.286934111\H,0,-6.18
 88896867,1.9496609778,1.9976537215\N,0,-1.0230524309,-0.3696104423,-0.
 8598893129\H,0,-1.763990791,-0.327344367,-1.5451466954\C,0,0.160541153
 6,-1.1770771674,-1.1721605743\H,0,0.508868228,-1.5784988909,-0.2138978
 763\C,0,1.2749914842,-0.2261007268,-1.6876463443\C,0,-0.192273212,-2.3
 804369022,-2.0752230056\H,0,-0.9228366044,-2.9527865009,-1.4868167337\
 O,0,1.5697978951,-0.1658429403,-2.8982214093\C,0,-0.8598148796,-2.0256
 875671,-3.4152669396\H,0,-0.1962742632,-1.4333099918,-4.0489031468\H,0
 ,-1.1207927368,-2.9458629466,-3.9487439891\H,0,-1.796150005,-1.4674942
 697,-3.2892787139\C,0,1.0341092051,-3.2835893247,-2.281737122\H,0,1.79
 52786356,-2.7870646475,-2.8924828352\H,0,0.7423158862,-4.2061861432,-2
 .7936064923\H,0,1.4912570443,-3.5665962367,-1.3263012053\N,0,1.8514934
 166,0.478509053,-0.6939371912\H,0,1.3840617393,0.3346203778,0.20873851
 21\C,0,2.5407186964,1.7772856427,-0.752992257\H,0,3.1151240525,1.85443
 26771,0.1740952093\C,0,1.4653548554,2.8873144234,-0.7421678793\C,0,3.4
 852760553,1.9796699661,-1.9447572277\H,0,2.8744770061,2.0386300028,-2.
 8495827361\H,0,3.9428613497,2.9695848395,-1.8245587117\O,0,0.508724049
 9,2.8428846327,-1.5071147301\C,0,4.596917921,0.9199056781,-2.048414794
 9\H,0,4.1867882548,-0.0794403974,-1.8576675918\H,0,5.3237605859,1.1017
 051228,-1.2493135317\C,0,5.3367453934,0.9213683791,-3.4024058906\H,0,5
 .437089469,1.9455170861,-3.7883279146\H,0,6.3607888475,0.5542896731,-3
 .2676849227\C,0,4.7248946893,0.0194155302,-4.4737374939\H,0,5.29565584
 64,0.0588003873,-5.4050139042\H,0,4.679111473,-1.0194613787,-4.1362695
 904\N,0,3.2976312997,0.3987026735,-4.8095406171\H,0,2.9281503342,-0.18
 76567418,-5.5646461679\H,0,2.6446695438,0.2689943804,-3.9677518853\H,0
 ,3.2351206505,1.372680958,-5.1213978938\O,0,1.7161842439,3.8181297407,
 0.1458621004\\Version=ES64L-G16RevC.01\HF=-1396.6688682\RMSD=1.411e-09
 \Dipole=3.9977696,-0.3793896,-5.1255196\Quadrupole=7.3342206,-14.12367
 25,6.7894519,2.3722843,-39.6520845,-4.7721727\PG=C01 [X(C19H38N5O5)]\\
 @
 The archive entry for this job was punched.


 RESEARCH IS WHAT I AM DOING WHEN I DON'T KNOW WHAT I AM DOING.
     -- WERNER VON BRAUN
 Job cpu time:       0 days  0 hours  1 minutes  9.4 seconds.
 Elapsed time:       0 days  0 hours  0 minutes 17.9 seconds.
 File lengths (MBytes):  RWF=    256 Int=      0 D2E=      0 Chk=     40 Scr=     16
 Normal termination of Gaussian 16 at Fri May 27 01:48:49 2022.
