 Entering Gaussian System, Link 0=/opt/software/Gaussian/g16-AVX2-C.01/g16/g16
 Input=charge-conf-950.com
 Output=charge-conf-950.log
 Initial command:
 /opt/software/Gaussian/g16-AVX2-C.01/g16/l1.exe "/mnt/gs18/scratch/users/kengmith/Gau-111185.inp" -scrdir="/mnt/gs18/scratch/users/kengmith/"
 Entering Link 1 = /opt/software/Gaussian/g16-AVX2-C.01/g16/l1.exe PID=    111195.
  
 Copyright (c) 1988-2019, Gaussian, Inc.  All Rights Reserved.
  
 This is part of the Gaussian(R) 16 program.  It is based on
 the Gaussian(R) 09 system (copyright 2009, Gaussian, Inc.),
 the Gaussian(R) 03 system (copyright 2003, Gaussian, Inc.),
 the Gaussian(R) 98 system (copyright 1998, Gaussian, Inc.),
 the Gaussian(R) 94 system (copyright 1995, Gaussian, Inc.),
 the Gaussian 92(TM) system (copyright 1992, Gaussian, Inc.),
 the Gaussian 90(TM) system (copyright 1990, Gaussian, Inc.),
 the Gaussian 88(TM) system (copyright 1988, Gaussian, Inc.),
 the Gaussian 86(TM) system (copyright 1986, Carnegie Mellon
 University), and the Gaussian 82(TM) system (copyright 1983,
 Carnegie Mellon University). Gaussian is a federally registered
 trademark of Gaussian, Inc.
  
 This software contains proprietary and confidential information,
 including trade secrets, belonging to Gaussian, Inc.
  
 This software is provided under written license and may be
 used, copied, transmitted, or stored only in accord with that
 written license.
  
 The following legend is applicable only to US Government
 contracts under FAR:
  
                    RESTRICTED RIGHTS LEGEND
  
 Use, reproduction and disclosure by the US Government is
 subject to restrictions as set forth in subparagraphs (a)
 and (c) of the Commercial Computer Software - Restricted
 Rights clause in FAR 52.227-19.
  
 Gaussian, Inc.
 340 Quinnipiac St., Bldg. 40, Wallingford CT 06492
  
  
 ---------------------------------------------------------------
 Warning -- This program may not be used in any manner that
 competes with the business of Gaussian, Inc. or will provide
 assistance to any competitor of Gaussian, Inc.  The licensee
 of this program is prohibited from giving any competitor of
 Gaussian, Inc. access to this program.  By using this program,
 the user acknowledges that Gaussian, Inc. is engaged in the
 business of creating and licensing software in the field of
 computational chemistry and represents and warrants to the
 licensee that it is not a competitor of Gaussian, Inc. and that
 it will not use this program in any manner prohibited above.
 ---------------------------------------------------------------
  

 Cite this work as:
 Gaussian 16, Revision C.01,
 M. J. Frisch, G. W. Trucks, H. B. Schlegel, G. E. Scuseria, 
 M. A. Robb, J. R. Cheeseman, G. Scalmani, V. Barone, 
 G. A. Petersson, H. Nakatsuji, X. Li, M. Caricato, A. V. Marenich, 
 J. Bloino, B. G. Janesko, R. Gomperts, B. Mennucci, H. P. Hratchian, 
 J. V. Ortiz, A. F. Izmaylov, J. L. Sonnenberg, D. Williams-Young, 
 F. Ding, F. Lipparini, F. Egidi, J. Goings, B. Peng, A. Petrone, 
 T. Henderson, D. Ranasinghe, V. G. Zakrzewski, J. Gao, N. Rega, 
 G. Zheng, W. Liang, M. Hada, M. Ehara, K. Toyota, R. Fukuda, 
 J. Hasegawa, M. Ishida, T. Nakajima, Y. Honda, O. Kitao, H. Nakai, 
 T. Vreven, K. Throssell, J. A. Montgomery, Jr., J. E. Peralta, 
 F. Ogliaro, M. J. Bearpark, J. J. Heyd, E. N. Brothers, K. N. Kudin, 
 V. N. Staroverov, T. A. Keith, R. Kobayashi, J. Normand, 
 K. Raghavachari, A. P. Rendell, J. C. Burant, S. S. Iyengar, 
 J. Tomasi, M. Cossi, J. M. Millam, M. Klene, C. Adamo, R. Cammi, 
 J. W. Ochterski, R. L. Martin, K. Morokuma, O. Farkas, 
 J. B. Foresman, and D. J. Fox, Gaussian, Inc., Wallingford CT, 2019.
 
 ******************************************
 Gaussian 16:  ES64L-G16RevC.01  3-Jul-2019
                27-May-2022 
 ******************************************
 %mem=8gb
 %nproc=4
 Will use up to    4 processors via shared memory.
 %chk=conf-950.chk
 -------------------------------------------------------------------
 # B3LYP/6-31G* guess=read geom=check nosymm integral(ultrafinegrid)
 -------------------------------------------------------------------
 1/29=2,38=1,172=1/1;
 2/12=2,15=1,40=1/2;
 3/5=1,6=6,7=1,11=2,14=-4,25=1,30=1,74=-5,75=-5,116=-2/1,2,3;
 4/5=1/1;
 5/5=2,38=6/2;
 6/7=2,8=2,9=2,10=2,28=1/1;
 99/5=1,9=1/99;
 ------------------------------------------------------
 Candidate Structure: Conf:950 Charge calc in gas phase
 ------------------------------------------------------
 Structure from the checkpoint file:  "conf-950.chk"
 Charge =  1 Multiplicity = 1
 Redundant internal coordinates found in file.  (old form).
 N,0,-5.5546998022,-1.5101441426,3.9347533251
 H,0,-6.3745346395,-1.0219938429,4.3044561919
 H,0,-5.6642374767,-1.6796905921,2.8725304162
 H,0,-5.4595402125,-2.4019821686,4.4275225439
 C,0,-4.3012718586,-0.6795717593,3.9412143327
 H,0,-3.5302722531,-1.1768699925,4.5320340947
 H,0,-4.5101446731,0.3002443753,4.3738862144
 C,0,-3.9247186193,-0.5878845177,2.4346473752
 O,0,-4.6918208456,-1.162824813,1.6415761985
 N,0,-2.8321900134,0.085880564,2.1358210859
 H,0,-2.2170740382,0.5073897038,2.8415756361
 C,0,-2.2879565863,0.274177961,0.7839204302
 H,0,-2.33915431,-0.6816754319,0.2547037817
 C,0,-0.8169445625,0.6763678062,1.0533703632
 C,0,-3.0898165371,1.3582374248,0.0203813215
 H,0,-4.1504905965,1.0896074644,0.1092700098
 H,0,-2.953528156,2.3100857403,0.5500309062
 O,0,-0.5046531422,1.0985265547,2.1744950462
 C,0,-2.7617328675,1.5441144068,-1.4768006855
 H,0,-1.7032167658,1.8156578331,-1.5795178891
 C,0,-3.0142514156,0.2702954529,-2.299207444
 H,0,-4.0574073292,-0.057828438,-2.2062932979
 H,0,-2.8140814842,0.4544644296,-3.3595587345
 H,0,-2.3744361231,-0.5682006385,-1.997828107
 C,0,-3.5905756566,2.7148353906,-2.0292880912
 H,0,-4.6655062067,2.5025248494,-1.96602244
 H,0,-3.3971984399,3.6412887148,-1.4761880517
 H,0,-3.3496142689,2.8966113704,-3.0818881462
 N,0,0.0336203452,0.5397356312,0.0304842455
 H,0,-0.2744083322,0.2552332143,-0.8980547467
 C,0,1.4222267487,0.9932893484,0.0558787281
 H,0,1.4689610908,1.9187736446,0.6409676959
 C,0,1.7597157944,1.2813762235,-1.4240059455
 C,0,2.3535374014,-0.0593754001,0.7345590861
 H,0,1.8493375952,-0.2849307014,1.683131196
 O,0,1.0484019816,0.8190241674,-2.3220760284
 C,0,2.4652113596,-1.3563898767,-0.0779217406
 H,0,2.9885377701,-1.1935365251,-1.0271896082
 H,0,3.0291436623,-2.1075611759,0.4853912293
 H,0,1.4809664236,-1.7793222958,-0.3063951758
 C,0,3.7361326392,0.5128090225,1.0817341192
 H,0,4.3465981221,0.7005681375,0.1919731576
 H,0,4.2873625958,-0.2001735773,1.7039839793
 H,0,3.6566214035,1.4480833846,1.6498351277
 N,0,2.8494402057,2.0365746979,-1.6521022101
 H,0,3.414483492,2.3955009642,-0.8897320441
 C,0,3.3804457914,2.3078932406,-2.9822186232
 H,0,3.1770695186,1.4492051071,-3.6253058876
 C,0,4.8843745977,2.507598286,-2.8507738081
 C,0,2.732730959,3.5857880451,-3.6088434281
 H,0,1.7337145372,3.2911797251,-3.9466327616
 H,0,2.5896516097,4.314190148,-2.8007182782
 O,0,5.5168352499,2.2433092404,-3.9827902565
 C,0,3.5204342902,4.2473560794,-4.7635240553
 H,0,2.8045765307,4.7605621002,-5.4158080202
 H,0,3.9878120486,3.4702147086,-5.3755830196
 C,0,4.5852415716,5.2800456041,-4.291781095
 H,0,4.1420173148,6.2814429175,-4.3434905012
 H,0,4.8243929888,5.1258509819,-3.2321199214
 C,0,5.9106034803,5.3033769637,-5.0816547542
 H,0,5.7448880955,4.9832516966,-6.1161074797
 H,0,6.298326146,6.3303547226,-5.1230404945
 N,0,6.9283289908,4.3913036563,-4.4922923023
 H,0,7.7505439864,4.3458455766,-5.0933065587
 H,0,7.2447246182,4.7642581048,-3.5966363209
 H,0,6.2751246897,2.9337271933,-4.1224112903
 O,0,5.3902334463,2.9612620836,-1.8344468552
 Recover connectivity data from disk.
                           ----------------------------
                           !    Current Parameters    !
                           ! (Angstroms and Degrees)  !
 --------------------------                            --------------------------
 ! Name  Definition              Value                                          !
 --------------------------------------------------------------------------------
 ! R1    R(1,2)                  1.0233                                         !
 ! R2    R(1,3)                  1.0812                                         !
 ! R3    R(1,4)                  1.0234                                         !
 ! R4    R(1,5)                  1.5037                                         !
 ! R5    R(5,6)                  1.0912                                         !
 ! R6    R(5,7)                  1.0913                                         !
 ! R7    R(5,8)                  1.5556                                         !
 ! R8    R(8,9)                  1.2442                                         !
 ! R9    R(8,10)                 1.3179                                         !
 ! R10   R(10,11)                1.0267                                         !
 ! R11   R(10,12)                1.4694                                         !
 ! R12   R(12,13)                1.0938                                         !
 ! R13   R(12,14)                1.5486                                         !
 ! R14   R(12,15)                1.5496                                         !
 ! R15   R(14,18)                1.238                                          !
 ! R16   R(14,29)                1.3373                                         !
 ! R17   R(15,16)                1.0978                                         !
 ! R18   R(15,17)                1.0978                                         !
 ! R19   R(15,19)                1.5439                                         !
 ! R20   R(19,20)                1.0976                                         !
 ! R21   R(19,21)                1.5371                                         !
 ! R22   R(19,25)                1.5371                                         !
 ! R23   R(21,22)                1.0975                                         !
 ! R24   R(21,23)                1.0947                                         !
 ! R25   R(21,24)                1.0969                                         !
 ! R26   R(25,26)                1.0975                                         !
 ! R27   R(25,27)                1.0962                                         !
 ! R28   R(25,28)                1.095                                          !
 ! R29   R(29,30)                1.0188                                         !
 ! R30   R(29,31)                1.461                                          !
 ! R31   R(31,32)                1.0959                                         !
 ! R32   R(31,33)                1.545                                          !
 ! R33   R(31,34)                1.5608                                         !
 ! R34   R(33,36)                1.2354                                         !
 ! R35   R(33,45)                1.3453                                         !
 ! R36   R(34,35)                1.0977                                         !
 ! R37   R(34,37)                1.5345                                         !
 ! R38   R(34,41)                1.5361                                         !
 ! R39   R(37,38)                1.0961                                         !
 ! R40   R(37,39)                1.0953                                         !
 ! R41   R(37,40)                1.0954                                         !
 ! R42   R(41,42)                1.0953                                         !
 ! R43   R(41,43)                1.0952                                         !
 ! R44   R(41,44)                1.0972                                         !
 ! R45   R(45,46)                1.0145                                         !
 ! R46   R(45,47)                1.4577                                         !
 ! R47   R(47,48)                1.0919                                         !
 ! R48   R(47,49)                1.5228                                         !
 ! R49   R(47,50)                1.5637                                         !
 ! R50   R(49,53)                1.3234                                         !
 ! R51   R(49,67)                1.2225                                         !
 ! R52   R(50,51)                1.095                                          !
 ! R53   R(50,52)                1.0973                                         !
 ! R54   R(50,54)                1.5464                                         !
 ! R55   R(54,55)                1.096                                          !
 ! R56   R(54,56)                1.0941                                         !
 ! R57   R(54,57)                1.5565                                         !
 ! R58   R(57,58)                1.0963                                         !
 ! R59   R(57,59)                1.0972                                         !
 ! R60   R(57,60)                1.5431                                         !
 ! R61   R(60,61)                1.0955                                         !
 ! R62   R(60,62)                1.0985                                         !
 ! R63   R(60,63)                1.4883                                         !
 ! R64   R(63,64)                1.0195                                         !
 ! R65   R(63,65)                1.0205                                         !
 ! R66   R(63,66)                1.6395                                         !
 ! A1    A(2,1,3)              110.4004                                         !
 ! A2    A(2,1,4)              108.4374                                         !
 ! A3    A(2,1,5)              113.7533                                         !
 ! A4    A(3,1,4)              110.232                                          !
 ! A5    A(3,1,5)              100.0954                                         !
 ! A6    A(4,1,5)              113.6907                                         !
 ! A7    A(1,5,6)              109.85                                           !
 ! A8    A(1,5,7)              109.7616                                         !
 ! A9    A(1,5,8)              103.3073                                         !
 ! A10   A(6,5,7)              109.2531                                         !
 ! A11   A(6,5,8)              112.345                                          !
 ! A12   A(7,5,8)              112.1724                                         !
 ! A13   A(5,8,9)              116.1581                                         !
 ! A14   A(5,8,10)             116.7688                                         !
 ! A15   A(9,8,10)             127.073                                          !
 ! A16   A(8,10,11)            123.4139                                         !
 ! A17   A(8,10,12)            125.5311                                         !
 ! A18   A(11,10,12)           110.9718                                         !
 ! A19   A(10,12,13)           108.4103                                         !
 ! A20   A(10,12,14)           103.0034                                         !
 ! A21   A(10,12,15)           110.568                                          !
 ! A22   A(13,12,14)           110.8306                                         !
 ! A23   A(13,12,15)           110.4102                                         !
 ! A24   A(14,12,15)           113.3025                                         !
 ! A25   A(12,14,18)           119.0608                                         !
 ! A26   A(12,14,29)           116.3932                                         !
 ! A27   A(18,14,29)           124.5458                                         !
 ! A28   A(12,15,16)           106.7919                                         !
 ! A29   A(12,15,17)           107.7348                                         !
 ! A30   A(12,15,19)           116.8775                                         !
 ! A31   A(16,15,17)           107.0415                                         !
 ! A32   A(16,15,19)           108.2581                                         !
 ! A33   A(17,15,19)           109.6999                                         !
 ! A34   A(15,19,20)           108.9936                                         !
 ! A35   A(15,19,21)           112.591                                          !
 ! A36   A(15,19,25)           109.0051                                         !
 ! A37   A(20,19,21)           108.2629                                         !
 ! A38   A(20,19,25)           107.3344                                         !
 ! A39   A(21,19,25)           110.5041                                         !
 ! A40   A(19,21,22)           111.0153                                         !
 ! A41   A(19,21,23)           110.4134                                         !
 ! A42   A(19,21,24)           112.9945                                         !
 ! A43   A(22,21,23)           107.825                                          !
 ! A44   A(22,21,24)           107.614                                          !
 ! A45   A(23,21,24)           106.7428                                         !
 ! A46   A(19,25,26)           111.1039                                         !
 ! A47   A(19,25,27)           111.544                                          !
 ! A48   A(19,25,28)           110.6879                                         !
 ! A49   A(26,25,27)           107.8896                                         !
 ! A50   A(26,25,28)           107.6406                                         !
 ! A51   A(27,25,28)           107.8124                                         !
 ! A52   A(14,29,30)           122.2309                                         !
 ! A53   A(14,29,31)           124.0203                                         !
 ! A54   A(30,29,31)           112.947                                          !
 ! A55   A(29,31,32)           108.1779                                         !
 ! A56   A(29,31,33)           104.4096                                         !
 ! A57   A(29,31,34)           111.4263                                         !
 ! A58   A(32,31,33)           110.1576                                         !
 ! A59   A(32,31,34)           108.1776                                         !
 ! A60   A(33,31,34)           114.3262                                         !
 ! A61   A(31,33,36)           120.0497                                         !
 ! A62   A(31,33,45)           116.3609                                         !
 ! A63   A(36,33,45)           123.5879                                         !
 ! A64   A(31,34,35)           103.9027                                         !
 ! A65   A(31,34,37)           112.5348                                         !
 ! A66   A(31,34,41)           112.5895                                         !
 ! A67   A(35,34,37)           108.4992                                         !
 ! A68   A(35,34,41)           107.1378                                         !
 ! A69   A(37,34,41)           111.6542                                         !
 ! A70   A(34,37,38)           111.5733                                         !
 ! A71   A(34,37,39)           110.1717                                         !
 ! A72   A(34,37,40)           111.8015                                         !
 ! A73   A(38,37,39)           107.5467                                         !
 ! A74   A(38,37,40)           107.802                                          !
 ! A75   A(39,37,40)           107.7654                                         !
 ! A76   A(34,41,42)           112.4533                                         !
 ! A77   A(34,41,43)           109.813                                          !
 ! A78   A(34,41,44)           111.6744                                         !
 ! A79   A(42,41,43)           107.0159                                         !
 ! A80   A(42,41,44)           108.3544                                         !
 ! A81   A(43,41,44)           107.2919                                         !
 ! A82   A(33,45,46)           121.4882                                         !
 ! A83   A(33,45,47)           123.661                                          !
 ! A84   A(46,45,47)           114.6422                                         !
 ! A85   A(45,47,48)           108.8562                                         !
 ! A86   A(45,47,49)           107.783                                          !
 ! A87   A(45,47,50)           111.5234                                         !
 ! A88   A(48,47,49)           109.7499                                         !
 ! A89   A(48,47,50)           109.2387                                         !
 ! A90   A(49,47,50)           109.6636                                         !
 ! A91   A(47,49,53)           111.8367                                         !
 ! A92   A(47,49,67)           121.9422                                         !
 ! A93   A(53,49,67)           125.9777                                         !
 ! A94   A(47,50,51)           106.3596                                         !
 ! A95   A(47,50,52)           107.5394                                         !
 ! A96   A(47,50,54)           115.9658                                         !
 ! A97   A(51,50,52)           106.6683                                         !
 ! A98   A(51,50,54)           110.4566                                         !
 ! A99   A(52,50,54)           109.4104                                         !
 ! A100  A(50,54,55)           108.1796                                         !
 ! A101  A(50,54,56)           109.3558                                         !
 ! A102  A(50,54,57)           113.9529                                         !
 ! A103  A(55,54,56)           106.1811                                         !
 ! A104  A(55,54,57)           108.4521                                         !
 ! A105  A(56,54,57)           110.4002                                         !
 ! A106  A(54,57,58)           108.3698                                         !
 ! A107  A(54,57,59)           110.4                                            !
 ! A108  A(54,57,60)           116.2615                                         !
 ! A109  A(58,57,59)           105.1911                                         !
 ! A110  A(58,57,60)           108.0166                                         !
 ! A111  A(59,57,60)           108.0162                                         !
 ! A112  A(57,60,61)           110.428                                          !
 ! A113  A(57,60,62)           109.6686                                         !
 ! A114  A(57,60,63)           112.0475                                         !
 ! A115  A(61,60,62)           106.9188                                         !
 ! A116  A(61,60,63)           107.3558                                         !
 ! A117  A(62,60,63)           110.2728                                         !
 ! A118  A(60,63,64)           110.2051                                         !
 ! A119  A(60,63,65)           109.6092                                         !
 ! A120  A(60,63,66)           111.206                                          !
 ! A121  A(64,63,65)           106.4789                                         !
 ! A122  A(64,63,66)           114.4994                                         !
 ! A123  A(65,63,66)           104.5029                                         !
 ! D1    D(2,1,5,6)            121.5979                                         !
 ! D2    D(2,1,5,7)              1.4518                                         !
 ! D3    D(2,1,5,8)           -118.3532                                         !
 ! D4    D(3,1,5,6)           -120.6801                                         !
 ! D5    D(3,1,5,7)            119.1738                                         !
 ! D6    D(3,1,5,8)             -0.6312                                         !
 ! D7    D(4,1,5,6)             -3.1827                                         !
 ! D8    D(4,1,5,7)           -123.3288                                         !
 ! D9    D(4,1,5,8)            116.8662                                         !
 ! D10   D(1,5,8,9)              0.6792                                         !
 ! D11   D(1,5,8,10)          -179.2584                                         !
 ! D12   D(6,5,8,9)            119.0046                                         !
 ! D13   D(6,5,8,10)           -60.933                                          !
 ! D14   D(7,5,8,9)           -117.457                                          !
 ! D15   D(7,5,8,10)            62.6053                                         !
 ! D16   D(5,8,10,11)            2.5405                                         !
 ! D17   D(5,8,10,12)          178.9211                                         !
 ! D18   D(9,8,10,11)         -177.3893                                         !
 ! D19   D(9,8,10,12)           -1.0087                                         !
 ! D20   D(8,10,12,13)         -43.5746                                         !
 ! D21   D(8,10,12,14)        -161.0598                                         !
 ! D22   D(8,10,12,15)          77.5884                                         !
 ! D23   D(11,10,12,13)        133.1904                                         !
 ! D24   D(11,10,12,14)         15.7052                                         !
 ! D25   D(11,10,12,15)       -105.6466                                         !
 ! D26   D(10,12,14,18)        -18.994                                          !
 ! D27   D(10,12,14,29)        161.181                                          !
 ! D28   D(13,12,14,18)       -134.7578                                         !
 ! D29   D(13,12,14,29)         45.4172                                         !
 ! D30   D(15,12,14,18)        100.4818                                         !
 ! D31   D(15,12,14,29)        -79.3433                                         !
 ! D32   D(10,12,15,16)        -50.9081                                         !
 ! D33   D(10,12,15,17)         63.7937                                         !
 ! D34   D(10,12,15,19)       -172.2289                                         !
 ! D35   D(13,12,15,16)         69.0616                                         !
 ! D36   D(13,12,15,17)       -176.2365                                         !
 ! D37   D(13,12,15,19)        -52.2592                                         !
 ! D38   D(14,12,15,16)       -165.9509                                         !
 ! D39   D(14,12,15,17)        -51.2491                                         !
 ! D40   D(14,12,15,19)         72.7283                                         !
 ! D41   D(12,14,29,30)          4.533                                          !
 ! D42   D(12,14,29,31)        173.5473                                         !
 ! D43   D(18,14,29,30)       -175.2813                                         !
 ! D44   D(18,14,29,31)         -6.267                                          !
 ! D45   D(12,15,19,20)        -59.5844                                         !
 ! D46   D(12,15,19,21)         60.56                                           !
 ! D47   D(12,15,19,25)       -176.4451                                         !
 ! D48   D(16,15,19,20)        179.8674                                         !
 ! D49   D(16,15,19,21)        -59.9883                                         !
 ! D50   D(16,15,19,25)         63.0067                                         !
 ! D51   D(17,15,19,20)         63.3859                                         !
 ! D52   D(17,15,19,21)       -176.4698                                         !
 ! D53   D(17,15,19,25)        -53.4748                                         !
 ! D54   D(15,19,21,22)         57.9124                                         !
 ! D55   D(15,19,21,23)        177.4417                                         !
 ! D56   D(15,19,21,24)        -63.0966                                         !
 ! D57   D(20,19,21,22)        178.4773                                         !
 ! D58   D(20,19,21,23)        -61.9934                                         !
 ! D59   D(20,19,21,24)         57.4684                                         !
 ! D60   D(25,19,21,22)        -64.2399                                         !
 ! D61   D(25,19,21,23)         55.2894                                         !
 ! D62   D(25,19,21,24)        174.7512                                         !
 ! D63   D(15,19,25,26)        -62.6998                                         !
 ! D64   D(15,19,25,27)         57.7226                                         !
 ! D65   D(15,19,25,28)        177.7645                                         !
 ! D66   D(20,19,25,26)        179.3886                                         !
 ! D67   D(20,19,25,27)        -60.189                                          !
 ! D68   D(20,19,25,28)         59.8529                                         !
 ! D69   D(21,19,25,26)         61.5348                                         !
 ! D70   D(21,19,25,27)       -178.0428                                         !
 ! D71   D(21,19,25,28)        -58.0009                                         !
 ! D72   D(14,29,31,32)        -35.3799                                         !
 ! D73   D(14,29,31,33)       -152.693                                          !
 ! D74   D(14,29,31,34)         83.4091                                         !
 ! D75   D(30,29,31,32)        134.5384                                         !
 ! D76   D(30,29,31,33)         17.2253                                         !
 ! D77   D(30,29,31,34)       -106.6726                                         !
 ! D78   D(29,31,33,36)        -17.2489                                         !
 ! D79   D(29,31,33,45)        163.1782                                         !
 ! D80   D(32,31,33,36)       -133.1893                                         !
 ! D81   D(32,31,33,45)         47.2378                                         !
 ! D82   D(34,31,33,36)        104.7614                                         !
 ! D83   D(34,31,33,45)        -74.8115                                         !
 ! D84   D(29,31,34,35)        -50.6362                                         !
 ! D85   D(29,31,34,37)         66.5311                                         !
 ! D86   D(29,31,34,41)       -166.2162                                         !
 ! D87   D(32,31,34,35)         68.1529                                         !
 ! D88   D(32,31,34,37)       -174.6798                                         !
 ! D89   D(32,31,34,41)        -47.4271                                         !
 ! D90   D(33,31,34,35)       -168.7211                                         !
 ! D91   D(33,31,34,37)        -51.5537                                         !
 ! D92   D(33,31,34,41)         75.699                                          !
 ! D93   D(31,33,45,46)         -0.0662                                         !
 ! D94   D(31,33,45,47)        174.4006                                         !
 ! D95   D(36,33,45,46)       -179.6224                                         !
 ! D96   D(36,33,45,47)         -5.1556                                         !
 ! D97   D(31,34,37,38)         67.2031                                         !
 ! D98   D(31,34,37,39)       -173.4149                                         !
 ! D99   D(31,34,37,40)        -53.6101                                         !
 ! D100  D(35,34,37,38)       -178.3949                                         !
 ! D101  D(35,34,37,39)        -59.0129                                         !
 ! D102  D(35,34,37,40)         60.7919                                         !
 ! D103  D(41,34,37,38)        -60.5451                                         !
 ! D104  D(41,34,37,39)         58.8369                                         !
 ! D105  D(41,34,37,40)        178.6417                                         !
 ! D106  D(31,34,41,42)        -70.6308                                         !
 ! D107  D(31,34,41,43)        170.3271                                         !
 ! D108  D(31,34,41,44)         51.4347                                         !
 ! D109  D(35,34,41,42)        175.752                                          !
 ! D110  D(35,34,41,43)         56.7099                                         !
 ! D111  D(35,34,41,44)        -62.1825                                         !
 ! D112  D(37,34,41,42)         57.088                                          !
 ! D113  D(37,34,41,43)        -61.9541                                         !
 ! D114  D(37,34,41,44)        179.1535                                         !
 ! D115  D(33,45,47,48)        -31.4975                                         !
 ! D116  D(33,45,47,49)       -150.4796                                         !
 ! D117  D(33,45,47,50)         89.0985                                         !
 ! D118  D(46,45,47,48)        143.3122                                         !
 ! D119  D(46,45,47,49)         24.3302                                         !
 ! D120  D(46,45,47,50)        -96.0917                                         !
 ! D121  D(45,47,49,53)        155.432                                          !
 ! D122  D(45,47,49,67)        -29.9181                                         !
 ! D123  D(48,47,49,53)         37.0218                                         !
 ! D124  D(48,47,49,67)       -148.3283                                         !
 ! D125  D(50,47,49,53)        -82.9832                                         !
 ! D126  D(50,47,49,67)         91.6668                                         !
 ! D127  D(45,47,50,51)        -76.7699                                         !
 ! D128  D(45,47,50,52)         37.2018                                         !
 ! D129  D(45,47,50,54)        159.9934                                         !
 ! D130  D(48,47,50,51)         43.6018                                         !
 ! D131  D(48,47,50,52)        157.5735                                         !
 ! D132  D(48,47,50,54)        -79.6349                                         !
 ! D133  D(49,47,50,51)        163.9182                                         !
 ! D134  D(49,47,50,52)        -82.1101                                         !
 ! D135  D(49,47,50,54)         40.6815                                         !
 ! D136  D(47,50,54,55)        152.1251                                         !
 ! D137  D(47,50,54,56)         36.8955                                         !
 ! D138  D(47,50,54,57)        -87.1831                                         !
 ! D139  D(51,50,54,55)         31.0584                                         !
 ! D140  D(51,50,54,56)        -84.1711                                         !
 ! D141  D(51,50,54,57)        151.7502                                         !
 ! D142  D(52,50,54,55)        -86.0723                                         !
 ! D143  D(52,50,54,56)        158.6982                                         !
 ! D144  D(52,50,54,57)         34.6195                                         !
 ! D145  D(50,54,57,58)        -96.0961                                         !
 ! D146  D(50,54,57,59)         18.6173                                         !
 ! D147  D(50,54,57,60)        142.084                                          !
 ! D148  D(55,54,57,58)         24.4432                                         !
 ! D149  D(55,54,57,59)        139.1566                                         !
 ! D150  D(55,54,57,60)        -97.3767                                         !
 ! D151  D(56,54,57,58)        140.3893                                         !
 ! D152  D(56,54,57,59)       -104.8972                                         !
 ! D153  D(56,54,57,60)         18.5695                                         !
 ! D154  D(54,57,60,61)         28.5789                                         !
 ! D155  D(54,57,60,62)        146.1542                                         !
 ! D156  D(54,57,60,63)        -91.0432                                         !
 ! D157  D(58,57,60,61)        -93.4274                                         !
 ! D158  D(58,57,60,62)         24.1479                                         !
 ! D159  D(58,57,60,63)        146.9505                                         !
 ! D160  D(59,57,60,61)        153.2733                                         !
 ! D161  D(59,57,60,62)        -89.1515                                         !
 ! D162  D(59,57,60,63)         33.6511                                         !
 ! D163  D(57,60,63,64)        173.464                                          !
 ! D164  D(57,60,63,65)        -69.6647                                         !
 ! D165  D(57,60,63,66)         45.3838                                         !
 ! D166  D(61,60,63,64)         52.0578                                         !
 ! D167  D(61,60,63,65)        168.9291                                         !
 ! D168  D(61,60,63,66)        -76.0224                                         !
 ! D169  D(62,60,63,64)        -64.0763                                         !
 ! D170  D(62,60,63,65)         52.795                                          !
 ! D171  D(62,60,63,66)        167.8435                                         !
 --------------------------------------------------------------------------------
 Symmetry turned off by external request.
 Stoichiometry    C19H38N5O5(1+)
 Framework group  C1[X(C19H38N5O5)]
 Deg. of freedom   195
 Full point group                 C1      NOp   1
                          Input orientation:                          
 ---------------------------------------------------------------------
 Center     Atomic      Atomic             Coordinates (Angstroms)
 Number     Number       Type             X           Y           Z
 ---------------------------------------------------------------------
      1          7           0       -5.554700   -1.510144    3.934753
      2          1           0       -6.374535   -1.021994    4.304456
      3          1           0       -5.664237   -1.679691    2.872530
      4          1           0       -5.459540   -2.401982    4.427523
      5          6           0       -4.301272   -0.679572    3.941214
      6          1           0       -3.530272   -1.176870    4.532034
      7          1           0       -4.510145    0.300244    4.373886
      8          6           0       -3.924719   -0.587885    2.434647
      9          8           0       -4.691821   -1.162825    1.641576
     10          7           0       -2.832190    0.085881    2.135821
     11          1           0       -2.217074    0.507390    2.841576
     12          6           0       -2.287957    0.274178    0.783920
     13          1           0       -2.339154   -0.681675    0.254704
     14          6           0       -0.816945    0.676368    1.053370
     15          6           0       -3.089817    1.358237    0.020381
     16          1           0       -4.150491    1.089607    0.109270
     17          1           0       -2.953528    2.310086    0.550031
     18          8           0       -0.504653    1.098527    2.174495
     19          6           0       -2.761733    1.544114   -1.476801
     20          1           0       -1.703217    1.815658   -1.579518
     21          6           0       -3.014251    0.270295   -2.299207
     22          1           0       -4.057407   -0.057828   -2.206293
     23          1           0       -2.814081    0.454464   -3.359559
     24          1           0       -2.374436   -0.568201   -1.997828
     25          6           0       -3.590576    2.714835   -2.029288
     26          1           0       -4.665506    2.502525   -1.966022
     27          1           0       -3.397198    3.641289   -1.476188
     28          1           0       -3.349614    2.896611   -3.081888
     29          7           0        0.033620    0.539736    0.030484
     30          1           0       -0.274408    0.255233   -0.898055
     31          6           0        1.422227    0.993289    0.055879
     32          1           0        1.468961    1.918774    0.640968
     33          6           0        1.759716    1.281376   -1.424006
     34          6           0        2.353537   -0.059375    0.734559
     35          1           0        1.849338   -0.284931    1.683131
     36          8           0        1.048402    0.819024   -2.322076
     37          6           0        2.465211   -1.356390   -0.077922
     38          1           0        2.988538   -1.193537   -1.027190
     39          1           0        3.029144   -2.107561    0.485391
     40          1           0        1.480966   -1.779322   -0.306395
     41          6           0        3.736133    0.512809    1.081734
     42          1           0        4.346598    0.700568    0.191973
     43          1           0        4.287363   -0.200174    1.703984
     44          1           0        3.656621    1.448083    1.649835
     45          7           0        2.849440    2.036575   -1.652102
     46          1           0        3.414483    2.395501   -0.889732
     47          6           0        3.380446    2.307893   -2.982219
     48          1           0        3.177070    1.449205   -3.625306
     49          6           0        4.884375    2.507598   -2.850774
     50          6           0        2.732731    3.585788   -3.608843
     51          1           0        1.733715    3.291180   -3.946633
     52          1           0        2.589652    4.314190   -2.800718
     53          8           0        5.516835    2.243309   -3.982790
     54          6           0        3.520434    4.247356   -4.763524
     55          1           0        2.804577    4.760562   -5.415808
     56          1           0        3.987812    3.470215   -5.375583
     57          6           0        4.585242    5.280046   -4.291781
     58          1           0        4.142017    6.281443   -4.343491
     59          1           0        4.824393    5.125851   -3.232120
     60          6           0        5.910603    5.303377   -5.081655
     61          1           0        5.744888    4.983252   -6.116107
     62          1           0        6.298326    6.330355   -5.123040
     63          7           0        6.928329    4.391304   -4.492292
     64          1           0        7.750544    4.345846   -5.093307
     65          1           0        7.244725    4.764258   -3.596636
     66          1           0        6.275125    2.933727   -4.122411
     67          8           0        5.390233    2.961262   -1.834447
 ---------------------------------------------------------------------
 Rotational constants (GHZ):           0.3321744           0.0572369           0.0518821
 Standard basis: 6-31G(d) (6D, 7F)
   511 basis functions,   964 primitive gaussians,   511 cartesian basis functions
   113 alpha electrons      113 beta electrons
       nuclear repulsion energy      2981.8692481332 Hartrees.
 NAtoms=   67 NActive=   67 NUniq=   67 SFac= 1.00D+00 NAtFMM=   60 NAOKFM=T Big=T
 Integral buffers will be    131072 words long.
 Raffenetti 2 integral format.
 Two-electron integral symmetry is turned off.
 One-electron integrals computed using PRISM.
 NBasis=   511 RedAO= T EigKep=  1.86D-03  NBF=   511
 NBsUse=   511 1.00D-06 EigRej= -1.00D+00 NBFU=   511
 Initial guess from the checkpoint file:  "conf-950.chk"
 B after Tr=     0.000000    0.000000    0.000000
         Rot=    1.000000    0.000000    0.000000    0.000000 Ang=   0.00 deg.
 Requested convergence on RMS density matrix=1.00D-08 within 128 cycles.
 Requested convergence on MAX density matrix=1.00D-06.
 Requested convergence on             energy=1.00D-06.
 No special actions if energy rises.
 SCF Done:  E(RB3LYP) =  -1396.64551962     A.U. after    3 cycles
            NFock=  3  Conv=0.11D-08     -V/T= 2.0095

 **********************************************************************

            Population analysis using the SCF Density.

 **********************************************************************

 Alpha  occ. eigenvalues --  -19.28051 -19.21983 -19.21877 -19.19457 -19.19201
 Alpha  occ. eigenvalues --  -14.61496 -14.50041 -14.45197 -14.43440 -14.41419
 Alpha  occ. eigenvalues --  -10.44806 -10.42010 -10.38907 -10.37038 -10.36592
 Alpha  occ. eigenvalues --  -10.34676 -10.31438 -10.29746 -10.28477 -10.28445
 Alpha  occ. eigenvalues --  -10.27452 -10.27040 -10.25375 -10.25198 -10.24882
 Alpha  occ. eigenvalues --  -10.24846 -10.24460 -10.24378 -10.24234  -1.20481
 Alpha  occ. eigenvalues --   -1.15058  -1.14338  -1.13806  -1.11278  -1.06708
 Alpha  occ. eigenvalues --   -1.05964  -1.01828  -0.99871  -0.96787  -0.92064
 Alpha  occ. eigenvalues --   -0.89477  -0.88081  -0.86121  -0.84591  -0.81899
 Alpha  occ. eigenvalues --   -0.78987  -0.76592  -0.75886  -0.75838  -0.75503
 Alpha  occ. eigenvalues --   -0.75305  -0.75131  -0.71442  -0.69267  -0.68863
 Alpha  occ. eigenvalues --   -0.68043  -0.66881  -0.65550  -0.65125  -0.64269
 Alpha  occ. eigenvalues --   -0.63886  -0.63184  -0.61508  -0.60971  -0.59080
 Alpha  occ. eigenvalues --   -0.57836  -0.57234  -0.56584  -0.55945  -0.55286
 Alpha  occ. eigenvalues --   -0.54346  -0.54089  -0.53845  -0.53514  -0.52660
 Alpha  occ. eigenvalues --   -0.51852  -0.51706  -0.51390  -0.51085  -0.50512
 Alpha  occ. eigenvalues --   -0.50033  -0.49228  -0.48069  -0.47841  -0.47521
 Alpha  occ. eigenvalues --   -0.47398  -0.46490  -0.46273  -0.46082  -0.45541
 Alpha  occ. eigenvalues --   -0.44912  -0.44544  -0.44052  -0.43239  -0.42765
 Alpha  occ. eigenvalues --   -0.42523  -0.42132  -0.41414  -0.41090  -0.40826
 Alpha  occ. eigenvalues --   -0.40697  -0.40554  -0.39902  -0.39495  -0.39263
 Alpha  occ. eigenvalues --   -0.38936  -0.36092  -0.35699  -0.34837  -0.33778
 Alpha  occ. eigenvalues --   -0.33739  -0.32823  -0.31849
 Alpha virt. eigenvalues --   -0.13090  -0.12863  -0.07848  -0.07267  -0.05702
 Alpha virt. eigenvalues --   -0.05507  -0.04536  -0.02152  -0.01288  -0.00294
 Alpha virt. eigenvalues --    0.00670   0.01303   0.01559   0.02658   0.03326
 Alpha virt. eigenvalues --    0.03795   0.03989   0.04547   0.05336   0.05671
 Alpha virt. eigenvalues --    0.05858   0.06284   0.06505   0.07027   0.07169
 Alpha virt. eigenvalues --    0.07563   0.07753   0.07937   0.08187   0.08492
 Alpha virt. eigenvalues --    0.08850   0.09343   0.09585   0.10177   0.11107
 Alpha virt. eigenvalues --    0.11430   0.11572   0.11759   0.11867   0.12504
 Alpha virt. eigenvalues --    0.12907   0.12987   0.13527   0.13842   0.14084
 Alpha virt. eigenvalues --    0.14710   0.15116   0.15661   0.15990   0.16149
 Alpha virt. eigenvalues --    0.16974   0.17270   0.17907   0.18237   0.18584
 Alpha virt. eigenvalues --    0.19335   0.19801   0.20154   0.20404   0.21089
 Alpha virt. eigenvalues --    0.21739   0.24216   0.24957   0.25933   0.26910
 Alpha virt. eigenvalues --    0.28886   0.29644   0.31795   0.33667   0.34386
 Alpha virt. eigenvalues --    0.35734   0.37251   0.38593   0.40820   0.41947
 Alpha virt. eigenvalues --    0.42640   0.43035   0.43256   0.43626   0.44127
 Alpha virt. eigenvalues --    0.44357   0.44925   0.45445   0.46687   0.47069
 Alpha virt. eigenvalues --    0.47856   0.48114   0.48453   0.48686   0.49057
 Alpha virt. eigenvalues --    0.50600   0.51059   0.51248   0.51881   0.52633
 Alpha virt. eigenvalues --    0.53199   0.54747   0.55219   0.55500   0.56236
 Alpha virt. eigenvalues --    0.56917   0.57669   0.58132   0.58370   0.58753
 Alpha virt. eigenvalues --    0.59428   0.59915   0.60035   0.60447   0.60733
 Alpha virt. eigenvalues --    0.61939   0.62657   0.63351   0.63936   0.64364
 Alpha virt. eigenvalues --    0.64502   0.64786   0.64901   0.65681   0.65986
 Alpha virt. eigenvalues --    0.67418   0.67571   0.67992   0.68378   0.68612
 Alpha virt. eigenvalues --    0.69230   0.70045   0.70982   0.72047   0.73492
 Alpha virt. eigenvalues --    0.74158   0.74600   0.74860   0.75204   0.75248
 Alpha virt. eigenvalues --    0.75685   0.75933   0.76945   0.77900   0.78129
 Alpha virt. eigenvalues --    0.78525   0.78932   0.79048   0.79337   0.79997
 Alpha virt. eigenvalues --    0.80354   0.80886   0.81423   0.81697   0.81951
 Alpha virt. eigenvalues --    0.82267   0.82848   0.83168   0.83527   0.83815
 Alpha virt. eigenvalues --    0.84059   0.84643   0.85230   0.85588   0.85925
 Alpha virt. eigenvalues --    0.86294   0.86548   0.87147   0.87393   0.87792
 Alpha virt. eigenvalues --    0.88231   0.88988   0.89219   0.90015   0.91042
 Alpha virt. eigenvalues --    0.91265   0.91907   0.92163   0.92698   0.92918
 Alpha virt. eigenvalues --    0.93743   0.94612   0.95452   0.96427   0.96683
 Alpha virt. eigenvalues --    0.97928   0.98269   0.99368   0.99883   1.00713
 Alpha virt. eigenvalues --    1.01457   1.02660   1.03529   1.05113   1.06141
 Alpha virt. eigenvalues --    1.06752   1.07544   1.08836   1.10066   1.12002
 Alpha virt. eigenvalues --    1.12733   1.14990   1.15774   1.15973   1.18100
 Alpha virt. eigenvalues --    1.19258   1.20100   1.22722   1.23222   1.25089
 Alpha virt. eigenvalues --    1.27986   1.29739   1.30059   1.32378   1.33015
 Alpha virt. eigenvalues --    1.33904   1.35033   1.36673   1.36909   1.37294
 Alpha virt. eigenvalues --    1.37981   1.38574   1.40944   1.41137   1.43043
 Alpha virt. eigenvalues --    1.44002   1.45834   1.46281   1.46866   1.47569
 Alpha virt. eigenvalues --    1.48160   1.50488   1.52649   1.53070   1.54534
 Alpha virt. eigenvalues --    1.56698   1.57266   1.57700   1.59854   1.60983
 Alpha virt. eigenvalues --    1.61087   1.62484   1.63587   1.64821   1.65985
 Alpha virt. eigenvalues --    1.67315   1.67383   1.68099   1.68372   1.69618
 Alpha virt. eigenvalues --    1.69987   1.70302   1.72397   1.72629   1.72798
 Alpha virt. eigenvalues --    1.73270   1.73818   1.74316   1.74730   1.75348
 Alpha virt. eigenvalues --    1.76216   1.77129   1.77446   1.77944   1.78482
 Alpha virt. eigenvalues --    1.79072   1.79826   1.81540   1.82442   1.82688
 Alpha virt. eigenvalues --    1.83141   1.84154   1.84411   1.84510   1.86201
 Alpha virt. eigenvalues --    1.86909   1.87758   1.87797   1.88214   1.89091
 Alpha virt. eigenvalues --    1.90214   1.90654   1.91909   1.92327   1.92785
 Alpha virt. eigenvalues --    1.93785   1.94960   1.95250   1.95843   1.96752
 Alpha virt. eigenvalues --    1.97234   1.97813   1.99508   2.00560   2.01181
 Alpha virt. eigenvalues --    2.01410   2.02672   2.03286   2.05304   2.05762
 Alpha virt. eigenvalues --    2.07049   2.08682   2.09635   2.10451   2.11830
 Alpha virt. eigenvalues --    2.13277   2.13988   2.15034   2.15525   2.16079
 Alpha virt. eigenvalues --    2.16568   2.17685   2.17974   2.18009   2.18788
 Alpha virt. eigenvalues --    2.19427   2.20089   2.22013   2.24124   2.25039
 Alpha virt. eigenvalues --    2.26287   2.28665   2.29323   2.30107   2.31195
 Alpha virt. eigenvalues --    2.31538   2.32636   2.33432   2.35087   2.35814
 Alpha virt. eigenvalues --    2.36216   2.37024   2.38814   2.39944   2.40851
 Alpha virt. eigenvalues --    2.42137   2.42775   2.43679   2.44358   2.47505
 Alpha virt. eigenvalues --    2.48007   2.48711   2.50754   2.52577   2.52813
 Alpha virt. eigenvalues --    2.53629   2.56854   2.58425   2.59458   2.61421
 Alpha virt. eigenvalues --    2.62583   2.62853   2.63480   2.66199   2.66825
 Alpha virt. eigenvalues --    2.67601   2.68249   2.70195   2.70967   2.74242
 Alpha virt. eigenvalues --    2.75359   2.78763   2.80382   2.82406   2.84233
 Alpha virt. eigenvalues --    2.87133   2.88960   2.89878   2.92412   2.96361
 Alpha virt. eigenvalues --    3.02824   3.06712   3.11638   3.14246   3.61680
 Alpha virt. eigenvalues --    3.78132   3.90534   3.93464   3.95067   3.97149
 Alpha virt. eigenvalues --    3.99599   4.03347   4.06585   4.08201   4.10374
 Alpha virt. eigenvalues --    4.11073   4.14880   4.15981   4.21083   4.22304
 Alpha virt. eigenvalues --    4.24472   4.26755   4.31327   4.32871   4.33375
 Alpha virt. eigenvalues --    4.37022   4.38795   4.49606   4.51309   4.52857
 Alpha virt. eigenvalues --    4.55609   4.59205   4.63106
          Condensed to atoms (all electrons):
 Mulliken charges:
               1
     1  N   -0.752192
     2  H    0.421615
     3  H    0.440671
     4  H    0.421791
     5  C   -0.276408
     6  H    0.247462
     7  H    0.247526
     8  C    0.642044
     9  O   -0.535063
    10  N   -0.603445
    11  H    0.376856
    12  C   -0.069336
    13  H    0.192381
    14  C    0.628323
    15  C   -0.258905
    16  H    0.158079
    17  H    0.152403
    18  O   -0.553052
    19  C   -0.098133
    20  H    0.148446
    21  C   -0.453795
    22  H    0.150141
    23  H    0.171355
    24  H    0.138853
    25  C   -0.447743
    26  H    0.145929
    27  H    0.148563
    28  H    0.162436
    29  N   -0.622252
    30  H    0.377600
    31  C   -0.060548
    32  H    0.176739
    33  C    0.628310
    34  C   -0.071416
    35  H    0.154283
    36  O   -0.553126
    37  C   -0.457022
    38  H    0.163407
    39  H    0.157374
    40  H    0.142862
    41  C   -0.475325
    42  H    0.165517
    43  H    0.163267
    44  H    0.150682
    45  N   -0.616600
    46  H    0.357278
    47  C   -0.017625
    48  H    0.192929
    49  C    0.580251
    50  C   -0.279624
    51  H    0.166967
    52  H    0.146438
    53  O   -0.600065
    54  C   -0.283435
    55  H    0.147387
    56  H    0.171326
    57  C   -0.291301
    58  H    0.152505
    59  H    0.160260
    60  C   -0.144311
    61  H    0.166338
    62  H    0.151183
    63  N   -0.777427
    64  H    0.335943
    65  H    0.340548
    66  H    0.459150
    67  O   -0.505269
 Sum of Mulliken charges =   1.00000
 Mulliken charges with hydrogens summed into heavy atoms:
               1
     1  N    0.531885
     5  C    0.218580
     8  C    0.642044
     9  O   -0.535063
    10  N   -0.226589
    12  C    0.123045
    14  C    0.628323
    15  C    0.051578
    18  O   -0.553052
    19  C    0.050313
    21  C    0.006554
    25  C    0.009185
    29  N   -0.244652
    31  C    0.116191
    33  C    0.628310
    34  C    0.082866
    36  O   -0.553126
    37  C    0.006621
    41  C    0.004140
    45  N   -0.259322
    47  C    0.175304
    49  C    0.580251
    50  C    0.033781
    53  O   -0.140915
    54  C    0.035278
    57  C    0.021465
    60  C    0.173210
    63  N   -0.100936
    67  O   -0.505269
 Electronic spatial extent (au):  <R**2>=          23002.9252
 Charge=              1.0000 electrons
 Dipole moment (field-independent basis, Debye):
    X=            -13.0042    Y=              1.8047    Z=             10.1263  Tot=             16.5803
 Quadrupole moment (field-independent basis, Debye-Ang):
   XX=            -26.7352   YY=           -131.4423   ZZ=            -84.7553
   XY=             57.5212   XZ=           -113.4623   YZ=            -54.6790
 Traceless Quadrupole moment (field-independent basis, Debye-Ang):
   XX=             54.2424   YY=            -50.4647   ZZ=             -3.7777
   XY=             57.5212   XZ=           -113.4623   YZ=            -54.6790
 Octapole moment (field-independent basis, Debye-Ang**2):
  XXX=           -626.4977  YYY=           -615.2973  ZZZ=            630.3428  XYY=             24.7022
  XXY=           -125.2712  XXZ=            366.2246  XZZ=           -316.2972  YZZ=           -196.4218
  YYZ=             36.2488  XYZ=            -84.6643
 Hexadecapole moment (field-independent basis, Debye-Ang**3):
 XXXX=          -8760.0482 YYYY=          -5398.8972 ZZZZ=          -6189.4911 XXXY=           -309.9704
 XXXZ=           -673.7418 YYYX=          -1827.4853 YYYZ=           1977.7729 ZZZX=           1390.9769
 ZZZY=           1716.7330 XXYY=          -1840.1445 XXZZ=           -501.3545 YYZZ=          -1431.3978
 XXYZ=          -1067.8555 YYXZ=             24.9147 ZZXY=            479.3079
 N-N= 2.981869248133D+03 E-N=-9.195182791167D+03  KE= 1.383503880364D+03
 Unable to Open any file for archive entry.
 1\1\GINC-AMR-097\SP\RB3LYP\6-31G(d)\C19H38N5O5(1+)\KENGMITH\27-May-202
 2\0\\# B3LYP/6-31G* guess=read geom=check nosymm integral(ultrafinegri
 d)\\Candidate Structure: Conf:950 Charge calc in gas phase\\1,1\N,0,-5
 .5546998022,-1.5101441426,3.9347533251\H,0,-6.3745346395,-1.0219938429
 ,4.3044561919\H,0,-5.6642374767,-1.6796905921,2.8725304162\H,0,-5.4595
 402125,-2.4019821686,4.4275225439\C,0,-4.3012718586,-0.6795717593,3.94
 12143327\H,0,-3.5302722531,-1.1768699925,4.5320340947\H,0,-4.510144673
 1,0.3002443753,4.3738862144\C,0,-3.9247186193,-0.5878845177,2.43464737
 52\O,0,-4.6918208456,-1.162824813,1.6415761985\N,0,-2.8321900134,0.085
 880564,2.1358210859\H,0,-2.2170740382,0.5073897038,2.8415756361\C,0,-2
 .2879565863,0.274177961,0.7839204302\H,0,-2.33915431,-0.6816754319,0.2
 547037817\C,0,-0.8169445625,0.6763678062,1.0533703632\C,0,-3.089816537
 1,1.3582374248,0.0203813215\H,0,-4.1504905965,1.0896074644,0.109270009
 8\H,0,-2.953528156,2.3100857403,0.5500309062\O,0,-0.5046531422,1.09852
 65547,2.1744950462\C,0,-2.7617328675,1.5441144068,-1.4768006855\H,0,-1
 .7032167658,1.8156578331,-1.5795178891\C,0,-3.0142514156,0.2702954529,
 -2.299207444\H,0,-4.0574073292,-0.057828438,-2.2062932979\H,0,-2.81408
 14842,0.4544644296,-3.3595587345\H,0,-2.3744361231,-0.5682006385,-1.99
 7828107\C,0,-3.5905756566,2.7148353906,-2.0292880912\H,0,-4.6655062067
 ,2.5025248494,-1.96602244\H,0,-3.3971984399,3.6412887148,-1.4761880517
 \H,0,-3.3496142689,2.8966113704,-3.0818881462\N,0,0.0336203452,0.53973
 56312,0.0304842455\H,0,-0.2744083322,0.2552332143,-0.8980547467\C,0,1.
 4222267487,0.9932893484,0.0558787281\H,0,1.4689610908,1.9187736446,0.6
 409676959\C,0,1.7597157944,1.2813762235,-1.4240059455\C,0,2.3535374014
 ,-0.0593754001,0.7345590861\H,0,1.8493375952,-0.2849307014,1.683131196
 \O,0,1.0484019816,0.8190241674,-2.3220760284\C,0,2.4652113596,-1.35638
 98767,-0.0779217406\H,0,2.9885377701,-1.1935365251,-1.0271896082\H,0,3
 .0291436623,-2.1075611759,0.4853912293\H,0,1.4809664236,-1.7793222958,
 -0.3063951758\C,0,3.7361326392,0.5128090225,1.0817341192\H,0,4.3465981
 221,0.7005681375,0.1919731576\H,0,4.2873625958,-0.2001735773,1.7039839
 793\H,0,3.6566214035,1.4480833846,1.6498351277\N,0,2.8494402057,2.0365
 746979,-1.6521022101\H,0,3.414483492,2.3955009642,-0.8897320441\C,0,3.
 3804457914,2.3078932406,-2.9822186232\H,0,3.1770695186,1.4492051071,-3
 .6253058876\C,0,4.8843745977,2.507598286,-2.8507738081\C,0,2.732730959
 ,3.5857880451,-3.6088434281\H,0,1.7337145372,3.2911797251,-3.946632761
 6\H,0,2.5896516097,4.314190148,-2.8007182782\O,0,5.5168352499,2.243309
 2404,-3.9827902565\C,0,3.5204342902,4.2473560794,-4.7635240553\H,0,2.8
 045765307,4.7605621002,-5.4158080202\H,0,3.9878120486,3.4702147086,-5.
 3755830196\C,0,4.5852415716,5.2800456041,-4.291781095\H,0,4.1420173148
 ,6.2814429175,-4.3434905012\H,0,4.8243929888,5.1258509819,-3.232119921
 4\C,0,5.9106034803,5.3033769637,-5.0816547542\H,0,5.7448880955,4.98325
 16966,-6.1161074797\H,0,6.298326146,6.3303547226,-5.1230404945\N,0,6.9
 283289908,4.3913036563,-4.4922923023\H,0,7.7505439864,4.3458455766,-5.
 0933065587\H,0,7.2447246182,4.7642581048,-3.5966363209\H,0,6.275124689
 7,2.9337271933,-4.1224112903\O,0,5.3902334463,2.9612620836,-1.83444685
 52\\Version=ES64L-G16RevC.01\HF=-1396.6455196\RMSD=1.075e-09\Dipole=-6
 .490519,-2.025964,5.6533598\Quadrupole=40.327887,-37.5192425,-2.808644
 5,42.7655658,-84.3564285,-40.6525001\PG=C01 [X(C19H38N5O5)]\\@
 The archive entry for this job was punched.


 ABOVE ALL I AM AN OPTIMIST FOR NUMBER THEORY,
 AND I HOLD THE HOPE THAT WE MAY NOT BE FAR FROM
 A TIME WHEN IRREFUTABLE ARITHMETIC WILL CELEBRATE
 ITS TRIUMPHS IN PHYSICS AND CHEMISTRY.
   -- HERMANN MINKOWSKI, 1905
 Job cpu time:       0 days  0 hours  2 minutes 19.4 seconds.
 Elapsed time:       0 days  0 hours  0 minutes 35.4 seconds.
 File lengths (MBytes):  RWF=    256 Int=      0 D2E=      0 Chk=     40 Scr=     16
 Normal termination of Gaussian 16 at Fri May 27 02:06:13 2022.
