 Entering Gaussian System, Link 0=/opt/software/Gaussian/g16-AVX-C.01/g16/g16
 Input=charge-conf-669.com
 Output=charge-conf-669.log
 Initial command:
 /opt/software/Gaussian/g16-AVX-C.01/g16/l1.exe "/mnt/gs18/scratch/users/kengmith/Gau-44845.inp" -scrdir="/mnt/gs18/scratch/users/kengmith/"
 Entering Link 1 = /opt/software/Gaussian/g16-AVX-C.01/g16/l1.exe PID=     44860.
  
 Copyright (c) 1988-2019, Gaussian, Inc.  All Rights Reserved.
  
 This is part of the Gaussian(R) 16 program.  It is based on
 the Gaussian(R) 09 system (copyright 2009, Gaussian, Inc.),
 the Gaussian(R) 03 system (copyright 2003, Gaussian, Inc.),
 the Gaussian(R) 98 system (copyright 1998, Gaussian, Inc.),
 the Gaussian(R) 94 system (copyright 1995, Gaussian, Inc.),
 the Gaussian 92(TM) system (copyright 1992, Gaussian, Inc.),
 the Gaussian 90(TM) system (copyright 1990, Gaussian, Inc.),
 the Gaussian 88(TM) system (copyright 1988, Gaussian, Inc.),
 the Gaussian 86(TM) system (copyright 1986, Carnegie Mellon
 University), and the Gaussian 82(TM) system (copyright 1983,
 Carnegie Mellon University). Gaussian is a federally registered
 trademark of Gaussian, Inc.
  
 This software contains proprietary and confidential information,
 including trade secrets, belonging to Gaussian, Inc.
  
 This software is provided under written license and may be
 used, copied, transmitted, or stored only in accord with that
 written license.
  
 The following legend is applicable only to US Government
 contracts under FAR:
  
                    RESTRICTED RIGHTS LEGEND
  
 Use, reproduction and disclosure by the US Government is
 subject to restrictions as set forth in subparagraphs (a)
 and (c) of the Commercial Computer Software - Restricted
 Rights clause in FAR 52.227-19.
  
 Gaussian, Inc.
 340 Quinnipiac St., Bldg. 40, Wallingford CT 06492
  
  
 ---------------------------------------------------------------
 Warning -- This program may not be used in any manner that
 competes with the business of Gaussian, Inc. or will provide
 assistance to any competitor of Gaussian, Inc.  The licensee
 of this program is prohibited from giving any competitor of
 Gaussian, Inc. access to this program.  By using this program,
 the user acknowledges that Gaussian, Inc. is engaged in the
 business of creating and licensing software in the field of
 computational chemistry and represents and warrants to the
 licensee that it is not a competitor of Gaussian, Inc. and that
 it will not use this program in any manner prohibited above.
 ---------------------------------------------------------------
  

 Cite this work as:
 Gaussian 16, Revision C.01,
 M. J. Frisch, G. W. Trucks, H. B. Schlegel, G. E. Scuseria, 
 M. A. Robb, J. R. Cheeseman, G. Scalmani, V. Barone, 
 G. A. Petersson, H. Nakatsuji, X. Li, M. Caricato, A. V. Marenich, 
 J. Bloino, B. G. Janesko, R. Gomperts, B. Mennucci, H. P. Hratchian, 
 J. V. Ortiz, A. F. Izmaylov, J. L. Sonnenberg, D. Williams-Young, 
 F. Ding, F. Lipparini, F. Egidi, J. Goings, B. Peng, A. Petrone, 
 T. Henderson, D. Ranasinghe, V. G. Zakrzewski, J. Gao, N. Rega, 
 G. Zheng, W. Liang, M. Hada, M. Ehara, K. Toyota, R. Fukuda, 
 J. Hasegawa, M. Ishida, T. Nakajima, Y. Honda, O. Kitao, H. Nakai, 
 T. Vreven, K. Throssell, J. A. Montgomery, Jr., J. E. Peralta, 
 F. Ogliaro, M. J. Bearpark, J. J. Heyd, E. N. Brothers, K. N. Kudin, 
 V. N. Staroverov, T. A. Keith, R. Kobayashi, J. Normand, 
 K. Raghavachari, A. P. Rendell, J. C. Burant, S. S. Iyengar, 
 J. Tomasi, M. Cossi, J. M. Millam, M. Klene, C. Adamo, R. Cammi, 
 J. W. Ochterski, R. L. Martin, K. Morokuma, O. Farkas, 
 J. B. Foresman, and D. J. Fox, Gaussian, Inc., Wallingford CT, 2019.
 
 ******************************************
 Gaussian 16:  ES64L-G16RevC.01  3-Jul-2019
                27-May-2022 
 ******************************************
 %mem=8gb
 %nproc=4
 Will use up to    4 processors via shared memory.
 %chk=conf-669.chk
 -------------------------------------------------------------------
 # B3LYP/6-31G* guess=read geom=check nosymm integral(ultrafinegrid)
 -------------------------------------------------------------------
 1/29=2,38=1,172=1/1;
 2/12=2,15=1,40=1/2;
 3/5=1,6=6,7=1,11=2,14=-4,25=1,30=1,74=-5,75=-5,116=-2/1,2,3;
 4/5=1/1;
 5/5=2,38=6/2;
 6/7=2,8=2,9=2,10=2,28=1/1;
 99/5=1,9=1/99;
 ------------------------------------------------------
 Candidate Structure: Conf:669 Charge calc in gas phase
 ------------------------------------------------------
 Structure from the checkpoint file:  "conf-669.chk"
 Charge =  1 Multiplicity = 1
 Redundant internal coordinates found in file.  (old form).
 N,0,-5.3224948893,0.6992264976,4.7042423742
 H,0,-5.0142990468,0.1819746615,5.5324305193
 H,0,-6.152763309,1.2429384147,4.9547739892
 H,0,-5.5494244458,0.0130189783,3.909668453
 C,0,-4.2316463405,1.5167820196,4.0677033215
 H,0,-3.3287424905,1.4705144085,4.6791252027
 H,0,-4.5550056173,2.5556182295,3.982719385
 C,0,-4.0378148273,0.8514813086,2.6757788887
 O,0,-4.7944064331,-0.0956856147,2.4065833096
 N,0,-3.0925142052,1.3683169749,1.9091874543
 H,0,-2.4046766071,2.0334588206,2.2839382831
 C,0,-2.6015520278,0.7987757005,0.6471690539
 H,0,-2.8149519425,-0.2737670347,0.6449180452
 C,0,-1.0714187071,1.051694687,0.7140645786
 C,0,-3.2155501572,1.4864960826,-0.5911334148
 H,0,-2.9899558357,2.5586772962,-0.5200547073
 H,0,-2.6758913787,1.1168152233,-1.4746287875
 O,0,-0.6425013067,1.8953767953,1.5078379403
 C,0,-4.7283834366,1.2838054836,-0.8095828572
 H,0,-5.2507484764,1.6001446711,0.1048081511
 C,0,-5.2065860673,2.1891265557,-1.9556085095
 H,0,-4.7172369537,1.9193300366,-2.9005605437
 H,0,-6.286939895,2.0916412433,-2.1062623678
 H,0,-4.9885325117,3.2446858641,-1.7560941462
 C,0,-5.0917649722,-0.1832920606,-1.082349136
 H,0,-4.5634545819,-0.5605933202,-1.9681022806
 H,0,-4.8538713469,-0.8343038476,-0.2352371839
 H,0,-6.1652756383,-0.2834986565,-1.2756270678
 N,0,-0.3135111335,0.3243348636,-0.1190434674
 H,0,-0.7375640579,-0.2853942575,-0.8086753339
 C,0,1.1394280682,0.4521320781,-0.2232327249
 H,0,1.4052953892,1.4430443765,0.1549865663
 C,0,1.5391862748,0.3438669058,-1.70235012
 C,0,1.9115432076,-0.6191004998,0.6146546182
 H,0,2.97390411,-0.452149411,0.3935677014
 O,0,0.7276215887,-0.207669511,-2.5092216204
 C,0,1.7011763811,-0.4091215998,2.1197165202
 H,0,0.6608863151,-0.5980516247,2.4131760699
 H,0,2.335176663,-1.1028801435,2.6820683255
 H,0,1.9587644202,0.6096438647,2.4266379392
 C,0,1.558396486,-2.0544678659,0.1983500987
 H,0,0.5079260896,-2.2894411699,0.415780495
 H,0,2.1756164799,-2.7658861289,0.7560395186
 H,0,1.7326052091,-2.2330682587,-0.8678377385
 N,0,2.7545434859,0.7829051161,-1.9728585721
 H,0,3.3933362206,1.002771739,-1.1569980112
 C,0,3.7124790511,0.2508170583,-2.9567426037
 H,0,3.363214676,-0.7279134665,-3.3006134998
 C,0,5.047704616,0.0171973993,-2.0994289241
 C,0,4.0181402185,1.1812008223,-4.1323939002
 H,0,4.3411102918,2.1530741462,-3.7398761457
 H,0,4.8826318252,0.7457567657,-4.6453262467
 O,0,4.9537625139,0.4336620995,-0.9041783994
 C,0,2.8537813747,1.3963969356,-5.1111262129
 H,0,3.1176454633,2.1615153625,-5.8515592456
 H,0,2.012643975,1.8148452639,-4.5373268895
 C,0,2.4440754525,0.0956992692,-5.8333952732
 H,0,3.0307582479,-0.0309491866,-6.7502312849
 H,0,2.676933576,-0.7719141592,-5.2073476085
 C,0,0.971530194,0.0061818847,-6.2158400879
 H,0,0.6804367344,0.7424156719,-6.9702389523
 H,0,0.7178274615,-0.9885816811,-6.5896370014
 N,0,0.0901820257,0.2519045539,-4.9998539736
 H,0,-0.8110384321,-0.2235854557,-5.0894297284
 H,0,0.5295375965,-0.0389898797,-4.0410379921
 H,0,-0.1063658173,1.2500879473,-4.8967557681
 O,0,5.9712343255,-0.5116165133,-2.7193346842
 Recover connectivity data from disk.
                           ----------------------------
                           !    Current Parameters    !
                           ! (Angstroms and Degrees)  !
 --------------------------                            --------------------------
 ! Name  Definition              Value                                          !
 --------------------------------------------------------------------------------
 ! R1    R(1,2)                  1.0239                                         !
 ! R2    R(1,3)                  1.0236                                         !
 ! R3    R(1,4)                  1.0741                                         !
 ! R4    R(1,5)                  1.5045                                         !
 ! R5    R(5,6)                  1.0914                                         !
 ! R6    R(5,7)                  1.0913                                         !
 ! R7    R(5,8)                  1.5549                                         !
 ! R8    R(8,9)                  1.2418                                         !
 ! R9    R(8,10)                 1.3223                                         !
 ! R10   R(10,11)                1.0276                                         !
 ! R11   R(10,12)                1.4691                                         !
 ! R12   R(12,13)                1.0936                                         !
 ! R13   R(12,14)                1.5523                                         !
 ! R14   R(12,15)                1.5438                                         !
 ! R15   R(14,18)                1.2353                                         !
 ! R16   R(14,29)                1.3407                                         !
 ! R17   R(15,16)                1.098                                          !
 ! R18   R(15,17)                1.0993                                         !
 ! R19   R(15,19)                1.5419                                         !
 ! R20   R(19,20)                1.0996                                         !
 ! R21   R(19,21)                1.5368                                         !
 ! R22   R(19,25)                1.5358                                         !
 ! R23   R(21,22)                1.0978                                         !
 ! R24   R(21,23)                1.0952                                         !
 ! R25   R(21,24)                1.0962                                         !
 ! R26   R(25,26)                1.0982                                         !
 ! R27   R(25,27)                1.0945                                         !
 ! R28   R(25,28)                1.0954                                         !
 ! R29   R(29,30)                1.0135                                         !
 ! R30   R(29,31)                1.4623                                         !
 ! R31   R(31,32)                1.0935                                         !
 ! R32   R(31,33)                1.536                                          !
 ! R33   R(31,34)                1.5639                                         !
 ! R34   R(33,36)                1.2704                                         !
 ! R35   R(33,45)                1.3202                                         !
 ! R36   R(34,35)                1.0979                                         !
 ! R37   R(34,37)                1.5341                                         !
 ! R38   R(34,41)                1.5357                                         !
 ! R39   R(37,38)                1.0973                                         !
 ! R40   R(37,39)                1.0952                                         !
 ! R41   R(37,40)                1.0947                                         !
 ! R42   R(41,42)                1.0982                                         !
 ! R43   R(41,43)                1.0946                                         !
 ! R44   R(41,44)                1.095                                          !
 ! R45   R(45,46)                1.0593                                         !
 ! R46   R(45,47)                1.4727                                         !
 ! R47   R(47,48)                1.0946                                         !
 ! R48   R(47,49)                1.6039                                         !
 ! R49   R(47,50)                1.5301                                         !
 ! R50   R(49,53)                1.2692                                         !
 ! R51   R(49,67)                1.2316                                         !
 ! R52   R(50,51)                1.0968                                         !
 ! R53   R(50,52)                1.0955                                         !
 ! R54   R(50,54)                1.5362                                         !
 ! R55   R(54,55)                1.0969                                         !
 ! R56   R(54,56)                1.1008                                         !
 ! R57   R(54,57)                1.5432                                         !
 ! R58   R(57,58)                1.0958                                         !
 ! R59   R(57,59)                1.0949                                         !
 ! R60   R(57,60)                1.524                                          !
 ! R61   R(60,61)                1.0936                                         !
 ! R62   R(60,62)                1.0925                                         !
 ! R63   R(60,63)                1.5218                                         !
 ! R64   R(63,64)                1.0229                                         !
 ! R65   R(63,65)                1.0941                                         !
 ! R66   R(63,66)                1.0226                                         !
 ! A1    A(2,1,3)              108.3313                                         !
 ! A2    A(2,1,4)              109.8279                                         !
 ! A3    A(2,1,5)              113.4832                                         !
 ! A4    A(3,1,4)              110.4286                                         !
 ! A5    A(3,1,5)              113.7674                                         !
 ! A6    A(4,1,5)              100.799                                          !
 ! A7    A(1,5,6)              109.8625                                         !
 ! A8    A(1,5,7)              109.596                                          !
 ! A9    A(1,5,8)              103.6873                                         !
 ! A10   A(6,5,7)              109.2142                                         !
 ! A11   A(6,5,8)              112.3478                                         !
 ! A12   A(7,5,8)              111.9952                                         !
 ! A13   A(5,8,9)              116.3897                                         !
 ! A14   A(5,8,10)             116.1596                                         !
 ! A15   A(9,8,10)             127.4477                                         !
 ! A16   A(8,10,11)            121.3394                                         !
 ! A17   A(8,10,12)            125.8341                                         !
 ! A18   A(11,10,12)           109.9092                                         !
 ! A19   A(10,12,13)           108.4689                                         !
 ! A20   A(10,12,14)           103.2522                                         !
 ! A21   A(10,12,15)           112.5472                                         !
 ! A22   A(13,12,14)           110.624                                          !
 ! A23   A(13,12,15)           110.9555                                         !
 ! A24   A(14,12,15)           110.733                                          !
 ! A25   A(12,14,18)           118.7662                                         !
 ! A26   A(12,14,29)           116.2343                                         !
 ! A27   A(18,14,29)           124.9983                                         !
 ! A28   A(12,15,16)           107.5397                                         !
 ! A29   A(12,15,17)           107.4334                                         !
 ! A30   A(12,15,19)           116.4424                                         !
 ! A31   A(16,15,17)           106.2336                                         !
 ! A32   A(16,15,19)           109.824                                          !
 ! A33   A(17,15,19)           108.88                                           !
 ! A34   A(15,19,20)           108.0877                                         !
 ! A35   A(15,19,21)           109.4825                                         !
 ! A36   A(15,19,25)           112.5117                                         !
 ! A37   A(20,19,21)           107.6282                                         !
 ! A38   A(20,19,25)           108.0657                                         !
 ! A39   A(21,19,25)           110.8958                                         !
 ! A40   A(19,21,22)           111.003                                          !
 ! A41   A(19,21,23)           110.9232                                         !
 ! A42   A(19,21,24)           111.6943                                         !
 ! A43   A(22,21,23)           107.424                                          !
 ! A44   A(22,21,24)           107.7374                                         !
 ! A45   A(23,21,24)           107.8782                                         !
 ! A46   A(19,25,26)           110.9534                                         !
 ! A47   A(19,25,27)           112.2892                                         !
 ! A48   A(19,25,28)           110.5243                                         !
 ! A49   A(26,25,27)           108.3804                                         !
 ! A50   A(26,25,28)           107.3211                                         !
 ! A51   A(27,25,28)           107.1672                                         !
 ! A52   A(14,29,30)           120.8422                                         !
 ! A53   A(14,29,31)           123.9557                                         !
 ! A54   A(30,29,31)           114.8239                                         !
 ! A55   A(29,31,32)           107.2264                                         !
 ! A56   A(29,31,33)           108.7265                                         !
 ! A57   A(29,31,34)           113.1117                                         !
 ! A58   A(32,31,33)           109.4921                                         !
 ! A59   A(32,31,34)           108.3837                                         !
 ! A60   A(33,31,34)           109.8253                                         !
 ! A61   A(31,33,36)           118.4216                                         !
 ! A62   A(31,33,45)           114.4217                                         !
 ! A63   A(36,33,45)           127.0366                                         !
 ! A64   A(31,34,35)           105.4076                                         !
 ! A65   A(31,34,37)           111.3562                                         !
 ! A66   A(31,34,41)           112.4241                                         !
 ! A67   A(35,34,37)           108.025                                          !
 ! A68   A(35,34,41)           108.063                                          !
 ! A69   A(37,34,41)           111.2446                                         !
 ! A70   A(34,37,38)           111.6424                                         !
 ! A71   A(34,37,39)           109.734                                          !
 ! A72   A(34,37,40)           111.7254                                         !
 ! A73   A(38,37,39)           107.6035                                         !
 ! A74   A(38,37,40)           107.9586                                         !
 ! A75   A(39,37,40)           108.0185                                         !
 ! A76   A(34,41,42)           111.4871                                         !
 ! A77   A(34,41,43)           109.8587                                         !
 ! A78   A(34,41,44)           112.3228                                         !
 ! A79   A(42,41,43)           107.4246                                         !
 ! A80   A(42,41,44)           108.0635                                         !
 ! A81   A(43,41,44)           107.4803                                         !
 ! A82   A(33,45,46)           117.7985                                         !
 ! A83   A(33,45,47)           127.9908                                         !
 ! A84   A(46,45,47)           101.3791                                         !
 ! A85   A(45,47,48)           108.9892                                         !
 ! A86   A(45,47,49)           103.7115                                         !
 ! A87   A(45,47,50)           115.0606                                         !
 ! A88   A(48,47,49)           107.657                                          !
 ! A89   A(48,47,50)           111.4723                                         !
 ! A90   A(49,47,50)           109.4491                                         !
 ! A91   A(47,49,53)           113.2016                                         !
 ! A92   A(47,49,67)           114.6932                                         !
 ! A93   A(53,49,67)           132.0976                                         !
 ! A94   A(47,50,51)           108.8235                                         !
 ! A95   A(47,50,52)           106.0044                                         !
 ! A96   A(47,50,54)           115.0423                                         !
 ! A97   A(51,50,52)           106.7033                                         !
 ! A98   A(51,50,54)           109.0912                                         !
 ! A99   A(52,50,54)           110.824                                          !
 ! A100  A(50,54,55)           110.2084                                         !
 ! A101  A(50,54,56)           107.4753                                         !
 ! A102  A(50,54,57)           112.4176                                         !
 ! A103  A(55,54,56)           105.694                                          !
 ! A104  A(55,54,57)           109.624                                          !
 ! A105  A(56,54,57)           111.1918                                         !
 ! A106  A(54,57,58)           110.296                                          !
 ! A107  A(54,57,59)           110.109                                          !
 ! A108  A(54,57,60)           115.0551                                         !
 ! A109  A(58,57,59)           105.8391                                         !
 ! A110  A(58,57,60)           107.4907                                         !
 ! A111  A(59,57,60)           107.6029                                         !
 ! A112  A(57,60,61)           113.002                                          !
 ! A113  A(57,60,62)           111.328                                          !
 ! A114  A(57,60,63)           110.4624                                         !
 ! A115  A(61,60,62)           108.3701                                         !
 ! A116  A(61,60,63)           106.7597                                         !
 ! A117  A(62,60,63)           106.6138                                         !
 ! A118  A(60,63,64)           111.422                                          !
 ! A119  A(60,63,65)           115.136                                          !
 ! A120  A(60,63,66)           110.4572                                         !
 ! A121  A(64,63,65)           107.8762                                         !
 ! A122  A(64,63,66)           107.0525                                         !
 ! A123  A(65,63,66)           104.3813                                         !
 ! D1    D(2,1,5,6)             -5.3055                                         !
 ! D2    D(2,1,5,7)           -125.308                                          !
 ! D3    D(2,1,5,8)            114.9644                                         !
 ! D4    D(3,1,5,6)            119.1675                                         !
 ! D5    D(3,1,5,7)             -0.8351                                         !
 ! D6    D(3,1,5,8)           -120.5626                                         !
 ! D7    D(4,1,5,6)           -122.6515                                         !
 ! D8    D(4,1,5,7)            117.3459                                         !
 ! D9    D(4,1,5,8)             -2.3817                                         !
 ! D10   D(1,5,8,9)              2.2242                                         !
 ! D11   D(1,5,8,10)          -178.3591                                         !
 ! D12   D(6,5,8,9)            120.7928                                         !
 ! D13   D(6,5,8,10)           -59.7905                                         !
 ! D14   D(7,5,8,9)           -115.8529                                         !
 ! D15   D(7,5,8,10)            63.5638                                         !
 ! D16   D(5,8,10,11)           12.2087                                         !
 ! D17   D(5,8,10,12)          170.8831                                         !
 ! D18   D(9,8,10,11)         -168.4495                                         !
 ! D19   D(9,8,10,12)           -9.775                                          !
 ! D20   D(8,10,12,13)         -23.1325                                         !
 ! D21   D(8,10,12,14)        -140.5311                                         !
 ! D22   D(8,10,12,15)         100.0246                                         !
 ! D23   D(11,10,12,13)        137.5773                                         !
 ! D24   D(11,10,12,14)         20.1787                                         !
 ! D25   D(11,10,12,15)        -99.2656                                         !
 ! D26   D(10,12,14,18)        -18.0824                                         !
 ! D27   D(10,12,14,29)        162.291                                          !
 ! D28   D(13,12,14,18)       -133.9554                                         !
 ! D29   D(13,12,14,29)         46.418                                          !
 ! D30   D(15,12,14,18)        102.6053                                         !
 ! D31   D(15,12,14,29)        -77.0214                                         !
 ! D32   D(10,12,15,16)         56.8859                                         !
 ! D33   D(10,12,15,17)        170.8742                                         !
 ! D34   D(10,12,15,19)        -66.7843                                         !
 ! D35   D(13,12,15,16)        178.642                                          !
 ! D36   D(13,12,15,17)        -67.3697                                         !
 ! D37   D(13,12,15,19)         54.9719                                         !
 ! D38   D(14,12,15,16)        -58.11                                           !
 ! D39   D(14,12,15,17)         55.8783                                         !
 ! D40   D(14,12,15,19)        178.2199                                         !
 ! D41   D(12,14,29,30)          5.6618                                         !
 ! D42   D(12,14,29,31)        178.2318                                         !
 ! D43   D(18,14,29,30)       -173.9386                                         !
 ! D44   D(18,14,29,31)         -1.3687                                         !
 ! D45   D(12,15,19,20)         55.0009                                         !
 ! D46   D(12,15,19,21)        171.968                                          !
 ! D47   D(12,15,19,25)        -64.2413                                         !
 ! D48   D(16,15,19,20)        -67.4832                                         !
 ! D49   D(16,15,19,21)         49.4838                                         !
 ! D50   D(16,15,19,25)        173.2746                                         !
 ! D51   D(17,15,19,20)        176.5821                                         !
 ! D52   D(17,15,19,21)        -66.4508                                         !
 ! D53   D(17,15,19,25)         57.3399                                         !
 ! D54   D(15,19,21,22)         62.7755                                         !
 ! D55   D(15,19,21,23)       -177.8722                                         !
 ! D56   D(15,19,21,24)        -57.4862                                         !
 ! D57   D(20,19,21,22)       -179.9682                                         !
 ! D58   D(20,19,21,23)        -60.6159                                         !
 ! D59   D(20,19,21,24)         59.77                                           !
 ! D60   D(25,19,21,22)        -61.9593                                         !
 ! D61   D(25,19,21,23)         57.3929                                         !
 ! D62   D(25,19,21,24)        177.7789                                         !
 ! D63   D(15,19,25,26)        -58.5994                                         !
 ! D64   D(15,19,25,27)         62.8595                                         !
 ! D65   D(15,19,25,28)       -177.5317                                         !
 ! D66   D(20,19,25,26)       -177.8545                                         !
 ! D67   D(20,19,25,27)        -56.3956                                         !
 ! D68   D(20,19,25,28)         63.2132                                         !
 ! D69   D(21,19,25,26)         64.403                                          !
 ! D70   D(21,19,25,27)       -174.1381                                         !
 ! D71   D(21,19,25,28)        -54.5293                                         !
 ! D72   D(14,29,31,32)        -22.0068                                         !
 ! D73   D(14,29,31,33)       -140.3001                                         !
 ! D74   D(14,29,31,34)         97.4212                                         !
 ! D75   D(30,29,31,32)        150.9665                                         !
 ! D76   D(30,29,31,33)         32.6732                                         !
 ! D77   D(30,29,31,34)        -89.6055                                         !
 ! D78   D(29,31,33,36)        -20.4824                                         !
 ! D79   D(29,31,33,45)        163.2213                                         !
 ! D80   D(32,31,33,36)       -137.3356                                         !
 ! D81   D(32,31,33,45)         46.368                                          !
 ! D82   D(34,31,33,36)        103.767                                          !
 ! D83   D(34,31,33,45)        -72.5294                                         !
 ! D84   D(29,31,34,35)        176.2801                                         !
 ! D85   D(29,31,34,37)        -66.8227                                         !
 ! D86   D(29,31,34,41)         58.7861                                         !
 ! D87   D(32,31,34,35)        -64.9598                                         !
 ! D88   D(32,31,34,37)         51.9374                                         !
 ! D89   D(32,31,34,41)        177.5462                                         !
 ! D90   D(33,31,34,35)         54.6171                                         !
 ! D91   D(33,31,34,37)        171.5143                                         !
 ! D92   D(33,31,34,41)        -62.8769                                         !
 ! D93   D(31,33,45,46)         10.4095                                         !
 ! D94   D(31,33,45,47)        144.4184                                         !
 ! D95   D(36,33,45,46)       -165.5094                                         !
 ! D96   D(36,33,45,47)        -31.5005                                         !
 ! D97   D(31,34,37,38)         66.791                                          !
 ! D98   D(31,34,37,39)       -173.9997                                         !
 ! D99   D(31,34,37,40)        -54.2186                                         !
 ! D100  D(35,34,37,38)       -177.9169                                         !
 ! D101  D(35,34,37,39)        -58.7076                                         !
 ! D102  D(35,34,37,40)         61.0735                                         !
 ! D103  D(41,34,37,38)        -59.4699                                         !
 ! D104  D(41,34,37,39)         59.7394                                         !
 ! D105  D(41,34,37,40)        179.5205                                         !
 ! D106  D(31,34,41,42)        -65.3053                                         !
 ! D107  D(31,34,41,43)        175.7253                                         !
 ! D108  D(31,34,41,44)         56.1517                                         !
 ! D109  D(35,34,41,42)        178.7884                                         !
 ! D110  D(35,34,41,43)         59.819                                          !
 ! D111  D(35,34,41,44)        -59.7546                                         !
 ! D112  D(37,34,41,42)         60.3642                                         !
 ! D113  D(37,34,41,43)        -58.6052                                         !
 ! D114  D(37,34,41,44)       -178.1788                                         !
 ! D115  D(33,45,47,48)        -12.6967                                         !
 ! D116  D(33,45,47,49)       -127.1621                                         !
 ! D117  D(33,45,47,50)        113.3367                                         !
 ! D118  D(46,45,47,48)        126.8382                                         !
 ! D119  D(46,45,47,49)         12.3728                                         !
 ! D120  D(46,45,47,50)       -107.1284                                         !
 ! D121  D(45,47,49,53)         -5.2084                                         !
 ! D122  D(45,47,49,67)        175.6726                                         !
 ! D123  D(48,47,49,53)       -120.6226                                         !
 ! D124  D(48,47,49,67)         60.2584                                         !
 ! D125  D(50,47,49,53)        118.0587                                         !
 ! D126  D(50,47,49,67)        -61.0604                                         !
 ! D127  D(45,47,50,51)         53.9664                                         !
 ! D128  D(45,47,50,52)        168.4024                                         !
 ! D129  D(45,47,50,54)        -68.7631                                         !
 ! D130  D(48,47,50,51)        178.7114                                         !
 ! D131  D(48,47,50,52)        -66.8526                                         !
 ! D132  D(48,47,50,54)         55.982                                          !
 ! D133  D(49,47,50,51)        -62.3047                                         !
 ! D134  D(49,47,50,52)         52.1313                                         !
 ! D135  D(49,47,50,54)        174.9659                                         !
 ! D136  D(47,50,54,55)        173.4014                                         !
 ! D137  D(47,50,54,56)         58.6883                                         !
 ! D138  D(47,50,54,57)        -63.9844                                         !
 ! D139  D(51,50,54,55)         50.8154                                         !
 ! D140  D(51,50,54,56)        -63.8978                                         !
 ! D141  D(51,50,54,57)        173.4296                                         !
 ! D142  D(52,50,54,55)        -66.3809                                         !
 ! D143  D(52,50,54,56)        178.9059                                         !
 ! D144  D(52,50,54,57)         56.2333                                         !
 ! D145  D(50,54,57,58)        -88.5981                                         !
 ! D146  D(50,54,57,59)         27.8444                                         !
 ! D147  D(50,54,57,60)        149.6244                                         !
 ! D148  D(55,54,57,58)         34.345                                          !
 ! D149  D(55,54,57,59)        150.7875                                         !
 ! D150  D(55,54,57,60)        -87.4325                                         !
 ! D151  D(56,54,57,58)        150.8482                                         !
 ! D152  D(56,54,57,59)        -92.7093                                         !
 ! D153  D(56,54,57,60)         29.0708                                         !
 ! D154  D(54,57,60,61)         65.9832                                         !
 ! D155  D(54,57,60,62)       -171.7882                                         !
 ! D156  D(54,57,60,63)        -53.5394                                         !
 ! D157  D(58,57,60,61)        -57.2997                                         !
 ! D158  D(58,57,60,62)         64.9288                                         !
 ! D159  D(58,57,60,63)       -176.8223                                         !
 ! D160  D(59,57,60,61)       -170.8907                                         !
 ! D161  D(59,57,60,62)        -48.6622                                         !
 ! D162  D(59,57,60,63)         69.5867                                         !
 ! D163  D(57,60,63,64)       -152.3938                                         !
 ! D164  D(57,60,63,65)        -29.1419                                         !
 ! D165  D(57,60,63,66)         88.7529                                         !
 ! D166  D(61,60,63,64)         84.3796                                         !
 ! D167  D(61,60,63,65)       -152.3686                                         !
 ! D168  D(61,60,63,66)        -34.4738                                         !
 ! D169  D(62,60,63,64)        -31.2995                                         !
 ! D170  D(62,60,63,65)         91.9524                                         !
 ! D171  D(62,60,63,66)       -150.1528                                         !
 --------------------------------------------------------------------------------
 Symmetry turned off by external request.
 Stoichiometry    C19H38N5O5(1+)
 Framework group  C1[X(C19H38N5O5)]
 Deg. of freedom   195
 Full point group                 C1      NOp   1
                          Input orientation:                          
 ---------------------------------------------------------------------
 Center     Atomic      Atomic             Coordinates (Angstroms)
 Number     Number       Type             X           Y           Z
 ---------------------------------------------------------------------
      1          7           0       -5.322495    0.699226    4.704242
      2          1           0       -5.014299    0.181975    5.532431
      3          1           0       -6.152763    1.242938    4.954774
      4          1           0       -5.549424    0.013019    3.909668
      5          6           0       -4.231646    1.516782    4.067703
      6          1           0       -3.328742    1.470514    4.679125
      7          1           0       -4.555006    2.555618    3.982719
      8          6           0       -4.037815    0.851481    2.675779
      9          8           0       -4.794406   -0.095686    2.406583
     10          7           0       -3.092514    1.368317    1.909187
     11          1           0       -2.404677    2.033459    2.283938
     12          6           0       -2.601552    0.798776    0.647169
     13          1           0       -2.814952   -0.273767    0.644918
     14          6           0       -1.071419    1.051695    0.714065
     15          6           0       -3.215550    1.486496   -0.591133
     16          1           0       -2.989956    2.558677   -0.520055
     17          1           0       -2.675891    1.116815   -1.474629
     18          8           0       -0.642501    1.895377    1.507838
     19          6           0       -4.728383    1.283805   -0.809583
     20          1           0       -5.250748    1.600145    0.104808
     21          6           0       -5.206586    2.189127   -1.955609
     22          1           0       -4.717237    1.919330   -2.900561
     23          1           0       -6.286940    2.091641   -2.106262
     24          1           0       -4.988533    3.244686   -1.756094
     25          6           0       -5.091765   -0.183292   -1.082349
     26          1           0       -4.563455   -0.560593   -1.968102
     27          1           0       -4.853871   -0.834304   -0.235237
     28          1           0       -6.165276   -0.283499   -1.275627
     29          7           0       -0.313511    0.324335   -0.119043
     30          1           0       -0.737564   -0.285394   -0.808675
     31          6           0        1.139428    0.452132   -0.223233
     32          1           0        1.405295    1.443044    0.154987
     33          6           0        1.539186    0.343867   -1.702350
     34          6           0        1.911543   -0.619100    0.614655
     35          1           0        2.973904   -0.452149    0.393568
     36          8           0        0.727622   -0.207670   -2.509222
     37          6           0        1.701176   -0.409122    2.119717
     38          1           0        0.660886   -0.598052    2.413176
     39          1           0        2.335177   -1.102880    2.682068
     40          1           0        1.958764    0.609644    2.426638
     41          6           0        1.558396   -2.054468    0.198350
     42          1           0        0.507926   -2.289441    0.415780
     43          1           0        2.175616   -2.765886    0.756040
     44          1           0        1.732605   -2.233068   -0.867838
     45          7           0        2.754543    0.782905   -1.972859
     46          1           0        3.393336    1.002772   -1.156998
     47          6           0        3.712479    0.250817   -2.956743
     48          1           0        3.363215   -0.727913   -3.300613
     49          6           0        5.047705    0.017197   -2.099429
     50          6           0        4.018140    1.181201   -4.132394
     51          1           0        4.341110    2.153074   -3.739876
     52          1           0        4.882632    0.745757   -4.645326
     53          8           0        4.953763    0.433662   -0.904178
     54          6           0        2.853781    1.396397   -5.111126
     55          1           0        3.117645    2.161515   -5.851559
     56          1           0        2.012644    1.814845   -4.537327
     57          6           0        2.444075    0.095699   -5.833395
     58          1           0        3.030758   -0.030949   -6.750231
     59          1           0        2.676934   -0.771914   -5.207348
     60          6           0        0.971530    0.006182   -6.215840
     61          1           0        0.680437    0.742416   -6.970239
     62          1           0        0.717827   -0.988582   -6.589637
     63          7           0        0.090182    0.251905   -4.999854
     64          1           0       -0.811038   -0.223585   -5.089430
     65          1           0        0.529538   -0.038990   -4.041038
     66          1           0       -0.106366    1.250088   -4.896756
     67          8           0        5.971234   -0.511617   -2.719335
 ---------------------------------------------------------------------
 Rotational constants (GHZ):           0.2410888           0.0732613           0.0601643
 Standard basis: 6-31G(d) (6D, 7F)
   511 basis functions,   964 primitive gaussians,   511 cartesian basis functions
   113 alpha electrons      113 beta electrons
       nuclear repulsion energy      3032.9985794022 Hartrees.
 NAtoms=   67 NActive=   67 NUniq=   67 SFac= 1.00D+00 NAtFMM=   60 NAOKFM=T Big=T
 Integral buffers will be    131072 words long.
 Raffenetti 2 integral format.
 Two-electron integral symmetry is turned off.
 One-electron integrals computed using PRISM.
 NBasis=   511 RedAO= T EigKep=  2.02D-03  NBF=   511
 NBsUse=   511 1.00D-06 EigRej= -1.00D+00 NBFU=   511
 Initial guess from the checkpoint file:  "conf-669.chk"
 B after Tr=     0.000000    0.000000    0.000000
         Rot=    1.000000    0.000000    0.000000    0.000000 Ang=   0.00 deg.
 Requested convergence on RMS density matrix=1.00D-08 within 128 cycles.
 Requested convergence on MAX density matrix=1.00D-06.
 Requested convergence on             energy=1.00D-06.
 No special actions if energy rises.
 SCF Done:  E(RB3LYP) =  -1396.58905633     A.U. after    3 cycles
            NFock=  3  Conv=0.72D-09     -V/T= 2.0095

 **********************************************************************

            Population analysis using the SCF Density.

 **********************************************************************

 Alpha  occ. eigenvalues --  -19.29171 -19.22917 -19.22207 -19.10752 -19.09297
 Alpha  occ. eigenvalues --  -14.62605 -14.55383 -14.51075 -14.46609 -14.41703
 Alpha  occ. eigenvalues --  -10.45962 -10.42932 -10.40077 -10.37451 -10.36065
 Alpha  occ. eigenvalues --  -10.35895 -10.31589 -10.30397 -10.29608 -10.28666
 Alpha  occ. eigenvalues --  -10.28310 -10.27094 -10.27033 -10.26898 -10.26243
 Alpha  occ. eigenvalues --  -10.26218 -10.24095 -10.23931 -10.23861  -1.21525
 Alpha  occ. eigenvalues --   -1.16185  -1.14935  -1.12264  -1.09905  -1.07804
 Alpha  occ. eigenvalues --   -1.03804  -1.02931  -0.98978  -0.94963  -0.93438
 Alpha  occ. eigenvalues --   -0.90876  -0.89679  -0.88195  -0.85857  -0.83952
 Alpha  occ. eigenvalues --   -0.80066  -0.78158  -0.77677  -0.76949  -0.76496
 Alpha  occ. eigenvalues --   -0.76243  -0.75027  -0.73143  -0.72062  -0.69871
 Alpha  occ. eigenvalues --   -0.69573  -0.68607  -0.67593  -0.66510  -0.66374
 Alpha  occ. eigenvalues --   -0.65334  -0.64313  -0.63096  -0.62730  -0.61726
 Alpha  occ. eigenvalues --   -0.60493  -0.59905  -0.58455  -0.57821  -0.56238
 Alpha  occ. eigenvalues --   -0.55818  -0.55186  -0.55048  -0.54649  -0.53723
 Alpha  occ. eigenvalues --   -0.53488  -0.52835  -0.52355  -0.51861  -0.50962
 Alpha  occ. eigenvalues --   -0.50324  -0.49548  -0.49301  -0.48909  -0.48676
 Alpha  occ. eigenvalues --   -0.48092  -0.47469  -0.46624  -0.46271  -0.45462
 Alpha  occ. eigenvalues --   -0.45412  -0.44477  -0.44119  -0.43671  -0.43492
 Alpha  occ. eigenvalues --   -0.43084  -0.42928  -0.41964  -0.41878  -0.40976
 Alpha  occ. eigenvalues --   -0.40825  -0.40358  -0.40233  -0.39864  -0.39422
 Alpha  occ. eigenvalues --   -0.37737  -0.37191  -0.36383  -0.35022  -0.33701
 Alpha  occ. eigenvalues --   -0.25724  -0.25520  -0.23311
 Alpha virt. eigenvalues --   -0.14255  -0.13670  -0.08690  -0.08455  -0.08191
 Alpha virt. eigenvalues --   -0.06958  -0.06567  -0.03430  -0.03329  -0.02921
 Alpha virt. eigenvalues --   -0.01895  -0.00129  -0.00070   0.00406   0.02048
 Alpha virt. eigenvalues --    0.02294   0.02498   0.02684   0.03212   0.03281
 Alpha virt. eigenvalues --    0.03981   0.04530   0.04813   0.04887   0.05642
 Alpha virt. eigenvalues --    0.05929   0.06079   0.06612   0.07153   0.07263
 Alpha virt. eigenvalues --    0.07857   0.08409   0.08591   0.08661   0.08969
 Alpha virt. eigenvalues --    0.09579   0.10520   0.10716   0.11227   0.11375
 Alpha virt. eigenvalues --    0.11594   0.12001   0.12206   0.12695   0.13049
 Alpha virt. eigenvalues --    0.13351   0.13489   0.14173   0.15394   0.15549
 Alpha virt. eigenvalues --    0.15789   0.16447   0.16930   0.17232   0.18140
 Alpha virt. eigenvalues --    0.18590   0.19026   0.19374   0.19598   0.20900
 Alpha virt. eigenvalues --    0.21064   0.23018   0.24376   0.25841   0.27290
 Alpha virt. eigenvalues --    0.28758   0.31584   0.33602   0.33951   0.35240
 Alpha virt. eigenvalues --    0.37012   0.37611   0.38828   0.39622   0.40055
 Alpha virt. eigenvalues --    0.40482   0.40771   0.41357   0.41620   0.42290
 Alpha virt. eigenvalues --    0.42450   0.43753   0.44561   0.44847   0.45052
 Alpha virt. eigenvalues --    0.45552   0.46271   0.47223   0.47885   0.48582
 Alpha virt. eigenvalues --    0.50019   0.50557   0.50942   0.51525   0.52375
 Alpha virt. eigenvalues --    0.52605   0.52716   0.53519   0.54351   0.55276
 Alpha virt. eigenvalues --    0.55588   0.55762   0.56404   0.57368   0.57370
 Alpha virt. eigenvalues --    0.58377   0.59090   0.59151   0.59674   0.60998
 Alpha virt. eigenvalues --    0.61707   0.61800   0.61876   0.62449   0.63130
 Alpha virt. eigenvalues --    0.63358   0.64036   0.64257   0.65349   0.66095
 Alpha virt. eigenvalues --    0.66151   0.66675   0.67384   0.67863   0.68195
 Alpha virt. eigenvalues --    0.68468   0.69007   0.69619   0.70648   0.70961
 Alpha virt. eigenvalues --    0.71904   0.72803   0.73208   0.73844   0.74226
 Alpha virt. eigenvalues --    0.74759   0.74852   0.75189   0.75866   0.76265
 Alpha virt. eigenvalues --    0.76864   0.77163   0.77350   0.77955   0.78587
 Alpha virt. eigenvalues --    0.78972   0.79835   0.80016   0.80925   0.81062
 Alpha virt. eigenvalues --    0.81370   0.81893   0.82096   0.82400   0.82671
 Alpha virt. eigenvalues --    0.82917   0.83579   0.84140   0.84861   0.84966
 Alpha virt. eigenvalues --    0.85327   0.85653   0.86228   0.86642   0.87098
 Alpha virt. eigenvalues --    0.87501   0.88371   0.88548   0.89498   0.89935
 Alpha virt. eigenvalues --    0.90596   0.90968   0.91282   0.92317   0.92760
 Alpha virt. eigenvalues --    0.93181   0.93617   0.93957   0.95435   0.96251
 Alpha virt. eigenvalues --    0.98633   0.98935   0.99946   1.00817   1.01066
 Alpha virt. eigenvalues --    1.02256   1.03856   1.03982   1.05169   1.06541
 Alpha virt. eigenvalues --    1.07899   1.08725   1.09961   1.11397   1.12875
 Alpha virt. eigenvalues --    1.13170   1.15449   1.15623   1.17332   1.19310
 Alpha virt. eigenvalues --    1.20532   1.21505   1.23196   1.25645   1.26790
 Alpha virt. eigenvalues --    1.27834   1.28784   1.29527   1.30187   1.32444
 Alpha virt. eigenvalues --    1.33890   1.34646   1.35037   1.35959   1.36778
 Alpha virt. eigenvalues --    1.37183   1.39014   1.39903   1.41188   1.41772
 Alpha virt. eigenvalues --    1.43335   1.45679   1.45938   1.47309   1.49224
 Alpha virt. eigenvalues --    1.50523   1.50949   1.51639   1.53549   1.54323
 Alpha virt. eigenvalues --    1.55657   1.56045   1.56413   1.58124   1.58561
 Alpha virt. eigenvalues --    1.60236   1.60566   1.62616   1.63249   1.64626
 Alpha virt. eigenvalues --    1.64998   1.65445   1.66322   1.66660   1.68022
 Alpha virt. eigenvalues --    1.69058   1.69893   1.70068   1.71149   1.71377
 Alpha virt. eigenvalues --    1.72462   1.72668   1.73197   1.74466   1.74643
 Alpha virt. eigenvalues --    1.75906   1.75985   1.76349   1.77093   1.79057
 Alpha virt. eigenvalues --    1.79920   1.80131   1.81125   1.81693   1.83235
 Alpha virt. eigenvalues --    1.83617   1.84266   1.84778   1.85149   1.85488
 Alpha virt. eigenvalues --    1.85858   1.87154   1.87245   1.87561   1.88943
 Alpha virt. eigenvalues --    1.90103   1.90543   1.90641   1.92159   1.92332
 Alpha virt. eigenvalues --    1.93253   1.94370   1.94475   1.95455   1.96086
 Alpha virt. eigenvalues --    1.96957   1.97338   1.97940   1.98489   1.98683
 Alpha virt. eigenvalues --    2.00307   2.00941   2.01466   2.01732   2.04397
 Alpha virt. eigenvalues --    2.04813   2.05621   2.07368   2.09034   2.10443
 Alpha virt. eigenvalues --    2.11210   2.11958   2.12424   2.13004   2.13597
 Alpha virt. eigenvalues --    2.14137   2.14696   2.16356   2.17608   2.18733
 Alpha virt. eigenvalues --    2.19663   2.19864   2.20346   2.22036   2.23442
 Alpha virt. eigenvalues --    2.24261   2.25974   2.26379   2.27063   2.28807
 Alpha virt. eigenvalues --    2.29477   2.29870   2.31154   2.31913   2.32475
 Alpha virt. eigenvalues --    2.34743   2.36517   2.37341   2.38778   2.40484
 Alpha virt. eigenvalues --    2.41433   2.41985   2.42951   2.43102   2.43958
 Alpha virt. eigenvalues --    2.45407   2.47006   2.48188   2.50086   2.51428
 Alpha virt. eigenvalues --    2.52093   2.53334   2.57066   2.59744   2.60536
 Alpha virt. eigenvalues --    2.62546   2.62850   2.63043   2.64031   2.67039
 Alpha virt. eigenvalues --    2.67793   2.69376   2.71530   2.74352   2.76658
 Alpha virt. eigenvalues --    2.77513   2.78290   2.81620   2.84119   2.85298
 Alpha virt. eigenvalues --    2.87331   2.88864   2.92764   2.94268   2.99720
 Alpha virt. eigenvalues --    3.01194   3.06976   3.10600   3.17507   3.60543
 Alpha virt. eigenvalues --    3.71404   3.89302   3.92581   3.92788   3.94697
 Alpha virt. eigenvalues --    4.00859   4.04678   4.06159   4.07620   4.09927
 Alpha virt. eigenvalues --    4.11132   4.17938   4.18386   4.19300   4.22518
 Alpha virt. eigenvalues --    4.24223   4.28313   4.32258   4.32761   4.33922
 Alpha virt. eigenvalues --    4.38064   4.38825   4.45586   4.47062   4.48696
 Alpha virt. eigenvalues --    4.55130   4.60376   4.63716
          Condensed to atoms (all electrons):
 Mulliken charges:
               1
     1  N   -0.750260
     2  H    0.425258
     3  H    0.423885
     4  H    0.439750
     5  C   -0.279356
     6  H    0.252361
     7  H    0.250741
     8  C    0.634991
     9  O   -0.528687
    10  N   -0.585604
    11  H    0.376916
    12  C   -0.089583
    13  H    0.191937
    14  C    0.638830
    15  C   -0.252114
    16  H    0.157852
    17  H    0.135934
    18  O   -0.543107
    19  C   -0.071925
    20  H    0.123607
    21  C   -0.444525
    22  H    0.137362
    23  H    0.162238
    24  H    0.151395
    25  C   -0.457676
    26  H    0.134388
    27  H    0.162497
    28  H    0.162510
    29  N   -0.602808
    30  H    0.346215
    31  C   -0.071927
    32  H    0.197778
    33  C    0.612541
    34  C   -0.098594
    35  H    0.205488
    36  O   -0.655885
    37  C   -0.444033
    38  H    0.117499
    39  H    0.163743
    40  H    0.162640
    41  C   -0.463040
    42  H    0.120844
    43  H    0.171462
    44  H    0.160299
    45  N   -0.569996
    46  H    0.379859
    47  C   -0.118086
    48  H    0.144518
    49  C    0.607244
    50  C   -0.261876
    51  H    0.155030
    52  H    0.188958
    53  O   -0.605972
    54  C   -0.282388
    55  H    0.159626
    56  H    0.102838
    57  C   -0.286259
    58  H    0.187754
    59  H    0.181461
    60  C   -0.185730
    61  H    0.195729
    62  H    0.202364
    63  N   -0.770565
    64  H    0.390878
    65  H    0.458200
    66  H    0.394102
    67  O   -0.549526
 Sum of Mulliken charges =   1.00000
 Mulliken charges with hydrogens summed into heavy atoms:
               1
     1  N    0.538633
     5  C    0.223746
     8  C    0.634991
     9  O   -0.528687
    10  N   -0.208688
    12  C    0.102354
    14  C    0.638830
    15  C    0.041672
    18  O   -0.543107
    19  C    0.051682
    21  C    0.006470
    25  C    0.001719
    29  N   -0.256593
    31  C    0.125850
    33  C    0.612541
    34  C    0.106894
    36  O   -0.655885
    37  C   -0.000152
    41  C   -0.010435
    45  N   -0.190137
    47  C    0.026433
    49  C    0.607244
    50  C    0.082112
    53  O   -0.605972
    54  C   -0.019924
    57  C    0.082956
    60  C    0.212363
    63  N    0.472616
    67  O   -0.549526
 Electronic spatial extent (au):  <R**2>=          18340.0672
 Charge=              1.0000 electrons
 Dipole moment (field-independent basis, Debye):
    X=            -31.1939    Y=              5.5638    Z=              4.5670  Tot=             32.0136
 Quadrupole moment (field-independent basis, Debye-Ang):
   XX=           -149.5333   YY=           -166.2913   ZZ=             -3.5089
   XY=            -20.0505   XZ=            -70.5967   YZ=              7.4020
 Traceless Quadrupole moment (field-independent basis, Debye-Ang):
   XX=            -43.0888   YY=            -59.8468   ZZ=            102.9356
   XY=            -20.0505   XZ=            -70.5967   YZ=              7.4020
 Octapole moment (field-independent basis, Debye-Ang**2):
  XXX=           -948.5288  YYY=           -242.8345  ZZZ=            410.6980  XYY=             -7.2023
  XXY=             72.4544  XXZ=            745.6347  XZZ=           -436.6877  YZZ=             23.8542
  YYZ=            167.6212  XYZ=           -117.6040
 Hexadecapole moment (field-independent basis, Debye-Ang**3):
 XXXX=         -12670.1056 YYYY=          -1389.6028 ZZZZ=          -4185.0544 XXXY=            235.6490
 XXXZ=           1006.3239 YYYX=            606.3162 YYYZ=            160.7479 ZZZX=             68.7036
 ZZZY=            340.8261 XXYY=          -2151.0982 XXZZ=          -1376.1271 YYZZ=          -1625.3628
 XXYZ=            367.9581 YYXZ=            731.1433 ZZXY=            -95.2966
 N-N= 3.032998579402D+03 E-N=-9.296133899125D+03  KE= 1.383472991646D+03
 Unable to Open any file for archive entry.
 1\1\GINC-QML-000\SP\RB3LYP\6-31G(d)\C19H38N5O5(1+)\KENGMITH\27-May-202
 2\0\\# B3LYP/6-31G* guess=read geom=check nosymm integral(ultrafinegri
 d)\\Candidate Structure: Conf:669 Charge calc in gas phase\\1,1\N,0,-5
 .3224948893,0.6992264976,4.7042423742\H,0,-5.0142990468,0.1819746615,5
 .5324305193\H,0,-6.152763309,1.2429384147,4.9547739892\H,0,-5.54942444
 58,0.0130189783,3.909668453\C,0,-4.2316463405,1.5167820196,4.067703321
 5\H,0,-3.3287424905,1.4705144085,4.6791252027\H,0,-4.5550056173,2.5556
 182295,3.982719385\C,0,-4.0378148273,0.8514813086,2.6757788887\O,0,-4.
 7944064331,-0.0956856147,2.4065833096\N,0,-3.0925142052,1.3683169749,1
 .9091874543\H,0,-2.4046766071,2.0334588206,2.2839382831\C,0,-2.6015520
 278,0.7987757005,0.6471690539\H,0,-2.8149519425,-0.2737670347,0.644918
 0452\C,0,-1.0714187071,1.051694687,0.7140645786\C,0,-3.2155501572,1.48
 64960826,-0.5911334148\H,0,-2.9899558357,2.5586772962,-0.5200547073\H,
 0,-2.6758913787,1.1168152233,-1.4746287875\O,0,-0.6425013067,1.8953767
 953,1.5078379403\C,0,-4.7283834366,1.2838054836,-0.8095828572\H,0,-5.2
 507484764,1.6001446711,0.1048081511\C,0,-5.2065860673,2.1891265557,-1.
 9556085095\H,0,-4.7172369537,1.9193300366,-2.9005605437\H,0,-6.2869398
 95,2.0916412433,-2.1062623678\H,0,-4.9885325117,3.2446858641,-1.756094
 1462\C,0,-5.0917649722,-0.1832920606,-1.082349136\H,0,-4.5634545819,-0
 .5605933202,-1.9681022806\H,0,-4.8538713469,-0.8343038476,-0.235237183
 9\H,0,-6.1652756383,-0.2834986565,-1.2756270678\N,0,-0.3135111335,0.32
 43348636,-0.1190434674\H,0,-0.7375640579,-0.2853942575,-0.8086753339\C
 ,0,1.1394280682,0.4521320781,-0.2232327249\H,0,1.4052953892,1.44304437
 65,0.1549865663\C,0,1.5391862748,0.3438669058,-1.70235012\C,0,1.911543
 2076,-0.6191004998,0.6146546182\H,0,2.97390411,-0.452149411,0.39356770
 14\O,0,0.7276215887,-0.207669511,-2.5092216204\C,0,1.7011763811,-0.409
 1215998,2.1197165202\H,0,0.6608863151,-0.5980516247,2.4131760699\H,0,2
 .335176663,-1.1028801435,2.6820683255\H,0,1.9587644202,0.6096438647,2.
 4266379392\C,0,1.558396486,-2.0544678659,0.1983500987\H,0,0.5079260896
 ,-2.2894411699,0.415780495\H,0,2.1756164799,-2.7658861289,0.7560395186
 \H,0,1.7326052091,-2.2330682587,-0.8678377385\N,0,2.7545434859,0.78290
 51161,-1.9728585721\H,0,3.3933362206,1.002771739,-1.1569980112\C,0,3.7
 124790511,0.2508170583,-2.9567426037\H,0,3.363214676,-0.7279134665,-3.
 3006134998\C,0,5.047704616,0.0171973993,-2.0994289241\C,0,4.0181402185
 ,1.1812008223,-4.1323939002\H,0,4.3411102918,2.1530741462,-3.739876145
 7\H,0,4.8826318252,0.7457567657,-4.6453262467\O,0,4.9537625139,0.43366
 20995,-0.9041783994\C,0,2.8537813747,1.3963969356,-5.1111262129\H,0,3.
 1176454633,2.1615153625,-5.8515592456\H,0,2.012643975,1.8148452639,-4.
 5373268895\C,0,2.4440754525,0.0956992692,-5.8333952732\H,0,3.030758247
 9,-0.0309491866,-6.7502312849\H,0,2.676933576,-0.7719141592,-5.2073476
 085\C,0,0.971530194,0.0061818847,-6.2158400879\H,0,0.6804367344,0.7424
 156719,-6.9702389523\H,0,0.7178274615,-0.9885816811,-6.5896370014\N,0,
 0.0901820257,0.2519045539,-4.9998539736\H,0,-0.8110384321,-0.223585455
 7,-5.0894297284\H,0,0.5295375965,-0.0389898797,-4.0410379921\H,0,-0.10
 63658173,1.2500879473,-4.8967557681\O,0,5.9712343255,-0.5116165133,-2.
 7193346842\\Version=ES64L-G16RevC.01\HF=-1396.5890563\RMSD=7.191e-10\D
 ipole=-11.9175313,1.2605586,3.3993455\Quadrupole=-32.0354514,-44.49463
 15,76.5300829,-14.9070451,-52.4868974,5.5032009\PG=C01 [X(C19H38N5O5)]
 \\@
 The archive entry for this job was punched.


 WE HAVE LEARNED THAT NOTHING IS SIMPLE AND
 RATIONAL EXCEPT WHAT WE OURSELVES HAVE INVENTED;
 THAT GOD THINKS IN TERMS NEITHER OF EUCLID OR RIEMANN; THAT SCIENCE HAS "EXPLAINED" NOTHING;
 THAT THE MORE WE KNOW THE MORE FANTASTIC THE WORLD BECOMES
 AND THE PROFOUNDER THE SURROUNDING DARKNESS.
   --  ALDOUS HUXLEY
 Job cpu time:       0 days  0 hours  4 minutes 24.3 seconds.
 Elapsed time:       0 days  0 hours  1 minutes  6.7 seconds.
 File lengths (MBytes):  RWF=    256 Int=      0 D2E=      0 Chk=     40 Scr=     16
 Normal termination of Gaussian 16 at Fri May 27 02:06:45 2022.
