 Entering Gaussian System, Link 0=/opt/software/Gaussian/g16-AVX2-C.01/g16/g16
 Input=charge-conf-962.com
 Output=charge-conf-962.log
 Initial command:
 /opt/software/Gaussian/g16-AVX2-C.01/g16/l1.exe "/mnt/gs18/scratch/users/kengmith/Gau-67359.inp" -scrdir="/mnt/gs18/scratch/users/kengmith/"
 Entering Link 1 = /opt/software/Gaussian/g16-AVX2-C.01/g16/l1.exe PID=     67369.
  
 Copyright (c) 1988-2019, Gaussian, Inc.  All Rights Reserved.
  
 This is part of the Gaussian(R) 16 program.  It is based on
 the Gaussian(R) 09 system (copyright 2009, Gaussian, Inc.),
 the Gaussian(R) 03 system (copyright 2003, Gaussian, Inc.),
 the Gaussian(R) 98 system (copyright 1998, Gaussian, Inc.),
 the Gaussian(R) 94 system (copyright 1995, Gaussian, Inc.),
 the Gaussian 92(TM) system (copyright 1992, Gaussian, Inc.),
 the Gaussian 90(TM) system (copyright 1990, Gaussian, Inc.),
 the Gaussian 88(TM) system (copyright 1988, Gaussian, Inc.),
 the Gaussian 86(TM) system (copyright 1986, Carnegie Mellon
 University), and the Gaussian 82(TM) system (copyright 1983,
 Carnegie Mellon University). Gaussian is a federally registered
 trademark of Gaussian, Inc.
  
 This software contains proprietary and confidential information,
 including trade secrets, belonging to Gaussian, Inc.
  
 This software is provided under written license and may be
 used, copied, transmitted, or stored only in accord with that
 written license.
  
 The following legend is applicable only to US Government
 contracts under FAR:
  
                    RESTRICTED RIGHTS LEGEND
  
 Use, reproduction and disclosure by the US Government is
 subject to restrictions as set forth in subparagraphs (a)
 and (c) of the Commercial Computer Software - Restricted
 Rights clause in FAR 52.227-19.
  
 Gaussian, Inc.
 340 Quinnipiac St., Bldg. 40, Wallingford CT 06492
  
  
 ---------------------------------------------------------------
 Warning -- This program may not be used in any manner that
 competes with the business of Gaussian, Inc. or will provide
 assistance to any competitor of Gaussian, Inc.  The licensee
 of this program is prohibited from giving any competitor of
 Gaussian, Inc. access to this program.  By using this program,
 the user acknowledges that Gaussian, Inc. is engaged in the
 business of creating and licensing software in the field of
 computational chemistry and represents and warrants to the
 licensee that it is not a competitor of Gaussian, Inc. and that
 it will not use this program in any manner prohibited above.
 ---------------------------------------------------------------
  

 Cite this work as:
 Gaussian 16, Revision C.01,
 M. J. Frisch, G. W. Trucks, H. B. Schlegel, G. E. Scuseria, 
 M. A. Robb, J. R. Cheeseman, G. Scalmani, V. Barone, 
 G. A. Petersson, H. Nakatsuji, X. Li, M. Caricato, A. V. Marenich, 
 J. Bloino, B. G. Janesko, R. Gomperts, B. Mennucci, H. P. Hratchian, 
 J. V. Ortiz, A. F. Izmaylov, J. L. Sonnenberg, D. Williams-Young, 
 F. Ding, F. Lipparini, F. Egidi, J. Goings, B. Peng, A. Petrone, 
 T. Henderson, D. Ranasinghe, V. G. Zakrzewski, J. Gao, N. Rega, 
 G. Zheng, W. Liang, M. Hada, M. Ehara, K. Toyota, R. Fukuda, 
 J. Hasegawa, M. Ishida, T. Nakajima, Y. Honda, O. Kitao, H. Nakai, 
 T. Vreven, K. Throssell, J. A. Montgomery, Jr., J. E. Peralta, 
 F. Ogliaro, M. J. Bearpark, J. J. Heyd, E. N. Brothers, K. N. Kudin, 
 V. N. Staroverov, T. A. Keith, R. Kobayashi, J. Normand, 
 K. Raghavachari, A. P. Rendell, J. C. Burant, S. S. Iyengar, 
 J. Tomasi, M. Cossi, J. M. Millam, M. Klene, C. Adamo, R. Cammi, 
 J. W. Ochterski, R. L. Martin, K. Morokuma, O. Farkas, 
 J. B. Foresman, and D. J. Fox, Gaussian, Inc., Wallingford CT, 2019.
 
 ******************************************
 Gaussian 16:  ES64L-G16RevC.01  3-Jul-2019
                27-May-2022 
 ******************************************
 %mem=8gb
 %nproc=4
 Will use up to    4 processors via shared memory.
 %chk=conf-962.chk
 -------------------------------------------------------------------
 # B3LYP/6-31G* guess=read geom=check nosymm integral(ultrafinegrid)
 -------------------------------------------------------------------
 1/29=2,38=1,172=1/1;
 2/12=2,15=1,40=1/2;
 3/5=1,6=6,7=1,11=2,14=-4,25=1,30=1,74=-5,75=-5,116=-2/1,2,3;
 4/5=1/1;
 5/5=2,38=6/2;
 6/7=2,8=2,9=2,10=2,28=1/1;
 99/5=1,9=1/99;
 ------------------------------------------------------
 Candidate Structure: Conf:962 Charge calc in gas phase
 ------------------------------------------------------
 Structure from the checkpoint file:  "conf-962.chk"
 Charge =  1 Multiplicity = 1
 Redundant internal coordinates found in file.  (old form).
 N,0,-5.8348812252,-0.4380205006,4.0481032416
 H,0,-5.7788502073,-1.3190198987,4.5664210462
 H,0,-6.5601261811,0.1428494189,4.4775024454
 H,0,-6.073222596,-0.6307326593,3.0169264975
 C,0,-4.5103816052,0.2597315425,3.9010496224
 H,0,-3.7385981006,-0.2950092718,4.4376367914
 H,0,-4.5783657636,1.2685342693,4.3114270019
 C,0,-4.2692278606,0.2686015303,2.3646134259
 O,0,-5.1566050771,-0.2472616591,1.6648535716
 N,0,-3.1488097548,0.8364211799,1.9547672517
 H,0,-2.3996569392,1.0801971293,2.6145173109
 C,0,-2.628745449,0.8371284654,0.5810842506
 H,0,-3.0189449824,-0.0422589292,0.0604231878
 C,0,-1.0945960458,0.718870045,0.7809084339
 C,0,-2.9786124403,2.1327794346,-0.1843531942
 H,0,-2.5888449289,2.976846252,0.3995746849
 H,0,-2.4122299663,2.1250789642,-1.1256002344
 O,0,-0.6155276005,0.9396612267,1.8987306414
 C,0,-4.4694834613,2.362537602,-0.5039928744
 H,0,-5.0358481051,2.3081409477,0.4369916004
 C,0,-4.6554878266,3.7752817697,-1.0798976324
 H,0,-4.1071869763,3.8911423273,-2.0233070703
 H,0,-5.7122155846,3.9769388534,-1.2855263251
 H,0,-4.294353231,4.5448532551,-0.3879256691
 C,0,-5.0338006389,1.3026343998,-1.4615719121
 H,0,-4.4785760896,1.2958982093,-2.4087935599
 H,0,-5.0004912965,0.2956993699,-1.0329885514
 H,0,-6.0812880004,1.5183125388,-1.6986060569
 N,0,-0.3732949964,0.4027176331,-0.3029758061
 H,0,-0.8012748829,0.2667296188,-1.2128546066
 C,0,1.0908685253,0.3475826253,-0.2970402997
 H,0,1.4481317645,1.1318634528,0.3763524714
 C,0,1.544622535,0.6512693694,-1.7305549478
 C,0,1.6124890933,-1.0246225592,0.2417226899
 H,0,1.0158371299,-1.1949940201,1.1475932127
 O,0,0.7454925318,0.3526619441,-2.6763055985
 C,0,1.3503847714,-2.1844533842,-0.7287245873
 H,0,1.9733695518,-2.1033328807,-1.6271005409
 H,0,1.5958187376,-3.1371076146,-0.2478367947
 H,0,0.3016520534,-2.2289016001,-1.0452091923
 C,0,3.0866271415,-0.9550220421,0.6675668996
 H,0,3.769170202,-0.7419849429,-0.1615635283
 H,0,3.38754471,-1.9113885173,1.1092200631
 H,0,3.2424179095,-0.179267225,1.4262998134
 N,0,2.7366944521,1.182716726,-1.869023926
 H,0,3.4402490965,1.2253541436,-1.0833303638
 C,0,3.5621335213,1.3343613571,-3.0688945928
 H,0,3.3779856419,0.5067991832,-3.7639365508
 C,0,5.0629869436,1.1502336982,-2.5402912321
 C,0,3.4116912373,2.6955016831,-3.7555300893
 H,0,3.4489279826,3.4678698637,-2.9776828216
 H,0,4.3094024435,2.8262286453,-4.3704472491
 O,0,5.9153315526,1.1205610887,-3.4312751592
 C,0,2.1539036319,2.9044619411,-4.6181954796
 H,0,2.0642114158,3.9729677624,-4.8443039668
 H,0,1.255386183,2.6469171421,-4.0412748298
 C,0,2.1780393189,2.1238198173,-5.9610349987
 H,0,2.0682424452,2.8191689914,-6.8010100775
 H,0,3.1563360617,1.6450745956,-6.10861133
 C,0,1.080770813,1.0797657942,-6.1476098635
 H,0,0.0893771687,1.4916801721,-5.9392387536
 H,0,1.0831801141,0.6755993193,-7.1639370339
 N,0,1.253065201,-0.0915428866,-5.2086202472
 H,0,0.57504674,-0.8318906585,-5.4107527903
 H,0,2.1882713367,-0.4974743615,-5.3126828307
 H,0,1.1260264964,0.1788852394,-4.1536007361
 O,0,5.1371850386,1.0742600432,-1.2795336007
 Recover connectivity data from disk.
                           ----------------------------
                           !    Current Parameters    !
                           ! (Angstroms and Degrees)  !
 --------------------------                            --------------------------
 ! Name  Definition              Value                                          !
 --------------------------------------------------------------------------------
 ! R1    R(1,2)                  1.0237                                         !
 ! R2    R(1,3)                  1.0236                                         !
 ! R3    R(1,4)                  1.0758                                         !
 ! R4    R(1,5)                  1.5043                                         !
 ! R5    R(5,6)                  1.0915                                         !
 ! R6    R(5,7)                  1.0912                                         !
 ! R7    R(5,8)                  1.5553                                         !
 ! R8    R(8,9)                  1.2423                                         !
 ! R9    R(8,10)                 1.3213                                         !
 ! R10   R(10,11)                1.0276                                         !
 ! R11   R(10,12)                1.4688                                         !
 ! R12   R(12,13)                1.0939                                         !
 ! R13   R(12,14)                1.5516                                         !
 ! R14   R(12,15)                1.545                                          !
 ! R15   R(14,18)                1.236                                          !
 ! R16   R(14,29)                1.3398                                         !
 ! R17   R(15,16)                1.0979                                         !
 ! R18   R(15,17)                1.0985                                         !
 ! R19   R(15,19)                1.542                                          !
 ! R20   R(19,20)                1.0996                                         !
 ! R21   R(19,21)                1.5369                                         !
 ! R22   R(19,25)                1.5358                                         !
 ! R23   R(21,22)                1.0973                                         !
 ! R24   R(21,23)                1.0953                                         !
 ! R25   R(21,24)                1.0961                                         !
 ! R26   R(25,26)                1.098                                          !
 ! R27   R(25,27)                1.0949                                         !
 ! R28   R(25,28)                1.0954                                         !
 ! R29   R(29,30)                1.0147                                         !
 ! R30   R(29,31)                1.4652                                         !
 ! R31   R(31,32)                1.0937                                         !
 ! R32   R(31,33)                1.534                                          !
 ! R33   R(31,34)                1.5637                                         !
 ! R34   R(33,36)                1.2737                                         !
 ! R35   R(33,45)                1.3125                                         !
 ! R36   R(34,35)                1.098                                          !
 ! R37   R(34,37)                1.5348                                         !
 ! R38   R(34,41)                1.536                                          !
 ! R39   R(37,38)                1.0963                                         !
 ! R40   R(37,39)                1.095                                          !
 ! R41   R(37,40)                1.0963                                         !
 ! R42   R(41,42)                1.0949                                         !
 ! R43   R(41,43)                1.0956                                         !
 ! R44   R(41,44)                1.0962                                         !
 ! R45   R(45,46)                1.0555                                         !
 ! R46   R(45,47)                1.4643                                         !
 ! R47   R(47,48)                1.0963                                         !
 ! R48   R(47,49)                1.6018                                         !
 ! R49   R(47,50)                1.5319                                         !
 ! R50   R(49,53)                1.2334                                         !
 ! R51   R(49,67)                1.2652                                         !
 ! R52   R(50,51)                1.0968                                         !
 ! R53   R(50,52)                1.0959                                         !
 ! R54   R(50,54)                1.5394                                         !
 ! R55   R(54,55)                1.0958                                         !
 ! R56   R(54,56)                1.0984                                         !
 ! R57   R(54,57)                1.5534                                         !
 ! R58   R(57,58)                1.096                                          !
 ! R59   R(57,59)                1.0991                                         !
 ! R60   R(57,60)                1.5261                                         !
 ! R61   R(60,61)                1.0936                                         !
 ! R62   R(60,62)                1.0937                                         !
 ! R63   R(60,63)                1.5111                                         !
 ! R64   R(63,64)                1.0241                                         !
 ! R65   R(63,65)                1.0248                                         !
 ! R66   R(63,66)                1.0965                                         !
 ! A1    A(2,1,3)              108.3458                                         !
 ! A2    A(2,1,4)              110.0776                                         !
 ! A3    A(2,1,5)              113.6093                                         !
 ! A4    A(3,1,4)              110.2911                                         !
 ! A5    A(3,1,5)              113.6806                                         !
 ! A6    A(4,1,5)              100.6301                                         !
 ! A7    A(1,5,6)              109.8034                                         !
 ! A8    A(1,5,7)              109.7067                                         !
 ! A9    A(1,5,8)              103.6357                                         !
 ! A10   A(6,5,7)              109.2105                                         !
 ! A11   A(6,5,8)              112.2669                                         !
 ! A12   A(7,5,8)              112.0807                                         !
 ! A13   A(5,8,9)              116.3175                                         !
 ! A14   A(5,8,10)             116.1277                                         !
 ! A15   A(9,8,10)             127.5513                                         !
 ! A16   A(8,10,11)            121.4006                                         !
 ! A17   A(8,10,12)            126.1961                                         !
 ! A18   A(11,10,12)           110.0113                                         !
 ! A19   A(10,12,13)           108.5688                                         !
 ! A20   A(10,12,14)           103.2736                                         !
 ! A21   A(10,12,15)           112.5544                                         !
 ! A22   A(13,12,14)           110.653                                          !
 ! A23   A(13,12,15)           110.9509                                         !
 ! A24   A(14,12,15)           110.5865                                         !
 ! A25   A(12,14,18)           119.0828                                         !
 ! A26   A(12,14,29)           116.4941                                         !
 ! A27   A(18,14,29)           124.4101                                         !
 ! A28   A(12,15,16)           107.508                                          !
 ! A29   A(12,15,17)           107.5694                                         !
 ! A30   A(12,15,19)           116.526                                          !
 ! A31   A(16,15,17)           106.1446                                         !
 ! A32   A(16,15,19)           109.813                                          !
 ! A33   A(17,15,19)           108.7794                                         !
 ! A34   A(15,19,20)           108.2538                                         !
 ! A35   A(15,19,21)           109.3693                                         !
 ! A36   A(15,19,25)           112.4374                                         !
 ! A37   A(20,19,21)           107.6855                                         !
 ! A38   A(20,19,25)           108.0685                                         !
 ! A39   A(21,19,25)           110.8706                                         !
 ! A40   A(19,21,22)           111.0231                                         !
 ! A41   A(19,21,23)           110.8766                                         !
 ! A42   A(19,21,24)           111.6499                                         !
 ! A43   A(22,21,23)           107.5323                                         !
 ! A44   A(22,21,24)           107.6977                                         !
 ! A45   A(23,21,24)           107.8861                                         !
 ! A46   A(19,25,26)           110.874                                          !
 ! A47   A(19,25,27)           112.2996                                         !
 ! A48   A(19,25,28)           110.5114                                         !
 ! A49   A(26,25,27)           108.4621                                         !
 ! A50   A(26,25,28)           107.3427                                         !
 ! A51   A(27,25,28)           107.1502                                         !
 ! A52   A(14,29,30)           122.0052                                         !
 ! A53   A(14,29,31)           122.9281                                         !
 ! A54   A(30,29,31)           114.8398                                         !
 ! A55   A(29,31,32)           107.5736                                         !
 ! A56   A(29,31,33)           106.5203                                         !
 ! A57   A(29,31,34)           111.5768                                         !
 ! A58   A(32,31,33)           109.6812                                         !
 ! A59   A(32,31,34)           107.9484                                         !
 ! A60   A(33,31,34)           113.3922                                         !
 ! A61   A(31,33,36)           117.5101                                         !
 ! A62   A(31,33,45)           116.578                                          !
 ! A63   A(36,33,45)           125.9056                                         !
 ! A64   A(31,34,35)           103.8359                                         !
 ! A65   A(31,34,37)           112.8493                                         !
 ! A66   A(31,34,41)           112.0797                                         !
 ! A67   A(35,34,37)           108.1553                                         !
 ! A68   A(35,34,41)           107.4464                                         !
 ! A69   A(37,34,41)           111.9276                                         !
 ! A70   A(34,37,38)           111.4194                                         !
 ! A71   A(34,37,39)           109.9673                                         !
 ! A72   A(34,37,40)           112.118                                          !
 ! A73   A(38,37,39)           107.2713                                         !
 ! A74   A(38,37,40)           108.0616                                         !
 ! A75   A(39,37,40)           107.8128                                         !
 ! A76   A(34,41,42)           113.4012                                         !
 ! A77   A(34,41,43)           109.6224                                         !
 ! A78   A(34,41,44)           111.1213                                         !
 ! A79   A(42,41,43)           107.693                                          !
 ! A80   A(42,41,44)           107.3287                                         !
 ! A81   A(43,41,44)           107.4391                                         !
 ! A82   A(33,45,46)           122.9029                                         !
 ! A83   A(33,45,47)           129.8209                                         !
 ! A84   A(46,45,47)           103.2989                                         !
 ! A85   A(45,47,48)           110.2827                                         !
 ! A86   A(45,47,49)           104.2332                                         !
 ! A87   A(45,47,50)           113.8251                                         !
 ! A88   A(48,47,49)           106.25                                           !
 ! A89   A(48,47,50)           111.719                                          !
 ! A90   A(49,47,50)           110.0022                                         !
 ! A91   A(47,49,53)           114.3227                                         !
 ! A92   A(47,49,67)           112.997                                          !
 ! A93   A(53,49,67)           132.6776                                         !
 ! A94   A(47,50,51)           107.7271                                         !
 ! A95   A(47,50,52)           106.083                                          !
 ! A96   A(47,50,54)           116.8728                                         !
 ! A97   A(51,50,52)           106.6251                                         !
 ! A98   A(51,50,54)           109.2425                                         !
 ! A99   A(52,50,54)           109.7944                                         !
 ! A100  A(50,54,55)           108.3516                                         !
 ! A101  A(50,54,56)           110.0109                                         !
 ! A102  A(50,54,57)           113.797                                          !
 ! A103  A(55,54,56)           105.6667                                         !
 ! A104  A(55,54,57)           108.234                                          !
 ! A105  A(56,54,57)           110.4205                                         !
 ! A106  A(54,57,58)           110.0068                                         !
 ! A107  A(54,57,59)           110.4128                                         !
 ! A108  A(54,57,60)           115.9963                                         !
 ! A109  A(58,57,59)           105.2257                                         !
 ! A110  A(58,57,60)           105.5651                                         !
 ! A111  A(59,57,60)           109.0003                                         !
 ! A112  A(57,60,61)           111.7672                                         !
 ! A113  A(57,60,62)           111.3973                                         !
 ! A114  A(57,60,63)           111.8614                                         !
 ! A115  A(61,60,62)           108.5561                                         !
 ! A116  A(61,60,63)           106.0772                                         !
 ! A117  A(62,60,63)           106.9018                                         !
 ! A118  A(60,63,64)           111.2386                                         !
 ! A119  A(60,63,65)           110.3647                                         !
 ! A120  A(60,63,66)           113.173                                          !
 ! A121  A(64,63,65)           107.3253                                         !
 ! A122  A(64,63,66)           106.9483                                         !
 ! A123  A(65,63,66)           107.5249                                         !
 ! D1    D(2,1,5,6)             -3.2668                                         !
 ! D2    D(2,1,5,7)           -123.297                                          !
 ! D3    D(2,1,5,8)            116.8505                                         !
 ! D4    D(3,1,5,6)            121.2589                                         !
 ! D5    D(3,1,5,7)              1.2287                                         !
 ! D6    D(3,1,5,8)           -118.6238                                         !
 ! D7    D(4,1,5,6)           -120.8625                                         !
 ! D8    D(4,1,5,7)            119.1074                                         !
 ! D9    D(4,1,5,8)             -0.7452                                         !
 ! D10   D(1,5,8,9)              0.638                                          !
 ! D11   D(1,5,8,10)          -179.9967                                         !
 ! D12   D(6,5,8,9)            119.065                                          !
 ! D13   D(6,5,8,10)           -61.5697                                         !
 ! D14   D(7,5,8,9)           -117.5819                                         !
 ! D15   D(7,5,8,10)            61.7834                                         !
 ! D16   D(5,8,10,11)           12.0957                                         !
 ! D17   D(5,8,10,12)          172.7436                                         !
 ! D18   D(9,8,10,11)         -168.6219                                         !
 ! D19   D(9,8,10,12)           -7.974                                          !
 ! D20   D(8,10,12,13)         -25.8627                                         !
 ! D21   D(8,10,12,14)        -143.3491                                         !
 ! D22   D(8,10,12,15)          97.3649                                         !
 ! D23   D(11,10,12,13)        136.6187                                         !
 ! D24   D(11,10,12,14)         19.1323                                         !
 ! D25   D(11,10,12,15)       -100.1537                                         !
 ! D26   D(10,12,14,18)        -15.3919                                         !
 ! D27   D(10,12,14,29)        165.8573                                         !
 ! D28   D(13,12,14,18)       -131.405                                          !
 ! D29   D(13,12,14,29)         49.8442                                         !
 ! D30   D(15,12,14,18)        105.2438                                         !
 ! D31   D(15,12,14,29)        -73.507                                          !
 ! D32   D(10,12,15,16)         56.4512                                         !
 ! D33   D(10,12,15,17)        170.3874                                         !
 ! D34   D(10,12,15,19)        -67.2381                                         !
 ! D35   D(13,12,15,16)        178.3384                                         !
 ! D36   D(13,12,15,17)        -67.7254                                         !
 ! D37   D(13,12,15,19)         54.6491                                         !
 ! D38   D(14,12,15,16)        -58.4828                                         !
 ! D39   D(14,12,15,17)         55.4533                                         !
 ! D40   D(14,12,15,19)        177.8278                                         !
 ! D41   D(12,14,29,30)          1.2914                                         !
 ! D42   D(12,14,29,31)        175.534                                          !
 ! D43   D(18,14,29,30)       -177.3853                                         !
 ! D44   D(18,14,29,31)         -3.1428                                         !
 ! D45   D(12,15,19,20)         54.8912                                         !
 ! D46   D(12,15,19,21)        171.9582                                         !
 ! D47   D(12,15,19,25)        -64.4186                                         !
 ! D48   D(16,15,19,20)        -67.6036                                         !
 ! D49   D(16,15,19,21)         49.4635                                         !
 ! D50   D(16,15,19,25)        173.0867                                         !
 ! D51   D(17,15,19,20)        176.6314                                         !
 ! D52   D(17,15,19,21)        -66.3016                                         !
 ! D53   D(17,15,19,25)         57.3216                                         !
 ! D54   D(15,19,21,22)         62.3877                                         !
 ! D55   D(15,19,21,23)       -178.1415                                         !
 ! D56   D(15,19,21,24)        -57.8073                                         !
 ! D57   D(20,19,21,22)        179.8126                                         !
 ! D58   D(20,19,21,23)        -60.7166                                         !
 ! D59   D(20,19,21,24)         59.6176                                         !
 ! D60   D(25,19,21,22)        -62.1549                                         !
 ! D61   D(25,19,21,23)         57.3159                                         !
 ! D62   D(25,19,21,24)        177.6501                                         !
 ! D63   D(15,19,25,26)        -58.8297                                         !
 ! D64   D(15,19,25,27)         62.6849                                         !
 ! D65   D(15,19,25,28)       -177.7298                                         !
 ! D66   D(20,19,25,26)       -178.2475                                         !
 ! D67   D(20,19,25,27)        -56.7329                                         !
 ! D68   D(20,19,25,28)         62.8524                                         !
 ! D69   D(21,19,25,26)         63.9531                                         !
 ! D70   D(21,19,25,27)       -174.5323                                         !
 ! D71   D(21,19,25,28)        -54.947                                          !
 ! D72   D(14,29,31,32)        -34.9869                                         !
 ! D73   D(14,29,31,33)       -152.5304                                         !
 ! D74   D(14,29,31,34)         83.2327                                         !
 ! D75   D(30,29,31,32)        139.6343                                         !
 ! D76   D(30,29,31,33)         22.0908                                         !
 ! D77   D(30,29,31,34)       -102.1462                                         !
 ! D78   D(29,31,33,36)        -27.7517                                         !
 ! D79   D(29,31,33,45)        153.111                                          !
 ! D80   D(32,31,33,36)       -143.8912                                         !
 ! D81   D(32,31,33,45)         36.9715                                         !
 ! D82   D(34,31,33,36)         95.3574                                         !
 ! D83   D(34,31,33,45)        -83.7799                                         !
 ! D84   D(29,31,34,35)        -46.4804                                         !
 ! D85   D(29,31,34,37)         70.3923                                         !
 ! D86   D(29,31,34,41)       -162.1459                                         !
 ! D87   D(32,31,34,35)         71.5143                                         !
 ! D88   D(32,31,34,37)       -171.6129                                         !
 ! D89   D(32,31,34,41)        -44.1511                                         !
 ! D90   D(33,31,34,35)       -166.7609                                         !
 ! D91   D(33,31,34,37)        -49.8881                                         !
 ! D92   D(33,31,34,41)         77.5737                                         !
 ! D93   D(31,33,45,46)         12.3489                                         !
 ! D94   D(31,33,45,47)        166.0095                                         !
 ! D95   D(36,33,45,46)       -166.7065                                         !
 ! D96   D(36,33,45,47)        -13.0459                                         !
 ! D97   D(31,34,37,38)         69.5652                                         !
 ! D98   D(31,34,37,39)       -171.6286                                         !
 ! D99   D(31,34,37,40)        -51.6953                                         !
 ! D100  D(35,34,37,38)       -176.1496                                         !
 ! D101  D(35,34,37,39)        -57.3434                                         !
 ! D102  D(35,34,37,40)         62.5898                                         !
 ! D103  D(41,34,37,38)        -57.9766                                         !
 ! D104  D(41,34,37,39)         60.8296                                         !
 ! D105  D(41,34,37,40)       -179.2372                                         !
 ! D106  D(31,34,41,42)        -63.9855                                         !
 ! D107  D(31,34,41,43)        175.6259                                         !
 ! D108  D(31,34,41,44)         57.0183                                         !
 ! D109  D(35,34,41,42)       -177.4384                                         !
 ! D110  D(35,34,41,43)         62.173                                          !
 ! D111  D(35,34,41,44)        -56.4345                                         !
 ! D112  D(37,34,41,42)         63.9674                                         !
 ! D113  D(37,34,41,43)        -56.4212                                         !
 ! D114  D(37,34,41,44)       -175.0287                                         !
 ! D115  D(33,45,47,48)        -31.6423                                         !
 ! D116  D(33,45,47,49)       -145.3155                                         !
 ! D117  D(33,45,47,50)         94.8319                                         !
 ! D118  D(46,45,47,48)        125.8516                                         !
 ! D119  D(46,45,47,49)         12.1784                                         !
 ! D120  D(46,45,47,50)       -107.6742                                         !
 ! D121  D(45,47,49,53)        173.6051                                         !
 ! D122  D(45,47,49,67)         -6.9204                                         !
 ! D123  D(48,47,49,53)         57.0891                                         !
 ! D124  D(48,47,49,67)       -123.4363                                         !
 ! D125  D(50,47,49,53)        -63.9951                                         !
 ! D126  D(50,47,49,67)        115.4795                                         !
 ! D127  D(45,47,50,51)         45.3769                                         !
 ! D128  D(45,47,50,52)        159.2536                                         !
 ! D129  D(45,47,50,54)        -77.9808                                         !
 ! D130  D(48,47,50,51)        171.0949                                         !
 ! D131  D(48,47,50,52)        -75.0285                                         !
 ! D132  D(48,47,50,54)         47.7372                                         !
 ! D133  D(49,47,50,51)        -71.1595                                         !
 ! D134  D(49,47,50,52)         42.7172                                         !
 ! D135  D(49,47,50,54)        165.4828                                         !
 ! D136  D(47,50,54,55)        166.8821                                         !
 ! D137  D(47,50,54,56)         51.8201                                         !
 ! D138  D(47,50,54,57)        -72.6816                                         !
 ! D139  D(51,50,54,55)         44.3055                                         !
 ! D140  D(51,50,54,56)        -70.7566                                         !
 ! D141  D(51,50,54,57)        164.7417                                         !
 ! D142  D(52,50,54,55)        -72.2909                                         !
 ! D143  D(52,50,54,56)        172.6471                                         !
 ! D144  D(52,50,54,57)         48.1454                                         !
 ! D145  D(50,54,57,58)       -122.2998                                         !
 ! D146  D(50,54,57,59)         -6.5961                                         !
 ! D147  D(50,54,57,60)        118.0127                                         !
 ! D148  D(55,54,57,58)         -1.7974                                         !
 ! D149  D(55,54,57,59)        113.9063                                         !
 ! D150  D(55,54,57,60)       -121.4849                                         !
 ! D151  D(56,54,57,58)        113.4188                                         !
 ! D152  D(56,54,57,59)       -130.8775                                         !
 ! D153  D(56,54,57,60)         -6.2686                                         !
 ! D154  D(54,57,60,61)         50.5305                                         !
 ! D155  D(54,57,60,62)        172.1651                                         !
 ! D156  D(54,57,60,63)        -68.2534                                         !
 ! D157  D(58,57,60,61)        -71.5405                                         !
 ! D158  D(58,57,60,62)         50.094                                          !
 ! D159  D(58,57,60,63)        169.6756                                         !
 ! D160  D(59,57,60,61)        175.8628                                         !
 ! D161  D(59,57,60,62)        -62.5027                                         !
 ! D162  D(59,57,60,63)         57.0789                                         !
 ! D163  D(57,60,63,64)       -173.7532                                         !
 ! D164  D(57,60,63,65)        -54.7367                                         !
 ! D165  D(57,60,63,66)         65.8121                                         !
 ! D166  D(61,60,63,64)         64.1422                                         !
 ! D167  D(61,60,63,65)       -176.8413                                         !
 ! D168  D(61,60,63,66)        -56.2925                                         !
 ! D169  D(62,60,63,64)        -51.5611                                         !
 ! D170  D(62,60,63,65)         67.4555                                         !
 ! D171  D(62,60,63,66)       -171.9958                                         !
 --------------------------------------------------------------------------------
 Symmetry turned off by external request.
 Stoichiometry    C19H38N5O5(1+)
 Framework group  C1[X(C19H38N5O5)]
 Deg. of freedom   195
 Full point group                 C1      NOp   1
                          Input orientation:                          
 ---------------------------------------------------------------------
 Center     Atomic      Atomic             Coordinates (Angstroms)
 Number     Number       Type             X           Y           Z
 ---------------------------------------------------------------------
      1          7           0       -5.834881   -0.438021    4.048103
      2          1           0       -5.778850   -1.319020    4.566421
      3          1           0       -6.560126    0.142849    4.477502
      4          1           0       -6.073223   -0.630733    3.016926
      5          6           0       -4.510382    0.259732    3.901050
      6          1           0       -3.738598   -0.295009    4.437637
      7          1           0       -4.578366    1.268534    4.311427
      8          6           0       -4.269228    0.268602    2.364613
      9          8           0       -5.156605   -0.247262    1.664854
     10          7           0       -3.148810    0.836421    1.954767
     11          1           0       -2.399657    1.080197    2.614517
     12          6           0       -2.628745    0.837128    0.581084
     13          1           0       -3.018945   -0.042259    0.060423
     14          6           0       -1.094596    0.718870    0.780908
     15          6           0       -2.978612    2.132779   -0.184353
     16          1           0       -2.588845    2.976846    0.399575
     17          1           0       -2.412230    2.125079   -1.125600
     18          8           0       -0.615528    0.939661    1.898731
     19          6           0       -4.469483    2.362538   -0.503993
     20          1           0       -5.035848    2.308141    0.436992
     21          6           0       -4.655488    3.775282   -1.079898
     22          1           0       -4.107187    3.891142   -2.023307
     23          1           0       -5.712216    3.976939   -1.285526
     24          1           0       -4.294353    4.544853   -0.387926
     25          6           0       -5.033801    1.302634   -1.461572
     26          1           0       -4.478576    1.295898   -2.408794
     27          1           0       -5.000491    0.295699   -1.032989
     28          1           0       -6.081288    1.518313   -1.698606
     29          7           0       -0.373295    0.402718   -0.302976
     30          1           0       -0.801275    0.266730   -1.212855
     31          6           0        1.090869    0.347583   -0.297040
     32          1           0        1.448132    1.131863    0.376352
     33          6           0        1.544623    0.651269   -1.730555
     34          6           0        1.612489   -1.024623    0.241723
     35          1           0        1.015837   -1.194994    1.147593
     36          8           0        0.745493    0.352662   -2.676306
     37          6           0        1.350385   -2.184453   -0.728725
     38          1           0        1.973370   -2.103333   -1.627101
     39          1           0        1.595819   -3.137108   -0.247837
     40          1           0        0.301652   -2.228902   -1.045209
     41          6           0        3.086627   -0.955022    0.667567
     42          1           0        3.769170   -0.741985   -0.161564
     43          1           0        3.387545   -1.911389    1.109220
     44          1           0        3.242418   -0.179267    1.426300
     45          7           0        2.736694    1.182717   -1.869024
     46          1           0        3.440249    1.225354   -1.083330
     47          6           0        3.562134    1.334361   -3.068895
     48          1           0        3.377986    0.506799   -3.763937
     49          6           0        5.062987    1.150234   -2.540291
     50          6           0        3.411691    2.695502   -3.755530
     51          1           0        3.448928    3.467870   -2.977683
     52          1           0        4.309402    2.826229   -4.370447
     53          8           0        5.915332    1.120561   -3.431275
     54          6           0        2.153904    2.904462   -4.618195
     55          1           0        2.064211    3.972968   -4.844304
     56          1           0        1.255386    2.646917   -4.041275
     57          6           0        2.178039    2.123820   -5.961035
     58          1           0        2.068242    2.819169   -6.801010
     59          1           0        3.156336    1.645075   -6.108611
     60          6           0        1.080771    1.079766   -6.147610
     61          1           0        0.089377    1.491680   -5.939239
     62          1           0        1.083180    0.675599   -7.163937
     63          7           0        1.253065   -0.091543   -5.208620
     64          1           0        0.575047   -0.831891   -5.410753
     65          1           0        2.188271   -0.497474   -5.312683
     66          1           0        1.126026    0.178885   -4.153601
     67          8           0        5.137185    1.074260   -1.279534
 ---------------------------------------------------------------------
 Rotational constants (GHZ):           0.2429100           0.0708621           0.0607607
 Standard basis: 6-31G(d) (6D, 7F)
   511 basis functions,   964 primitive gaussians,   511 cartesian basis functions
   113 alpha electrons      113 beta electrons
       nuclear repulsion energy      3027.7138441874 Hartrees.
 NAtoms=   67 NActive=   67 NUniq=   67 SFac= 1.00D+00 NAtFMM=   60 NAOKFM=T Big=T
 Integral buffers will be    131072 words long.
 Raffenetti 2 integral format.
 Two-electron integral symmetry is turned off.
 One-electron integrals computed using PRISM.
 NBasis=   511 RedAO= T EigKep=  1.78D-03  NBF=   511
 NBsUse=   511 1.00D-06 EigRej= -1.00D+00 NBFU=   511
 Initial guess from the checkpoint file:  "conf-962.chk"
 B after Tr=     0.000000    0.000000    0.000000
         Rot=    1.000000    0.000000    0.000000    0.000000 Ang=   0.00 deg.
 Requested convergence on RMS density matrix=1.00D-08 within 128 cycles.
 Requested convergence on MAX density matrix=1.00D-06.
 Requested convergence on             energy=1.00D-06.
 No special actions if energy rises.
 SCF Done:  E(RB3LYP) =  -1396.59775284     A.U. after    1 cycles
            NFock=  1  Conv=0.62D-08     -V/T= 2.0095

 **********************************************************************

            Population analysis using the SCF Density.

 **********************************************************************

 Alpha  occ. eigenvalues --  -19.29010 -19.22918 -19.22457 -19.11059 -19.09655
 Alpha  occ. eigenvalues --  -14.62444 -14.54474 -14.50910 -14.46502 -14.42867
 Alpha  occ. eigenvalues --  -10.45791 -10.42791 -10.39980 -10.37982 -10.35860
 Alpha  occ. eigenvalues --  -10.35470 -10.32069 -10.29784 -10.29022 -10.28826
 Alpha  occ. eigenvalues --  -10.28763 -10.27211 -10.27204 -10.26531 -10.26383
 Alpha  occ. eigenvalues --  -10.26280 -10.25046 -10.24231 -10.22975  -1.21370
 Alpha  occ. eigenvalues --   -1.16021  -1.14913  -1.12713  -1.09270  -1.07658
 Alpha  occ. eigenvalues --   -1.04233  -1.02870  -0.99645  -0.95459  -0.93160
 Alpha  occ. eigenvalues --   -0.90502  -0.89273  -0.88429  -0.85726  -0.83985
 Alpha  occ. eigenvalues --   -0.80216  -0.77711  -0.77279  -0.77038  -0.76338
 Alpha  occ. eigenvalues --   -0.76099  -0.75186  -0.73080  -0.72134  -0.69712
 Alpha  occ. eigenvalues --   -0.69680  -0.68335  -0.67565  -0.66026  -0.65933
 Alpha  occ. eigenvalues --   -0.64851  -0.64401  -0.63807  -0.62722  -0.62301
 Alpha  occ. eigenvalues --   -0.60188  -0.59895  -0.58066  -0.57535  -0.57018
 Alpha  occ. eigenvalues --   -0.55906  -0.54999  -0.54506  -0.54265  -0.53497
 Alpha  occ. eigenvalues --   -0.53216  -0.53123  -0.52229  -0.52100  -0.50898
 Alpha  occ. eigenvalues --   -0.50463  -0.49803  -0.48886  -0.48867  -0.48451
 Alpha  occ. eigenvalues --   -0.48178  -0.47473  -0.46377  -0.46107  -0.45729
 Alpha  occ. eigenvalues --   -0.45343  -0.44409  -0.43984  -0.43926  -0.43321
 Alpha  occ. eigenvalues --   -0.42536  -0.42288  -0.42002  -0.41814  -0.41187
 Alpha  occ. eigenvalues --   -0.40626  -0.40567  -0.40438  -0.40216  -0.39935
 Alpha  occ. eigenvalues --   -0.38109  -0.37341  -0.36664  -0.35377  -0.33963
 Alpha  occ. eigenvalues --   -0.26009  -0.25866  -0.23868
 Alpha virt. eigenvalues --   -0.14014  -0.13624  -0.08727  -0.08176  -0.07333
 Alpha virt. eigenvalues --   -0.06701  -0.06428  -0.03137  -0.02679  -0.02104
 Alpha virt. eigenvalues --   -0.01425   0.00372   0.00468   0.00840   0.01974
 Alpha virt. eigenvalues --    0.02210   0.02709   0.02852   0.03096   0.03515
 Alpha virt. eigenvalues --    0.03946   0.04919   0.04969   0.05043   0.05479
 Alpha virt. eigenvalues --    0.06121   0.06260   0.06633   0.07563   0.07639
 Alpha virt. eigenvalues --    0.07801   0.08208   0.08405   0.09044   0.09171
 Alpha virt. eigenvalues --    0.09710   0.10127   0.10701   0.11173   0.11381
 Alpha virt. eigenvalues --    0.11607   0.11748   0.12123   0.12756   0.13364
 Alpha virt. eigenvalues --    0.13502   0.13636   0.14543   0.14773   0.14911
 Alpha virt. eigenvalues --    0.15967   0.16200   0.16738   0.17431   0.17735
 Alpha virt. eigenvalues --    0.18785   0.19472   0.19543   0.20011   0.20403
 Alpha virt. eigenvalues --    0.21447   0.23174   0.24423   0.25819   0.27554
 Alpha virt. eigenvalues --    0.27761   0.31406   0.33535   0.33769   0.35397
 Alpha virt. eigenvalues --    0.36805   0.37718   0.38685   0.40059   0.40359
 Alpha virt. eigenvalues --    0.40639   0.41748   0.42034   0.42254   0.42666
 Alpha virt. eigenvalues --    0.43057   0.43431   0.43707   0.44909   0.45877
 Alpha virt. eigenvalues --    0.46165   0.46301   0.47383   0.47946   0.48730
 Alpha virt. eigenvalues --    0.49540   0.49820   0.50455   0.51442   0.51824
 Alpha virt. eigenvalues --    0.52122   0.52814   0.53854   0.54478   0.55354
 Alpha virt. eigenvalues --    0.55903   0.56490   0.56925   0.57247   0.58106
 Alpha virt. eigenvalues --    0.58394   0.59070   0.59439   0.59961   0.60782
 Alpha virt. eigenvalues --    0.61767   0.62458   0.62728   0.62842   0.63140
 Alpha virt. eigenvalues --    0.63396   0.63662   0.64183   0.64590   0.65557
 Alpha virt. eigenvalues --    0.66039   0.66490   0.67249   0.67554   0.67935
 Alpha virt. eigenvalues --    0.68815   0.69326   0.69602   0.70906   0.71414
 Alpha virt. eigenvalues --    0.72059   0.72918   0.73255   0.74007   0.74654
 Alpha virt. eigenvalues --    0.74730   0.75114   0.75605   0.76238   0.76400
 Alpha virt. eigenvalues --    0.76779   0.77454   0.77894   0.78552   0.78678
 Alpha virt. eigenvalues --    0.79018   0.79452   0.80263   0.80644   0.80757
 Alpha virt. eigenvalues --    0.81502   0.82105   0.82189   0.82607   0.83091
 Alpha virt. eigenvalues --    0.83172   0.83671   0.84580   0.84912   0.85490
 Alpha virt. eigenvalues --    0.85617   0.85982   0.86125   0.86670   0.87350
 Alpha virt. eigenvalues --    0.87448   0.87854   0.88831   0.89548   0.90013
 Alpha virt. eigenvalues --    0.90321   0.90791   0.91313   0.91568   0.92413
 Alpha virt. eigenvalues --    0.93177   0.93586   0.94167   0.95019   0.96795
 Alpha virt. eigenvalues --    0.97297   0.98353   0.99939   1.00980   1.01126
 Alpha virt. eigenvalues --    1.01923   1.02116   1.03207   1.04962   1.07764
 Alpha virt. eigenvalues --    1.07997   1.08586   1.09929   1.10891   1.12299
 Alpha virt. eigenvalues --    1.13590   1.14190   1.15410   1.16716   1.19161
 Alpha virt. eigenvalues --    1.20308   1.21200   1.22717   1.25503   1.26016
 Alpha virt. eigenvalues --    1.27821   1.29108   1.30202   1.31232   1.33117
 Alpha virt. eigenvalues --    1.34314   1.34987   1.35990   1.36111   1.36911
 Alpha virt. eigenvalues --    1.37318   1.39301   1.40657   1.42562   1.43025
 Alpha virt. eigenvalues --    1.44826   1.45598   1.45742   1.48151   1.49178
 Alpha virt. eigenvalues --    1.50894   1.51742   1.52611   1.54116   1.55440
 Alpha virt. eigenvalues --    1.55965   1.56250   1.56342   1.56868   1.58311
 Alpha virt. eigenvalues --    1.59581   1.60846   1.62295   1.63232   1.63971
 Alpha virt. eigenvalues --    1.65667   1.66475   1.67375   1.68255   1.69117
 Alpha virt. eigenvalues --    1.69637   1.70002   1.71024   1.71781   1.72399
 Alpha virt. eigenvalues --    1.73017   1.73540   1.73784   1.74232   1.75045
 Alpha virt. eigenvalues --    1.75958   1.76684   1.77714   1.78078   1.79641
 Alpha virt. eigenvalues --    1.79657   1.80204   1.80399   1.81179   1.82285
 Alpha virt. eigenvalues --    1.83023   1.83721   1.83844   1.84846   1.84953
 Alpha virt. eigenvalues --    1.85929   1.86718   1.87188   1.87951   1.89336
 Alpha virt. eigenvalues --    1.89959   1.90474   1.90738   1.91408   1.92639
 Alpha virt. eigenvalues --    1.93416   1.93856   1.94645   1.95298   1.96026
 Alpha virt. eigenvalues --    1.96534   1.97652   1.97905   1.98527   1.99180
 Alpha virt. eigenvalues --    2.00644   2.01502   2.02806   2.03262   2.05215
 Alpha virt. eigenvalues --    2.05766   2.06537   2.08277   2.09057   2.10017
 Alpha virt. eigenvalues --    2.11495   2.12314   2.12670   2.14075   2.15323
 Alpha virt. eigenvalues --    2.15597   2.16012   2.16753   2.17542   2.18119
 Alpha virt. eigenvalues --    2.19188   2.20127   2.20481   2.22727   2.23794
 Alpha virt. eigenvalues --    2.24336   2.25674   2.26185   2.27633   2.28671
 Alpha virt. eigenvalues --    2.29666   2.31224   2.32014   2.33029   2.34126
 Alpha virt. eigenvalues --    2.35507   2.36286   2.36821   2.38269   2.40473
 Alpha virt. eigenvalues --    2.40593   2.42055   2.42388   2.43230   2.45377
 Alpha virt. eigenvalues --    2.46225   2.48594   2.49161   2.50145   2.51104
 Alpha virt. eigenvalues --    2.52804   2.53090   2.56803   2.59206   2.59812
 Alpha virt. eigenvalues --    2.60916   2.63126   2.63448   2.63886   2.65878
 Alpha virt. eigenvalues --    2.67553   2.68322   2.69045   2.74548   2.76547
 Alpha virt. eigenvalues --    2.77882   2.79202   2.80491   2.83966   2.84918
 Alpha virt. eigenvalues --    2.87819   2.89729   2.92813   2.93601   3.00020
 Alpha virt. eigenvalues --    3.02362   3.08666   3.10922   3.19415   3.60738
 Alpha virt. eigenvalues --    3.74368   3.89990   3.92910   3.94909   3.96291
 Alpha virt. eigenvalues --    3.99919   4.01815   4.04996   4.07766   4.09616
 Alpha virt. eigenvalues --    4.10647   4.16341   4.19862   4.20505   4.23265
 Alpha virt. eigenvalues --    4.26559   4.29361   4.31138   4.32643   4.33194
 Alpha virt. eigenvalues --    4.37912   4.41106   4.46093   4.48787   4.49913
 Alpha virt. eigenvalues --    4.56193   4.60126   4.63218
          Condensed to atoms (all electrons):
 Mulliken charges:
               1
     1  N   -0.750728
     2  H    0.424001
     3  H    0.423734
     4  H    0.439617
     5  C   -0.279243
     6  H    0.251073
     7  H    0.250801
     8  C    0.635946
     9  O   -0.530087
    10  N   -0.586008
    11  H    0.376869
    12  C   -0.088119
    13  H    0.189373
    14  C    0.639438
    15  C   -0.256298
    16  H    0.158464
    17  H    0.151928
    18  O   -0.544528
    19  C   -0.071734
    20  H    0.119456
    21  C   -0.446880
    22  H    0.150285
    23  H    0.158846
    24  H    0.150892
    25  C   -0.458169
    26  H    0.139773
    27  H    0.156587
    28  H    0.160967
    29  N   -0.618578
    30  H    0.353788
    31  C   -0.043990
    32  H    0.193410
    33  C    0.633999
    34  C   -0.077226
    35  H    0.147385
    36  O   -0.663384
    37  C   -0.450935
    38  H    0.146273
    39  H    0.161896
    40  H    0.127777
    41  C   -0.477353
    42  H    0.197414
    43  H    0.153268
    44  H    0.157586
    45  N   -0.577338
    46  H    0.389215
    47  C   -0.095682
    48  H    0.086105
    49  C    0.602956
    50  C   -0.265960
    51  H    0.154002
    52  H    0.189502
    53  O   -0.559069
    54  C   -0.289264
    55  H    0.160495
    56  H    0.137409
    57  C   -0.286056
    58  H    0.182503
    59  H    0.179347
    60  C   -0.193381
    61  H    0.197391
    62  H    0.194642
    63  N   -0.773443
    64  H    0.390150
    65  H    0.400166
    66  H    0.467407
    67  O   -0.598682
 Sum of Mulliken charges =   1.00000
 Mulliken charges with hydrogens summed into heavy atoms:
               1
     1  N    0.536625
     5  C    0.222632
     8  C    0.635946
     9  O   -0.530087
    10  N   -0.209139
    12  C    0.101254
    14  C    0.639438
    15  C    0.054093
    18  O   -0.544528
    19  C    0.047722
    21  C    0.013143
    25  C   -0.000842
    29  N   -0.264790
    31  C    0.149419
    33  C    0.633999
    34  C    0.070159
    36  O   -0.663384
    37  C   -0.014990
    41  C    0.030915
    45  N   -0.188123
    47  C   -0.009577
    49  C    0.602956
    50  C    0.077544
    53  O   -0.559069
    54  C    0.008640
    57  C    0.075794
    60  C    0.198652
    63  N    0.484280
    67  O   -0.598682
 Electronic spatial extent (au):  <R**2>=          19088.6319
 Charge=              1.0000 electrons
 Dipole moment (field-independent basis, Debye):
    X=            -30.0032    Y=             -1.4424    Z=              4.1634  Tot=             30.3250
 Quadrupole moment (field-independent basis, Debye-Ang):
   XX=           -136.7717   YY=           -161.4601   ZZ=            -27.5021
   XY=            -13.2058   XZ=            -75.8596   YZ=             -5.8503
 Traceless Quadrupole moment (field-independent basis, Debye-Ang):
   XX=            -28.1937   YY=            -52.8821   ZZ=             81.0758
   XY=            -13.2058   XZ=            -75.8596   YZ=             -5.8503
 Octapole moment (field-independent basis, Debye-Ang**2):
  XXX=          -1119.8360  YYY=           -432.1438  ZZZ=            356.1184  XYY=             -1.3937
  XXY=           -244.6391  XXZ=            874.6316  XZZ=           -357.0221  YZZ=           -159.8919
  YYZ=            165.4828  XYZ=             51.0711
 Hexadecapole moment (field-independent basis, Debye-Ang**3):
 XXXX=         -11907.0827 YYYY=          -2757.9421 ZZZZ=          -4493.2514 XXXY=           -267.7375
 XXXZ=           1175.5465 YYYX=            217.5412 YYYZ=           1074.6330 ZZZX=            684.5330
 ZZZY=            907.7820 XXYY=          -2443.8630 XXZZ=          -1749.5149 YYZZ=          -1696.6770
 XXYZ=            397.5594 YYXZ=            814.4551 ZZXY=            160.6807
 N-N= 3.027713844187D+03 E-N=-9.285587193195D+03  KE= 1.383479500089D+03
 Unable to Open any file for archive entry.
 1\1\GINC-AMR-155\SP\RB3LYP\6-31G(d)\C19H38N5O5(1+)\KENGMITH\27-May-202
 2\0\\# B3LYP/6-31G* guess=read geom=check nosymm integral(ultrafinegri
 d)\\Candidate Structure: Conf:962 Charge calc in gas phase\\1,1\N,0,-5
 .8348812252,-0.4380205006,4.0481032416\H,0,-5.7788502073,-1.3190198987
 ,4.5664210462\H,0,-6.5601261811,0.1428494189,4.4775024454\H,0,-6.07322
 2596,-0.6307326593,3.0169264975\C,0,-4.5103816052,0.2597315425,3.90104
 96224\H,0,-3.7385981006,-0.2950092718,4.4376367914\H,0,-4.5783657636,1
 .2685342693,4.3114270019\C,0,-4.2692278606,0.2686015303,2.3646134259\O
 ,0,-5.1566050771,-0.2472616591,1.6648535716\N,0,-3.1488097548,0.836421
 1799,1.9547672517\H,0,-2.3996569392,1.0801971293,2.6145173109\C,0,-2.6
 28745449,0.8371284654,0.5810842506\H,0,-3.0189449824,-0.0422589292,0.0
 604231878\C,0,-1.0945960458,0.718870045,0.7809084339\C,0,-2.9786124403
 ,2.1327794346,-0.1843531942\H,0,-2.5888449289,2.976846252,0.3995746849
 \H,0,-2.4122299663,2.1250789642,-1.1256002344\O,0,-0.6155276005,0.9396
 612267,1.8987306414\C,0,-4.4694834613,2.362537602,-0.5039928744\H,0,-5
 .0358481051,2.3081409477,0.4369916004\C,0,-4.6554878266,3.7752817697,-
 1.0798976324\H,0,-4.1071869763,3.8911423273,-2.0233070703\H,0,-5.71221
 55846,3.9769388534,-1.2855263251\H,0,-4.294353231,4.5448532551,-0.3879
 256691\C,0,-5.0338006389,1.3026343998,-1.4615719121\H,0,-4.4785760896,
 1.2958982093,-2.4087935599\H,0,-5.0004912965,0.2956993699,-1.032988551
 4\H,0,-6.0812880004,1.5183125388,-1.6986060569\N,0,-0.3732949964,0.402
 7176331,-0.3029758061\H,0,-0.8012748829,0.2667296188,-1.2128546066\C,0
 ,1.0908685253,0.3475826253,-0.2970402997\H,0,1.4481317645,1.1318634528
 ,0.3763524714\C,0,1.544622535,0.6512693694,-1.7305549478\C,0,1.6124890
 933,-1.0246225592,0.2417226899\H,0,1.0158371299,-1.1949940201,1.147593
 2127\O,0,0.7454925318,0.3526619441,-2.6763055985\C,0,1.3503847714,-2.1
 844533842,-0.7287245873\H,0,1.9733695518,-2.1033328807,-1.6271005409\H
 ,0,1.5958187376,-3.1371076146,-0.2478367947\H,0,0.3016520534,-2.228901
 6001,-1.0452091923\C,0,3.0866271415,-0.9550220421,0.6675668996\H,0,3.7
 69170202,-0.7419849429,-0.1615635283\H,0,3.38754471,-1.9113885173,1.10
 92200631\H,0,3.2424179095,-0.179267225,1.4262998134\N,0,2.7366944521,1
 .182716726,-1.869023926\H,0,3.4402490965,1.2253541436,-1.0833303638\C,
 0,3.5621335213,1.3343613571,-3.0688945928\H,0,3.3779856419,0.506799183
 2,-3.7639365508\C,0,5.0629869436,1.1502336982,-2.5402912321\C,0,3.4116
 912373,2.6955016831,-3.7555300893\H,0,3.4489279826,3.4678698637,-2.977
 6828216\H,0,4.3094024435,2.8262286453,-4.3704472491\O,0,5.9153315526,1
 .1205610887,-3.4312751592\C,0,2.1539036319,2.9044619411,-4.6181954796\
 H,0,2.0642114158,3.9729677624,-4.8443039668\H,0,1.255386183,2.64691714
 21,-4.0412748298\C,0,2.1780393189,2.1238198173,-5.9610349987\H,0,2.068
 2424452,2.8191689914,-6.8010100775\H,0,3.1563360617,1.6450745956,-6.10
 861133\C,0,1.080770813,1.0797657942,-6.1476098635\H,0,0.0893771687,1.4
 916801721,-5.9392387536\H,0,1.0831801141,0.6755993193,-7.1639370339\N,
 0,1.253065201,-0.0915428866,-5.2086202472\H,0,0.57504674,-0.8318906585
 ,-5.4107527903\H,0,2.1882713367,-0.4974743615,-5.3126828307\H,0,1.1260
 264964,0.1788852394,-4.1536007361\O,0,5.1371850386,1.0742600432,-1.279
 5336007\\Version=ES64L-G16RevC.01\HF=-1396.5977528\RMSD=6.183e-09\Dipo
 le=-11.4866289,-2.1576345,3.5471008\Quadrupole=-20.9613431,-39.3165562
 ,60.2778993,-9.8181663,-56.3997238,-4.3495649\PG=C01 [X(C19H38N5O5)]\\
 @
 The archive entry for this job was punched.


 WE LEARN WISDOM FROM FAILURE MUCH MORE THAN FROM SUCCESS.
 WE DISCOVER WHAT WILL DO BY FINDING OUT WHAT WILL NOT DO...
 AND HE WHO NEVER MADE A MISTAKE NEVER MADE A DISCOVERY
 Job cpu time:       0 days  0 hours  1 minutes  0.8 seconds.
 Elapsed time:       0 days  0 hours  0 minutes 15.8 seconds.
 File lengths (MBytes):  RWF=    256 Int=      0 D2E=      0 Chk=     40 Scr=     16
 Normal termination of Gaussian 16 at Fri May 27 02:05:54 2022.
