 Entering Gaussian System, Link 0=/opt/software/Gaussian/g16-AVX2-C.01/g16/g16
 Input=charge-conf-684.com
 Output=charge-conf-684.log
 Initial command:
 /opt/software/Gaussian/g16-AVX2-C.01/g16/l1.exe "/mnt/gs21/scratch/kengmith/Gau-16577.inp" -scrdir="/mnt/gs21/scratch/kengmith/"
 Entering Link 1 = /opt/software/Gaussian/g16-AVX2-C.01/g16/l1.exe PID=     16587.
  
 Copyright (c) 1988-2019, Gaussian, Inc.  All Rights Reserved.
  
 This is part of the Gaussian(R) 16 program.  It is based on
 the Gaussian(R) 09 system (copyright 2009, Gaussian, Inc.),
 the Gaussian(R) 03 system (copyright 2003, Gaussian, Inc.),
 the Gaussian(R) 98 system (copyright 1998, Gaussian, Inc.),
 the Gaussian(R) 94 system (copyright 1995, Gaussian, Inc.),
 the Gaussian 92(TM) system (copyright 1992, Gaussian, Inc.),
 the Gaussian 90(TM) system (copyright 1990, Gaussian, Inc.),
 the Gaussian 88(TM) system (copyright 1988, Gaussian, Inc.),
 the Gaussian 86(TM) system (copyright 1986, Carnegie Mellon
 University), and the Gaussian 82(TM) system (copyright 1983,
 Carnegie Mellon University). Gaussian is a federally registered
 trademark of Gaussian, Inc.
  
 This software contains proprietary and confidential information,
 including trade secrets, belonging to Gaussian, Inc.
  
 This software is provided under written license and may be
 used, copied, transmitted, or stored only in accord with that
 written license.
  
 The following legend is applicable only to US Government
 contracts under FAR:
  
                    RESTRICTED RIGHTS LEGEND
  
 Use, reproduction and disclosure by the US Government is
 subject to restrictions as set forth in subparagraphs (a)
 and (c) of the Commercial Computer Software - Restricted
 Rights clause in FAR 52.227-19.
  
 Gaussian, Inc.
 340 Quinnipiac St., Bldg. 40, Wallingford CT 06492
  
  
 ---------------------------------------------------------------
 Warning -- This program may not be used in any manner that
 competes with the business of Gaussian, Inc. or will provide
 assistance to any competitor of Gaussian, Inc.  The licensee
 of this program is prohibited from giving any competitor of
 Gaussian, Inc. access to this program.  By using this program,
 the user acknowledges that Gaussian, Inc. is engaged in the
 business of creating and licensing software in the field of
 computational chemistry and represents and warrants to the
 licensee that it is not a competitor of Gaussian, Inc. and that
 it will not use this program in any manner prohibited above.
 ---------------------------------------------------------------
  

 Cite this work as:
 Gaussian 16, Revision C.01,
 M. J. Frisch, G. W. Trucks, H. B. Schlegel, G. E. Scuseria, 
 M. A. Robb, J. R. Cheeseman, G. Scalmani, V. Barone, 
 G. A. Petersson, H. Nakatsuji, X. Li, M. Caricato, A. V. Marenich, 
 J. Bloino, B. G. Janesko, R. Gomperts, B. Mennucci, H. P. Hratchian, 
 J. V. Ortiz, A. F. Izmaylov, J. L. Sonnenberg, D. Williams-Young, 
 F. Ding, F. Lipparini, F. Egidi, J. Goings, B. Peng, A. Petrone, 
 T. Henderson, D. Ranasinghe, V. G. Zakrzewski, J. Gao, N. Rega, 
 G. Zheng, W. Liang, M. Hada, M. Ehara, K. Toyota, R. Fukuda, 
 J. Hasegawa, M. Ishida, T. Nakajima, Y. Honda, O. Kitao, H. Nakai, 
 T. Vreven, K. Throssell, J. A. Montgomery, Jr., J. E. Peralta, 
 F. Ogliaro, M. J. Bearpark, J. J. Heyd, E. N. Brothers, K. N. Kudin, 
 V. N. Staroverov, T. A. Keith, R. Kobayashi, J. Normand, 
 K. Raghavachari, A. P. Rendell, J. C. Burant, S. S. Iyengar, 
 J. Tomasi, M. Cossi, J. M. Millam, M. Klene, C. Adamo, R. Cammi, 
 J. W. Ochterski, R. L. Martin, K. Morokuma, O. Farkas, 
 J. B. Foresman, and D. J. Fox, Gaussian, Inc., Wallingford CT, 2019.
 
 ******************************************
 Gaussian 16:  ES64L-G16RevC.01  3-Jul-2019
                 8-Sep-2022 
 ******************************************
 %mem=8gb
 %nproc=4
 Will use up to    4 processors via shared memory.
 %chk=conf-684.chk
 ----------------------------------------------------------------------
 # B3LYP/6-31G** empiricaldispersion=gd3bj guess=read geom=check nosymm
  integral(ultrafinegrid)
 ----------------------------------------------------------------------
 1/29=2,38=1,172=1/1;
 2/12=2,15=1,40=1/2;
 3/5=1,6=6,7=101,11=2,14=-4,25=1,30=1,74=-5,75=-5,116=-2,124=41/1,2,3;
 4/5=1/1;
 5/5=2,38=6/2;
 6/7=2,8=2,9=2,10=2,28=1/1;
 99/5=1,9=1/99;
 ------------------------------------------------------
 Candidate Structure: Conf:684 Charge calc in gas phase
 ------------------------------------------------------
 Structure from the checkpoint file:  "conf-684.chk"
 Charge =  1 Multiplicity = 1
 Redundant internal coordinates found in file.  (old form).
 N,0,-4.8076459309,2.4170089702,2.7032591977
 H,0,-5.2712587252,2.4972556707,1.799704609
 H,0,-5.0457808708,1.479965005,3.0297877032
 C,0,-3.3719455977,2.448829748,2.4788054913
 H,0,-3.1330706165,3.3098354141,1.8481588277
 C,0,-2.8656114124,1.1685222435,1.7865762018
 C,0,-2.6476116999,2.6410380375,3.8235142565
 H,0,-3.1100548907,3.4979004885,4.3266430913
 H,0,-2.8074510382,1.7661635945,4.4629403366
 O,0,-3.471895581,0.1090080199,1.8766442837
 C,0,-1.1678028677,2.9303152884,3.6690107697
 N,0,-0.3625043604,2.4835022708,4.6498019769
 H,0,0.6292193567,2.6648325512,4.6064873011
 H,0,-0.7212150886,1.9560805396,5.4302730726
 O,0,-0.7317322369,3.573219046,2.6980386244
 N,0,-1.6970790088,1.3071575751,1.0930693175
 H,0,-1.2581391171,2.2167613788,1.0826965368
 C,0,-1.2488527552,0.29144522,0.1752752596
 H,0,-1.7133967832,-0.642454104,0.5003580498
 C,0,0.2695682297,0.1703986561,0.2256238241
 C,0,-1.7068696948,0.585556909,-1.2902690871
 H,0,-1.1039166765,1.4102077054,-1.6853406805
 H,0,-1.4931371196,-0.2945749648,-1.9052315295
 O,0,0.9965929159,1.1359255478,0.55561936
 C,0,-3.1680992743,0.9512061318,-1.3371079483
 C,0,-4.1526790281,-0.0412307508,-1.3724446493
 H,0,-3.8590838432,-1.0847533875,-1.4414479348
 C,0,-3.5634185181,2.2895540299,-1.2335100335
 H,0,-2.807590976,3.0710732027,-1.2044381979
 C,0,-5.5023715735,0.2955275892,-1.2975382801
 H,0,-6.2547108539,-0.4859066438,-1.3225039047
 C,0,-4.9136195868,2.6330959418,-1.1566333553
 H,0,-5.204840568,3.6766588936,-1.0849630484
 C,0,-5.8869793155,1.63285063,-1.1842198392
 H,0,-6.9387680258,1.8944552426,-1.127977407
 N,0,0.7486135315,-1.0124495,-0.1612716444
 H,0,0.1259558999,-1.7492742871,-0.5184984535
 C,0,2.1667483052,-1.3627830699,-0.2591315162
 H,0,2.6700530992,-1.007752007,0.6463707758
 C,0,2.8314688084,-0.7000735182,-1.486935037
 C,0,2.3021312521,-2.8886521783,-0.3607610552
 H,0,1.9664833754,-3.3353963402,0.580522656
 H,0,3.3545885005,-3.1419033531,-0.496546782
 O,0,3.0395844781,-1.3173716778,-2.5226860842
 C,0,1.4276120411,-3.4826513345,-1.4641278803
 N,0,2.0279221748,-4.3306559904,-2.3246969061
 H,0,1.466927558,-4.6705565854,-3.0937604544
 H,0,3.0249849161,-4.2802934551,-2.4652163262
 O,0,0.2129523494,-3.2531171367,-1.4975164065
 N,0,3.1606749954,0.6053120978,-1.2916766199
 H,0,2.7986353922,1.0471666662,-0.451293711
 C,0,3.6994284214,1.4425328996,-2.3549105777
 H,0,3.5939811679,0.8706780452,-3.2821152848
 C,0,5.1918303671,1.6779708752,-2.1011845315
 C,0,2.9659383313,2.7857480403,-2.4138341333
 H,0,3.199894407,3.304123453,-1.4775406422
 H,0,3.4062809044,3.3918208044,-3.2108970042
 O,0,5.6733556254,2.7424898924,-1.7795216722
 C,0,1.449407019,2.6482266528,-2.594340641
 H,0,1.1765529329,2.6655000417,-3.6540840659
 H,0,1.1192727978,1.6802716795,-2.2077562248
 C,0,0.653830501,3.74208855,-1.8728390557
 H,0,0.8715692296,4.7338992167,-2.275295621
 H,0,-0.4190379395,3.5821643804,-2.0210845499
 N,0,0.9091593322,3.747683043,-0.4284498272
 H,0,0.7608305985,2.8562018881,0.0674483816
 N,0,2.1794124089,5.7075353491,-0.3800947141
 H,0,2.5311855745,6.4950983836,0.1402470099
 H,0,2.5281427598,5.5828333801,-1.3167237116
 N,0,1.5139904667,4.675018232,1.5891219134
 H,0,2.0910326294,5.3191577735,2.1066907732
 H,0,0.7522269632,4.1833634344,2.0880370229
 C,0,1.5356225903,4.7062814059,0.2544070356
 O,0,5.9021321578,0.548018115,-2.2509049419
 H,0,6.8298278695,0.7645182026,-2.0533669082
 Recover connectivity data from disk.
                           ----------------------------
                           !    Current Parameters    !
                           ! (Angstroms and Degrees)  !
 --------------------------                            --------------------------
 ! Name  Definition              Value                                          !
 --------------------------------------------------------------------------------
 ! R1    R(1,2)                  1.0187                                         !
 ! R2    R(1,3)                  1.0205                                         !
 ! R3    R(1,4)                  1.4535                                         !
 ! R4    R(4,5)                  1.0937                                         !
 ! R5    R(4,6)                  1.541                                          !
 ! R6    R(4,7)                  1.5394                                         !
 ! R7    R(6,10)                 1.224                                          !
 ! R8    R(6,16)                 1.3659                                         !
 ! R9    R(7,8)                  1.096                                          !
 ! R10   R(7,9)                  1.0954                                         !
 ! R11   R(7,11)                 1.5157                                         !
 ! R12   R(11,12)                1.3454                                         !
 ! R13   R(11,15)                1.2435                                         !
 ! R14   R(12,13)                1.0091                                         !
 ! R15   R(12,14)                1.008                                          !
 ! R16   R(16,17)                1.01                                           !
 ! R17   R(16,18)                1.4405                                         !
 ! R18   R(18,19)                1.0925                                         !
 ! R19   R(18,20)                1.5241                                         !
 ! R20   R(18,21)                1.5634                                         !
 ! R21   R(20,24)                1.2529                                         !
 ! R22   R(20,36)                1.3335                                         !
 ! R23   R(21,22)                1.0953                                         !
 ! R24   R(21,23)                1.0948                                         !
 ! R25   R(21,25)                1.507                                          !
 ! R26   R(25,26)                1.3984                                         !
 ! R27   R(25,28)                1.3994                                         !
 ! R28   R(26,27)                1.0862                                         !
 ! R29   R(26,30)                1.3931                                         !
 ! R30   R(28,29)                1.0876                                         !
 ! R31   R(28,32)                1.3953                                         !
 ! R32   R(30,31)                1.085                                          !
 ! R33   R(30,34)                1.3961                                         !
 ! R34   R(32,33)                1.0858                                         !
 ! R35   R(32,34)                1.396                                          !
 ! R36   R(34,35)                1.0853                                         !
 ! R37   R(36,37)                1.0287                                         !
 ! R38   R(36,38)                1.464                                          !
 ! R39   R(38,39)                1.0951                                         !
 ! R40   R(38,40)                1.5455                                         !
 ! R41   R(38,41)                1.5352                                         !
 ! R42   R(40,44)                1.2236                                         !
 ! R43   R(40,50)                1.3603                                         !
 ! R44   R(41,42)                1.0946                                         !
 ! R45   R(41,43)                1.091                                          !
 ! R46   R(41,45)                1.5281                                         !
 ! R47   R(45,46)                1.3491                                         !
 ! R48   R(45,49)                1.2366                                         !
 ! R49   R(46,47)                1.0108                                         !
 ! R50   R(46,48)                1.0082                                         !
 ! R51   R(50,51)                1.0161                                         !
 ! R52   R(50,52)                1.4566                                         !
 ! R53   R(52,53)                1.0945                                         !
 ! R54   R(52,54)                1.532                                          !
 ! R55   R(52,55)                1.5316                                         !
 ! R56   R(54,58)                1.2118                                         !
 ! R57   R(54,74)                1.343                                          !
 ! R58   R(55,56)                1.0955                                         !
 ! R59   R(55,57)                1.0939                                         !
 ! R60   R(55,59)                1.5334                                         !
 ! R61   R(59,60)                1.0944                                         !
 ! R62   R(59,61)                1.0933                                         !
 ! R63   R(59,62)                1.533                                          !
 ! R64   R(62,63)                1.0923                                         !
 ! R65   R(62,64)                1.0948                                         !
 ! R66   R(62,65)                1.4668                                         !
 ! R67   R(65,66)                1.0309                                         !
 ! R68   R(65,73)                1.3333                                         !
 ! R69   R(67,68)                1.0074                                         !
 ! R70   R(67,69)                1.0072                                         !
 ! R71   R(67,73)                1.3489                                         !
 ! R72   R(70,71)                1.0079                                         !
 ! R73   R(70,72)                1.0349                                         !
 ! R74   R(70,73)                1.3353                                         !
 ! R75   R(74,75)                0.9729                                         !
 ! A1    A(2,1,3)              104.4737                                         !
 ! A2    A(2,1,4)              108.1095                                         !
 ! A3    A(3,1,4)              107.4585                                         !
 ! A4    A(1,4,5)              108.7855                                         !
 ! A5    A(1,4,6)              112.0693                                         !
 ! A6    A(1,4,7)              109.427                                          !
 ! A7    A(5,4,6)              108.8616                                         !
 ! A8    A(5,4,7)              107.6158                                         !
 ! A9    A(6,4,7)              109.9693                                         !
 ! A10   A(4,6,10)             121.5572                                         !
 ! A11   A(4,6,16)             115.1409                                         !
 ! A12   A(10,6,16)            123.2961                                         !
 ! A13   A(4,7,8)              107.4623                                         !
 ! A14   A(4,7,9)              109.9704                                         !
 ! A15   A(4,7,11)             113.2138                                         !
 ! A16   A(8,7,9)              107.1508                                         !
 ! A17   A(8,7,11)             108.0308                                         !
 ! A18   A(9,7,11)             110.7571                                         !
 ! A19   A(7,11,12)            116.5312                                         !
 ! A20   A(7,11,15)            121.3755                                         !
 ! A21   A(12,11,15)           122.0752                                         !
 ! A22   A(11,12,13)           119.8205                                         !
 ! A23   A(11,12,14)           121.6837                                         !
 ! A24   A(13,12,14)           118.4907                                         !
 ! A25   A(6,16,17)            117.9313                                         !
 ! A26   A(6,16,18)            121.2079                                         !
 ! A27   A(17,16,18)           119.5544                                         !
 ! A28   A(16,18,19)           106.311                                          !
 ! A29   A(16,18,20)           110.18                                           !
 ! A30   A(16,18,21)           111.9298                                         !
 ! A31   A(19,18,20)           110.2367                                         !
 ! A32   A(19,18,21)           108.3712                                         !
 ! A33   A(20,18,21)           109.7425                                         !
 ! A34   A(18,20,24)           121.7104                                         !
 ! A35   A(18,20,36)           114.7566                                         !
 ! A36   A(24,20,36)           123.472                                          !
 ! A37   A(18,21,22)           108.5718                                         !
 ! A38   A(18,21,23)           108.5507                                         !
 ! A39   A(18,21,25)           111.0296                                         !
 ! A40   A(22,21,23)           107.1698                                         !
 ! A41   A(22,21,25)           109.8695                                         !
 ! A42   A(23,21,25)           111.525                                          !
 ! A43   A(21,25,26)           120.7485                                         !
 ! A44   A(21,25,28)           120.2433                                         !
 ! A45   A(26,25,28)           118.7976                                         !
 ! A46   A(25,26,27)           119.5436                                         !
 ! A47   A(25,26,30)           120.6119                                         !
 ! A48   A(27,26,30)           119.8358                                         !
 ! A49   A(25,28,29)           119.5312                                         !
 ! A50   A(25,28,32)           120.8582                                         !
 ! A51   A(29,28,32)           119.6087                                         !
 ! A52   A(26,30,31)           119.7655                                         !
 ! A53   A(26,30,34)           120.1865                                         !
 ! A54   A(31,30,34)           120.0473                                         !
 ! A55   A(28,32,33)           119.9865                                         !
 ! A56   A(28,32,34)           119.8158                                         !
 ! A57   A(33,32,34)           120.1952                                         !
 ! A58   A(30,34,32)           119.727                                          !
 ! A59   A(30,34,35)           120.1372                                         !
 ! A60   A(32,34,35)           120.1329                                         !
 ! A61   A(20,36,37)           121.2415                                         !
 ! A62   A(20,36,38)           125.4233                                         !
 ! A63   A(37,36,38)           113.0602                                         !
 ! A64   A(36,38,39)           108.1998                                         !
 ! A65   A(36,38,40)           111.5375                                         !
 ! A66   A(36,38,41)           109.1278                                         !
 ! A67   A(39,38,40)           108.675                                          !
 ! A68   A(39,38,41)           109.6591                                         !
 ! A69   A(40,38,41)           109.6132                                         !
 ! A70   A(38,40,44)           121.9591                                         !
 ! A71   A(38,40,50)           113.6741                                         !
 ! A72   A(44,40,50)           124.3648                                         !
 ! A73   A(38,41,42)           108.7636                                         !
 ! A74   A(38,41,43)           108.9065                                         !
 ! A75   A(38,41,45)           112.562                                          !
 ! A76   A(42,41,43)           107.944                                          !
 ! A77   A(42,41,45)           106.6647                                         !
 ! A78   A(43,41,45)           111.8382                                         !
 ! A79   A(41,45,46)           116.7613                                         !
 ! A80   A(41,45,49)           120.6294                                         !
 ! A81   A(46,45,49)           122.4473                                         !
 ! A82   A(45,46,47)           116.7273                                         !
 ! A83   A(45,46,48)           119.8398                                         !
 ! A84   A(47,46,48)           117.3637                                         !
 ! A85   A(40,50,51)           116.7278                                         !
 ! A86   A(40,50,52)           122.4318                                         !
 ! A87   A(51,50,52)           119.0475                                         !
 ! A88   A(50,52,53)           106.4057                                         !
 ! A89   A(50,52,54)           109.1322                                         !
 ! A90   A(50,52,55)           110.7958                                         !
 ! A91   A(53,52,54)           108.3281                                         !
 ! A92   A(53,52,55)           112.3031                                         !
 ! A93   A(54,52,55)           109.7626                                         !
 ! A94   A(52,54,58)           124.4743                                         !
 ! A95   A(52,54,74)           111.5581                                         !
 ! A96   A(58,54,74)           123.9527                                         !
 ! A97   A(52,55,56)           106.2505                                         !
 ! A98   A(52,55,57)           108.7337                                         !
 ! A99   A(52,55,59)           113.5479                                         !
 ! A100  A(56,55,57)           105.9399                                         !
 ! A101  A(56,55,59)           110.748                                          !
 ! A102  A(57,55,59)           111.2255                                         !
 ! A103  A(55,59,60)           111.0469                                         !
 ! A104  A(55,59,61)           109.658                                          !
 ! A105  A(55,59,62)           113.195                                          !
 ! A106  A(60,59,61)           106.3239                                         !
 ! A107  A(60,59,62)           108.3659                                         !
 ! A108  A(61,59,62)           107.9752                                         !
 ! A109  A(59,62,63)           111.7804                                         !
 ! A110  A(59,62,64)           109.9141                                         !
 ! A111  A(59,62,65)           112.0766                                         !
 ! A112  A(63,62,64)           106.1467                                         !
 ! A113  A(63,62,65)           108.9453                                         !
 ! A114  A(64,62,65)           107.727                                          !
 ! A115  A(62,65,66)           116.4466                                         !
 ! A116  A(62,65,73)           126.0768                                         !
 ! A117  A(66,65,73)           116.2953                                         !
 ! A118  A(68,67,69)           117.145                                          !
 ! A119  A(68,67,73)           120.2655                                         !
 ! A120  A(69,67,73)           120.7153                                         !
 ! A121  A(71,70,72)           118.5233                                         !
 ! A122  A(71,70,73)           119.2806                                         !
 ! A123  A(72,70,73)           120.329                                          !
 ! A124  A(65,73,67)           121.1319                                         !
 ! A125  A(65,73,70)           119.1768                                         !
 ! A126  A(67,73,70)           119.6896                                         !
 ! A127  A(54,74,75)           107.1245                                         !
 ! D1    D(2,1,4,5)             50.3518                                         !
 ! D2    D(2,1,4,6)            -70.071                                          !
 ! D3    D(2,1,4,7)            167.6694                                         !
 ! D4    D(3,1,4,5)            162.5934                                         !
 ! D5    D(3,1,4,6)             42.1706                                         !
 ! D6    D(3,1,4,7)            -80.089                                          !
 ! D7    D(1,4,6,10)           -24.9126                                         !
 ! D8    D(1,4,6,16)           155.9394                                         !
 ! D9    D(5,4,6,10)          -145.2912                                         !
 ! D10   D(5,4,6,16)            35.5608                                         !
 ! D11   D(7,4,6,10)            97.0375                                         !
 ! D12   D(7,4,6,16)           -82.1104                                         !
 ! D13   D(1,4,7,8)            -50.6535                                         !
 ! D14   D(1,4,7,9)             65.6563                                         !
 ! D15   D(1,4,7,11)          -169.8616                                         !
 ! D16   D(5,4,7,8)             67.3971                                         !
 ! D17   D(5,4,7,9)           -176.2931                                         !
 ! D18   D(5,4,7,11)           -51.811                                          !
 ! D19   D(6,4,7,8)           -174.1613                                         !
 ! D20   D(6,4,7,9)            -57.8516                                         !
 ! D21   D(6,4,7,11)            66.6306                                         !
 ! D22   D(4,6,16,17)           -0.0254                                         !
 ! D23   D(4,6,16,18)         -166.9123                                         !
 ! D24   D(10,6,16,17)        -179.1567                                         !
 ! D25   D(10,6,16,18)          13.9564                                         !
 ! D26   D(4,7,11,12)         -148.473                                          !
 ! D27   D(4,7,11,15)           33.0439                                         !
 ! D28   D(8,7,11,12)           92.6465                                         !
 ! D29   D(8,7,11,15)          -85.8366                                         !
 ! D30   D(9,7,11,12)          -24.4195                                         !
 ! D31   D(9,7,11,15)          157.0974                                         !
 ! D32   D(7,11,12,13)        -178.7767                                         !
 ! D33   D(7,11,12,14)           2.0597                                         !
 ! D34   D(15,11,12,13)         -0.3051                                         !
 ! D35   D(15,11,12,14)       -179.4687                                         !
 ! D36   D(6,16,18,19)         -24.4732                                         !
 ! D37   D(6,16,18,20)        -143.9142                                         !
 ! D38   D(6,16,18,21)          93.679                                          !
 ! D39   D(17,16,18,19)        168.849                                          !
 ! D40   D(17,16,18,20)         49.408                                          !
 ! D41   D(17,16,18,21)        -72.9987                                         !
 ! D42   D(16,18,20,24)        -26.9171                                         !
 ! D43   D(16,18,20,36)        155.8305                                         !
 ! D44   D(19,18,20,24)       -143.9433                                         !
 ! D45   D(19,18,20,36)         38.8043                                         !
 ! D46   D(21,18,20,24)         96.7693                                         !
 ! D47   D(21,18,20,36)        -80.4831                                         !
 ! D48   D(16,18,21,22)         73.5693                                         !
 ! D49   D(16,18,21,23)       -170.2476                                         !
 ! D50   D(16,18,21,25)        -47.3152                                         !
 ! D51   D(19,18,21,22)       -169.5124                                         !
 ! D52   D(19,18,21,23)        -53.3293                                         !
 ! D53   D(19,18,21,25)         69.6031                                         !
 ! D54   D(20,18,21,22)        -49.0866                                         !
 ! D55   D(20,18,21,23)         67.0965                                         !
 ! D56   D(20,18,21,25)       -169.9711                                         !
 ! D57   D(18,20,36,37)          3.6737                                         !
 ! D58   D(18,20,36,38)        177.2225                                         !
 ! D59   D(24,20,36,37)       -173.5241                                         !
 ! D60   D(24,20,36,38)          0.0246                                         !
 ! D61   D(18,21,25,26)        -83.7721                                         !
 ! D62   D(18,21,25,28)         90.8915                                         !
 ! D63   D(22,21,25,26)        156.1115                                         !
 ! D64   D(22,21,25,28)        -29.2249                                         !
 ! D65   D(23,21,25,26)         37.4285                                         !
 ! D66   D(23,21,25,28)       -147.9079                                         !
 ! D67   D(21,25,26,27)         -4.5774                                         !
 ! D68   D(21,25,26,30)        174.3466                                         !
 ! D69   D(28,25,26,27)       -179.3169                                         !
 ! D70   D(28,25,26,30)         -0.393                                          !
 ! D71   D(21,25,28,29)          5.1962                                         !
 ! D72   D(21,25,28,32)       -174.3023                                         !
 ! D73   D(26,25,28,29)        179.9631                                         !
 ! D74   D(26,25,28,32)          0.4646                                         !
 ! D75   D(25,26,30,31)       -179.7748                                         !
 ! D76   D(25,26,30,34)         -0.0831                                         !
 ! D77   D(27,26,30,31)         -0.854                                          !
 ! D78   D(27,26,30,34)        178.8377                                         !
 ! D79   D(25,28,32,33)       -179.4883                                         !
 ! D80   D(25,28,32,34)         -0.0591                                         !
 ! D81   D(29,28,32,33)          1.0136                                         !
 ! D82   D(29,28,32,34)       -179.5572                                         !
 ! D83   D(26,30,34,32)          0.4944                                         !
 ! D84   D(26,30,34,35)        179.8741                                         !
 ! D85   D(31,30,34,32)       -179.8148                                         !
 ! D86   D(31,30,34,35)         -0.4351                                         !
 ! D87   D(28,32,34,30)         -0.4228                                         !
 ! D88   D(28,32,34,35)       -179.8026                                         !
 ! D89   D(33,32,34,30)        179.0052                                         !
 ! D90   D(33,32,34,35)         -0.3746                                         !
 ! D91   D(20,36,38,39)         45.4175                                         !
 ! D92   D(20,36,38,40)        -74.0626                                         !
 ! D93   D(20,36,38,41)        164.6833                                         !
 ! D94   D(37,36,38,39)       -140.5756                                         !
 ! D95   D(37,36,38,40)         99.9443                                         !
 ! D96   D(37,36,38,41)        -21.3097                                         !
 ! D97   D(36,38,40,44)       -100.7899                                         !
 ! D98   D(36,38,40,50)         79.7075                                         !
 ! D99   D(39,38,40,44)        140.0119                                         !
 ! D100  D(39,38,40,50)        -39.4908                                         !
 ! D101  D(41,38,40,44)         20.1814                                         !
 ! D102  D(41,38,40,50)       -159.3213                                         !
 ! D103  D(36,38,41,42)        -66.1139                                         !
 ! D104  D(36,38,41,43)        176.4802                                         !
 ! D105  D(36,38,41,45)         51.863                                          !
 ! D106  D(39,38,41,42)         52.242                                          !
 ! D107  D(39,38,41,43)        -65.1639                                         !
 ! D108  D(39,38,41,45)        170.2189                                         !
 ! D109  D(40,38,41,42)        171.4686                                         !
 ! D110  D(40,38,41,43)         54.0627                                         !
 ! D111  D(40,38,41,45)        -70.5545                                         !
 ! D112  D(38,40,50,51)        -10.4576                                         !
 ! D113  D(38,40,50,52)       -175.0444                                         !
 ! D114  D(44,40,50,51)        170.0536                                         !
 ! D115  D(44,40,50,52)          5.4668                                         !
 ! D116  D(38,41,45,46)        130.3119                                         !
 ! D117  D(38,41,45,49)        -54.2023                                         !
 ! D118  D(42,41,45,46)       -110.4811                                         !
 ! D119  D(42,41,45,49)         65.0048                                         !
 ! D120  D(43,41,45,46)          7.3208                                         !
 ! D121  D(43,41,45,49)       -177.1933                                         !
 ! D122  D(41,45,46,47)       -175.669                                          !
 ! D123  D(41,45,46,48)        -23.7694                                         !
 ! D124  D(49,45,46,47)          8.9341                                         !
 ! D125  D(49,45,46,48)        160.8337                                         !
 ! D126  D(40,50,52,53)          9.831                                          !
 ! D127  D(40,50,52,54)       -106.8555                                         !
 ! D128  D(40,50,52,55)        132.1749                                         !
 ! D129  D(51,50,52,53)       -154.4133                                         !
 ! D130  D(51,50,52,54)         88.9002                                         !
 ! D131  D(51,50,52,55)        -32.0694                                         !
 ! D132  D(50,52,54,58)       -110.4883                                         !
 ! D133  D(50,52,54,74)         68.1498                                         !
 ! D134  D(53,52,54,58)        134.0541                                         !
 ! D135  D(53,52,54,74)        -47.3079                                         !
 ! D136  D(55,52,54,58)         11.1097                                         !
 ! D137  D(55,52,54,74)       -170.2523                                         !
 ! D138  D(50,52,55,56)         65.4955                                         !
 ! D139  D(50,52,55,57)        179.1307                                         !
 ! D140  D(50,52,55,59)        -56.4796                                         !
 ! D141  D(53,52,55,56)       -175.6666                                         !
 ! D142  D(53,52,55,57)        -62.0314                                         !
 ! D143  D(53,52,55,59)         62.3583                                         !
 ! D144  D(54,52,55,56)        -55.1005                                         !
 ! D145  D(54,52,55,57)         58.5347                                         !
 ! D146  D(54,52,55,59)       -177.0756                                         !
 ! D147  D(52,54,74,75)       -178.5349                                         !
 ! D148  D(58,54,74,75)          0.1115                                         !
 ! D149  D(52,55,59,60)        -91.8093                                         !
 ! D150  D(52,55,59,61)         25.401                                          !
 ! D151  D(52,55,59,62)        146.0377                                         !
 ! D152  D(56,55,59,60)        148.75                                           !
 ! D153  D(56,55,59,61)        -94.0397                                         !
 ! D154  D(56,55,59,62)         26.597                                          !
 ! D155  D(57,55,59,60)         31.2223                                         !
 ! D156  D(57,55,59,61)        148.4327                                         !
 ! D157  D(57,55,59,62)        -90.9307                                         !
 ! D158  D(55,59,62,63)         63.4625                                         !
 ! D159  D(55,59,62,64)       -178.9387                                         !
 ! D160  D(55,59,62,65)        -59.1765                                         !
 ! D161  D(60,59,62,63)        -60.1753                                         !
 ! D162  D(60,59,62,64)         57.4235                                         !
 ! D163  D(60,59,62,65)        177.1856                                         !
 ! D164  D(61,59,62,63)       -174.9506                                         !
 ! D165  D(61,59,62,64)        -57.3518                                         !
 ! D166  D(61,59,62,65)         62.4103                                         !
 ! D167  D(59,62,65,66)        -54.3667                                         !
 ! D168  D(59,62,65,73)        112.6892                                         !
 ! D169  D(63,62,65,66)       -178.5997                                         !
 ! D170  D(63,62,65,73)        -11.5438                                         !
 ! D171  D(64,62,65,66)         66.6662                                         !
 ! D172  D(64,62,65,73)       -126.2779                                         !
 ! D173  D(62,65,73,67)         -9.7981                                         !
 ! D174  D(62,65,73,70)        169.7143                                         !
 ! D175  D(66,65,73,67)        157.2751                                         !
 ! D176  D(66,65,73,70)        -23.2125                                         !
 ! D177  D(68,67,73,65)        170.9768                                         !
 ! D178  D(68,67,73,70)         -8.5331                                         !
 ! D179  D(69,67,73,65)        -25.0493                                         !
 ! D180  D(69,67,73,70)        155.4408                                         !
 ! D181  D(71,70,73,65)        171.4522                                         !
 ! D182  D(71,70,73,67)         -9.0283                                         !
 ! D183  D(72,70,73,65)        -24.3277                                         !
 ! D184  D(72,70,73,67)        155.1918                                         !
 --------------------------------------------------------------------------------
 Symmetry turned off by external request.
 Stoichiometry    C23H36N9O7(1+)
 Framework group  C1[X(C23H36N9O7)]
 Deg. of freedom   219
 Full point group                 C1      NOp   1
                          Input orientation:                          
 ---------------------------------------------------------------------
 Center     Atomic      Atomic             Coordinates (Angstroms)
 Number     Number       Type             X           Y           Z
 ---------------------------------------------------------------------
      1          7           0       -4.807646    2.417009    2.703259
      2          1           0       -5.271259    2.497256    1.799705
      3          1           0       -5.045781    1.479965    3.029788
      4          6           0       -3.371946    2.448830    2.478805
      5          1           0       -3.133071    3.309835    1.848159
      6          6           0       -2.865611    1.168522    1.786576
      7          6           0       -2.647612    2.641038    3.823514
      8          1           0       -3.110055    3.497900    4.326643
      9          1           0       -2.807451    1.766164    4.462940
     10          8           0       -3.471896    0.109008    1.876644
     11          6           0       -1.167803    2.930315    3.669011
     12          7           0       -0.362504    2.483502    4.649802
     13          1           0        0.629219    2.664833    4.606487
     14          1           0       -0.721215    1.956081    5.430273
     15          8           0       -0.731732    3.573219    2.698039
     16          7           0       -1.697079    1.307158    1.093069
     17          1           0       -1.258139    2.216761    1.082697
     18          6           0       -1.248853    0.291445    0.175275
     19          1           0       -1.713397   -0.642454    0.500358
     20          6           0        0.269568    0.170399    0.225624
     21          6           0       -1.706870    0.585557   -1.290269
     22          1           0       -1.103917    1.410208   -1.685341
     23          1           0       -1.493137   -0.294575   -1.905232
     24          8           0        0.996593    1.135926    0.555619
     25          6           0       -3.168099    0.951206   -1.337108
     26          6           0       -4.152679   -0.041231   -1.372445
     27          1           0       -3.859084   -1.084753   -1.441448
     28          6           0       -3.563419    2.289554   -1.233510
     29          1           0       -2.807591    3.071073   -1.204438
     30          6           0       -5.502372    0.295528   -1.297538
     31          1           0       -6.254711   -0.485907   -1.322504
     32          6           0       -4.913620    2.633096   -1.156633
     33          1           0       -5.204841    3.676659   -1.084963
     34          6           0       -5.886979    1.632851   -1.184220
     35          1           0       -6.938768    1.894455   -1.127977
     36          7           0        0.748614   -1.012449   -0.161272
     37          1           0        0.125956   -1.749274   -0.518498
     38          6           0        2.166748   -1.362783   -0.259132
     39          1           0        2.670053   -1.007752    0.646371
     40          6           0        2.831469   -0.700074   -1.486935
     41          6           0        2.302131   -2.888652   -0.360761
     42          1           0        1.966483   -3.335396    0.580523
     43          1           0        3.354589   -3.141903   -0.496547
     44          8           0        3.039584   -1.317372   -2.522686
     45          6           0        1.427612   -3.482651   -1.464128
     46          7           0        2.027922   -4.330656   -2.324697
     47          1           0        1.466928   -4.670557   -3.093760
     48          1           0        3.024985   -4.280293   -2.465216
     49          8           0        0.212952   -3.253117   -1.497516
     50          7           0        3.160675    0.605312   -1.291677
     51          1           0        2.798635    1.047167   -0.451294
     52          6           0        3.699428    1.442533   -2.354911
     53          1           0        3.593981    0.870678   -3.282115
     54          6           0        5.191830    1.677971   -2.101185
     55          6           0        2.965938    2.785748   -2.413834
     56          1           0        3.199894    3.304123   -1.477541
     57          1           0        3.406281    3.391821   -3.210897
     58          8           0        5.673356    2.742490   -1.779522
     59          6           0        1.449407    2.648227   -2.594341
     60          1           0        1.176553    2.665500   -3.654084
     61          1           0        1.119273    1.680272   -2.207756
     62          6           0        0.653831    3.742089   -1.872839
     63          1           0        0.871569    4.733899   -2.275296
     64          1           0       -0.419038    3.582164   -2.021085
     65          7           0        0.909159    3.747683   -0.428450
     66          1           0        0.760831    2.856202    0.067448
     67          7           0        2.179412    5.707535   -0.380095
     68          1           0        2.531186    6.495098    0.140247
     69          1           0        2.528143    5.582833   -1.316724
     70          7           0        1.513990    4.675018    1.589122
     71          1           0        2.091033    5.319158    2.106691
     72          1           0        0.752227    4.183363    2.088037
     73          6           0        1.535623    4.706281    0.254407
     74          8           0        5.902132    0.548018   -2.250905
     75          1           0        6.829828    0.764518   -2.053367
 ---------------------------------------------------------------------
 Rotational constants (GHZ):           0.1136596           0.0689962           0.0554966
 Standard basis: 6-31G(d,p) (6D, 7F)
   765 basis functions,  1344 primitive gaussians,   765 cartesian basis functions
   146 alpha electrons      146 beta electrons
       nuclear repulsion energy      4921.7086037952 Hartrees.
 NAtoms=   75 NActive=   75 NUniq=   75 SFac= 1.00D+00 NAtFMM=   60 NAOKFM=T Big=T
 Integral buffers will be    131072 words long.
 Raffenetti 2 integral format.
 Two-electron integral symmetry is turned off.
 Nuclear repulsion after empirical dispersion term =     4921.5355370039 Hartrees.
 One-electron integrals computed using PRISM.
 NBasis=   765 RedAO= T EigKep=  4.50D-04  NBF=   765
 NBsUse=   765 1.00D-06 EigRej= -1.00D+00 NBFU=   765
 Initial guess from the checkpoint file:  "conf-684.chk"
 B after Tr=     0.000000    0.000000    0.000000
         Rot=    1.000000    0.000000    0.000000    0.000000 Ang=   0.00 deg.
 Requested convergence on RMS density matrix=1.00D-08 within 128 cycles.
 Requested convergence on MAX density matrix=1.00D-06.
 Requested convergence on             energy=1.00D-06.
 No special actions if energy rises.
 SCF Done:  E(RB3LYP) =  -1917.65183126     A.U. after    3 cycles
            NFock=  3  Conv=0.81D-09     -V/T= 2.0092

 **********************************************************************

            Population analysis using the SCF Density.

 **********************************************************************

 Alpha  occ. eigenvalues --  -19.28591 -19.24141 -19.24041 -19.23265 -19.21597
 Alpha  occ. eigenvalues --  -19.20935 -19.19539 -14.50921 -14.49501 -14.48879
 Alpha  occ. eigenvalues --  -14.47784 -14.46607 -14.45880 -14.44290 -14.44135
 Alpha  occ. eigenvalues --  -14.38477 -10.46445 -10.41245 -10.41157 -10.40118
 Alpha  occ. eigenvalues --  -10.38571 -10.38541 -10.36245 -10.35110 -10.34347
 Alpha  occ. eigenvalues --  -10.33604 -10.32873 -10.30644 -10.30033 -10.29777
 Alpha  occ. eigenvalues --  -10.29776 -10.29301 -10.28804 -10.27407 -10.26773
 Alpha  occ. eigenvalues --  -10.26504 -10.26170 -10.26149 -10.26018  -1.19735
 Alpha  occ. eigenvalues --   -1.15522  -1.15207  -1.14821  -1.13495  -1.12541
 Alpha  occ. eigenvalues --   -1.11551  -1.10775  -1.04434  -1.03626  -1.03019
 Alpha  occ. eigenvalues --   -1.02708  -1.02471  -1.01287  -0.99371  -0.96558
 Alpha  occ. eigenvalues --   -0.93196  -0.91344  -0.89467  -0.87165  -0.86154
 Alpha  occ. eigenvalues --   -0.85497  -0.82120  -0.81785  -0.80445  -0.77651
 Alpha  occ. eigenvalues --   -0.76744  -0.75855  -0.73872  -0.73050  -0.71826
 Alpha  occ. eigenvalues --   -0.71268  -0.69489  -0.69060  -0.68262  -0.68152
 Alpha  occ. eigenvalues --   -0.67980  -0.67374  -0.66715  -0.66092  -0.65026
 Alpha  occ. eigenvalues --   -0.64741  -0.63939  -0.63265  -0.62497  -0.61260
 Alpha  occ. eigenvalues --   -0.60276  -0.59710  -0.59577  -0.59159  -0.58578
 Alpha  occ. eigenvalues --   -0.58289  -0.57885  -0.57215  -0.57000  -0.56421
 Alpha  occ. eigenvalues --   -0.55749  -0.55584  -0.54843  -0.54446  -0.54078
 Alpha  occ. eigenvalues --   -0.53465  -0.52864  -0.52668  -0.52467  -0.52149
 Alpha  occ. eigenvalues --   -0.51763  -0.51320  -0.50992  -0.49800  -0.49665
 Alpha  occ. eigenvalues --   -0.49367  -0.49128  -0.48914  -0.48706  -0.48579
 Alpha  occ. eigenvalues --   -0.48245  -0.47830  -0.47522  -0.47100  -0.46319
 Alpha  occ. eigenvalues --   -0.46121  -0.45787  -0.45442  -0.44876  -0.44639
 Alpha  occ. eigenvalues --   -0.43247  -0.42800  -0.41785  -0.41720  -0.41360
 Alpha  occ. eigenvalues --   -0.40880  -0.39391  -0.39180  -0.38775  -0.38342
 Alpha  occ. eigenvalues --   -0.38252  -0.37696  -0.35915  -0.34871  -0.34755
 Alpha  occ. eigenvalues --   -0.34417  -0.33974  -0.33776  -0.32272  -0.32011
 Alpha  occ. eigenvalues --   -0.31059
 Alpha virt. eigenvalues --   -0.11110  -0.10041  -0.09493  -0.09269  -0.07685
 Alpha virt. eigenvalues --   -0.07512  -0.06951  -0.06900  -0.06492  -0.05829
 Alpha virt. eigenvalues --   -0.03806  -0.02925  -0.02612  -0.00851  -0.00277
 Alpha virt. eigenvalues --   -0.00093   0.00726   0.00966   0.01241   0.01302
 Alpha virt. eigenvalues --    0.01520   0.02348   0.02772   0.03020   0.03845
 Alpha virt. eigenvalues --    0.04199   0.04546   0.04941   0.05746   0.06331
 Alpha virt. eigenvalues --    0.06819   0.06853   0.07320   0.07431   0.07978
 Alpha virt. eigenvalues --    0.08257   0.08401   0.08909   0.09267   0.09334
 Alpha virt. eigenvalues --    0.09592   0.09858   0.10329   0.10893   0.11259
 Alpha virt. eigenvalues --    0.11926   0.12162   0.12615   0.12969   0.13183
 Alpha virt. eigenvalues --    0.13731   0.13964   0.14547   0.15144   0.15494
 Alpha virt. eigenvalues --    0.15682   0.16296   0.16570   0.17231   0.17455
 Alpha virt. eigenvalues --    0.17799   0.18413   0.18950   0.19496   0.21921
 Alpha virt. eigenvalues --    0.22676   0.23383   0.23696   0.23939   0.24802
 Alpha virt. eigenvalues --    0.25641   0.26079   0.26698   0.26938   0.27098
 Alpha virt. eigenvalues --    0.27900   0.28803   0.29650   0.30122   0.30948
 Alpha virt. eigenvalues --    0.31258   0.31679   0.34541   0.37271   0.38383
 Alpha virt. eigenvalues --    0.38642   0.39659   0.39862   0.40728   0.41340
 Alpha virt. eigenvalues --    0.42064   0.42432   0.42814   0.43564   0.44241
 Alpha virt. eigenvalues --    0.44493   0.44815   0.45167   0.45745   0.45990
 Alpha virt. eigenvalues --    0.46333   0.46506   0.47312   0.47514   0.47966
 Alpha virt. eigenvalues --    0.48460   0.48675   0.49461   0.50041   0.50246
 Alpha virt. eigenvalues --    0.50433   0.50904   0.51117   0.51570   0.51857
 Alpha virt. eigenvalues --    0.52067   0.52471   0.52747   0.53251   0.53987
 Alpha virt. eigenvalues --    0.54146   0.54319   0.54515   0.55086   0.55531
 Alpha virt. eigenvalues --    0.55844   0.56128   0.56382   0.56603   0.57505
 Alpha virt. eigenvalues --    0.57862   0.58236   0.58324   0.58488   0.59062
 Alpha virt. eigenvalues --    0.59287   0.59681   0.59898   0.60607   0.61405
 Alpha virt. eigenvalues --    0.61704   0.61999   0.62443   0.63215   0.63686
 Alpha virt. eigenvalues --    0.64010   0.65171   0.65704   0.65935   0.66221
 Alpha virt. eigenvalues --    0.66681   0.66901   0.68356   0.68504   0.69247
 Alpha virt. eigenvalues --    0.69595   0.69968   0.70540   0.70879   0.71478
 Alpha virt. eigenvalues --    0.72134   0.72689   0.72805   0.73217   0.73590
 Alpha virt. eigenvalues --    0.74012   0.74362   0.74786   0.75127   0.75234
 Alpha virt. eigenvalues --    0.75427   0.75588   0.75785   0.76011   0.76398
 Alpha virt. eigenvalues --    0.76659   0.77307   0.78070   0.78249   0.78529
 Alpha virt. eigenvalues --    0.78749   0.79352   0.79781   0.80045   0.80547
 Alpha virt. eigenvalues --    0.80712   0.81286   0.81737   0.82426   0.82750
 Alpha virt. eigenvalues --    0.83013   0.83575   0.83796   0.83968   0.84968
 Alpha virt. eigenvalues --    0.85299   0.85982   0.86378   0.86811   0.87498
 Alpha virt. eigenvalues --    0.87911   0.88206   0.89017   0.89763   0.90338
 Alpha virt. eigenvalues --    0.91493   0.91731   0.92685   0.93729   0.94426
 Alpha virt. eigenvalues --    0.95121   0.95399   0.95985   0.96205   0.96909
 Alpha virt. eigenvalues --    0.97068   0.98210   0.98455   0.99799   1.00394
 Alpha virt. eigenvalues --    1.01078   1.01575   1.02183   1.03194   1.03727
 Alpha virt. eigenvalues --    1.04553   1.05178   1.05223   1.05977   1.07089
 Alpha virt. eigenvalues --    1.07800   1.08359   1.08693   1.09542   1.10140
 Alpha virt. eigenvalues --    1.10652   1.12210   1.12388   1.12982   1.13766
 Alpha virt. eigenvalues --    1.14736   1.16239   1.16283   1.17717   1.18138
 Alpha virt. eigenvalues --    1.18246   1.18474   1.18843   1.19898   1.21538
 Alpha virt. eigenvalues --    1.22094   1.22187   1.24349   1.24811   1.25161
 Alpha virt. eigenvalues --    1.25810   1.25974   1.27049   1.27170   1.27857
 Alpha virt. eigenvalues --    1.28740   1.28927   1.29927   1.30516   1.31197
 Alpha virt. eigenvalues --    1.31644   1.32322   1.33036   1.33122   1.33915
 Alpha virt. eigenvalues --    1.34336   1.34666   1.35105   1.35585   1.35901
 Alpha virt. eigenvalues --    1.36326   1.36891   1.37226   1.38505   1.39131
 Alpha virt. eigenvalues --    1.40082   1.41679   1.42309   1.43447   1.45708
 Alpha virt. eigenvalues --    1.45853   1.46497   1.47154   1.47805   1.47984
 Alpha virt. eigenvalues --    1.48878   1.49787   1.51189   1.51960   1.52789
 Alpha virt. eigenvalues --    1.53622   1.54334   1.55545   1.56596   1.57529
 Alpha virt. eigenvalues --    1.58397   1.58836   1.59986   1.61182   1.62609
 Alpha virt. eigenvalues --    1.62707   1.63718   1.64200   1.64802   1.65190
 Alpha virt. eigenvalues --    1.65846   1.66469   1.66720   1.67345   1.67913
 Alpha virt. eigenvalues --    1.68441   1.68551   1.69503   1.69961   1.71297
 Alpha virt. eigenvalues --    1.71793   1.72020   1.72880   1.73346   1.74058
 Alpha virt. eigenvalues --    1.74884   1.75236   1.75390   1.75895   1.76626
 Alpha virt. eigenvalues --    1.76904   1.77209   1.77591   1.77933   1.78917
 Alpha virt. eigenvalues --    1.79128   1.79391   1.80304   1.80340   1.81031
 Alpha virt. eigenvalues --    1.81209   1.81423   1.82480   1.82769   1.83129
 Alpha virt. eigenvalues --    1.83666   1.84165   1.85057   1.85606   1.85819
 Alpha virt. eigenvalues --    1.86278   1.86734   1.87588   1.88701   1.89216
 Alpha virt. eigenvalues --    1.89389   1.89798   1.90300   1.90347   1.91089
 Alpha virt. eigenvalues --    1.91759   1.92040   1.92823   1.93077   1.93241
 Alpha virt. eigenvalues --    1.93636   1.93882   1.94607   1.95664   1.95979
 Alpha virt. eigenvalues --    1.96298   1.96817   1.98370   1.98955   1.99481
 Alpha virt. eigenvalues --    1.99968   2.00172   2.00980   2.00982   2.01942
 Alpha virt. eigenvalues --    2.02248   2.02404   2.02974   2.03846   2.03968
 Alpha virt. eigenvalues --    2.04332   2.05082   2.05442   2.06888   2.07230
 Alpha virt. eigenvalues --    2.08070   2.08366   2.08984   2.09157   2.10879
 Alpha virt. eigenvalues --    2.11190   2.11543   2.12483   2.12682   2.13903
 Alpha virt. eigenvalues --    2.14350   2.14777   2.14981   2.15529   2.16534
 Alpha virt. eigenvalues --    2.17112   2.17566   2.17702   2.18533   2.19244
 Alpha virt. eigenvalues --    2.20249   2.20693   2.21390   2.22409   2.22876
 Alpha virt. eigenvalues --    2.23062   2.23680   2.24285   2.24536   2.25251
 Alpha virt. eigenvalues --    2.26125   2.26473   2.26867   2.27933   2.28970
 Alpha virt. eigenvalues --    2.29797   2.30170   2.30559   2.31225   2.31543
 Alpha virt. eigenvalues --    2.31839   2.32640   2.33838   2.34078   2.34885
 Alpha virt. eigenvalues --    2.35473   2.37226   2.37427   2.37754   2.38481
 Alpha virt. eigenvalues --    2.39105   2.39273   2.39513   2.39795   2.40011
 Alpha virt. eigenvalues --    2.40534   2.41714   2.42161   2.43207   2.43551
 Alpha virt. eigenvalues --    2.44254   2.44469   2.44876   2.45433   2.45658
 Alpha virt. eigenvalues --    2.46157   2.46387   2.47245   2.47777   2.47822
 Alpha virt. eigenvalues --    2.48021   2.48604   2.49027   2.49567   2.49962
 Alpha virt. eigenvalues --    2.50558   2.51316   2.51482   2.52497   2.52742
 Alpha virt. eigenvalues --    2.53325   2.53843   2.54106   2.55394   2.56593
 Alpha virt. eigenvalues --    2.57053   2.57248   2.57826   2.58245   2.58361
 Alpha virt. eigenvalues --    2.58787   2.59198   2.60536   2.60777   2.62745
 Alpha virt. eigenvalues --    2.63002   2.63525   2.64775   2.65735   2.66342
 Alpha virt. eigenvalues --    2.66624   2.66844   2.67017   2.67638   2.68357
 Alpha virt. eigenvalues --    2.69110   2.69717   2.69758   2.71021   2.71466
 Alpha virt. eigenvalues --    2.72711   2.72805   2.73872   2.74613   2.76262
 Alpha virt. eigenvalues --    2.76607   2.77080   2.77544   2.78466   2.79090
 Alpha virt. eigenvalues --    2.79158   2.80106   2.80426   2.81055   2.81625
 Alpha virt. eigenvalues --    2.82406   2.83029   2.83276   2.84470   2.84779
 Alpha virt. eigenvalues --    2.85063   2.87009   2.88552   2.89327   2.90629
 Alpha virt. eigenvalues --    2.91207   2.92182   2.94010   2.94095   2.95832
 Alpha virt. eigenvalues --    2.96923   2.97340   2.98123   2.99375   2.99649
 Alpha virt. eigenvalues --    3.00319   3.01123   3.01741   3.06119   3.10342
 Alpha virt. eigenvalues --    3.10844   3.11134   3.13751   3.16929   3.17446
 Alpha virt. eigenvalues --    3.17724   3.18327   3.18533   3.19722   3.21540
 Alpha virt. eigenvalues --    3.22105   3.23176   3.23988   3.27364   3.28250
 Alpha virt. eigenvalues --    3.28366   3.28669   3.29191   3.29572   3.30874
 Alpha virt. eigenvalues --    3.32970   3.33142   3.34544   3.36578   3.37316
 Alpha virt. eigenvalues --    3.38257   3.41211   3.41439   3.44020   3.44876
 Alpha virt. eigenvalues --    3.45909   3.46501   3.46757   3.47443   3.49076
 Alpha virt. eigenvalues --    3.49257   3.51892   3.55329   3.59192   3.82778
 Alpha virt. eigenvalues --    3.85144   3.86379   3.89208   3.91644   3.97050
 Alpha virt. eigenvalues --    3.99220   4.00515   4.03677   4.03827   4.04983
 Alpha virt. eigenvalues --    4.09379   4.11129   4.12147   4.14965   4.15578
 Alpha virt. eigenvalues --    4.20726   4.22189   4.23703   4.24281   4.25144
 Alpha virt. eigenvalues --    4.28947   4.30560   4.31518   4.39980   4.40393
 Alpha virt. eigenvalues --    4.43527   4.44848   4.47042   4.47870   4.49332
 Alpha virt. eigenvalues --    4.54014   4.56024   4.58762   4.60394   4.65225
 Alpha virt. eigenvalues --    4.68649   4.69218   4.72904   4.78694
          Condensed to atoms (all electrons):
 Mulliken charges:
               1
     1  N   -0.583717
     2  H    0.253132
     3  H    0.258816
     4  C   -0.039488
     5  H    0.118581
     6  C    0.579869
     7  C   -0.247017
     8  H    0.175604
     9  H    0.125673
    10  O   -0.517918
    11  C    0.610541
    12  N   -0.587063
    13  H    0.286886
    14  H    0.300528
    15  O   -0.569510
    16  N   -0.530536
    17  H    0.273714
    18  C   -0.019573
    19  H    0.167455
    20  C    0.626791
    21  C   -0.260416
    22  H    0.086800
    23  H    0.136716
    24  O   -0.603739
    25  C    0.123066
    26  C   -0.091064
    27  H    0.097671
    28  C   -0.127843
    29  H    0.062102
    30  C   -0.078254
    31  H    0.107186
    32  C   -0.100243
    33  H    0.098187
    34  C   -0.089904
    35  H    0.105255
    36  N   -0.521968
    37  H    0.327374
    38  C   -0.037680
    39  H    0.140159
    40  C    0.623495
    41  C   -0.277765
    42  H    0.157178
    43  H    0.132253
    44  O   -0.509203
    45  C    0.617302
    46  N   -0.585234
    47  H    0.293432
    48  H    0.292905
    49  O   -0.539537
    50  N   -0.537621
    51  H    0.285147
    52  C   -0.013004
    53  H    0.170292
    54  C    0.599691
    55  C   -0.200549
    56  H    0.100570
    57  H    0.132436
    58  O   -0.464467
    59  C   -0.199881
    60  H    0.135140
    61  H    0.125872
    62  C   -0.096445
    63  H    0.126025
    64  H    0.151387
    65  N   -0.536383
    66  H    0.331709
    67  N   -0.609649
    68  H    0.306378
    69  H    0.311087
    70  N   -0.637233
    71  H    0.289057
    72  H    0.346867
    73  C    0.756092
    74  O   -0.468319
    75  H    0.334797
 Sum of Mulliken charges =   1.00000
 Mulliken charges with hydrogens summed into heavy atoms:
               1
     1  N   -0.071768
     4  C    0.079093
     6  C    0.579869
     7  C    0.054261
    10  O   -0.517918
    11  C    0.610541
    12  N    0.000351
    15  O   -0.569510
    16  N   -0.256822
    18  C    0.147882
    20  C    0.626791
    21  C   -0.036900
    24  O   -0.603739
    25  C    0.123066
    26  C    0.006606
    28  C   -0.065741
    30  C    0.028932
    32  C   -0.002056
    34  C    0.015352
    36  N   -0.194594
    38  C    0.102480
    40  C    0.623495
    41  C    0.011667
    44  O   -0.509203
    45  C    0.617302
    46  N    0.001103
    49  O   -0.539537
    50  N   -0.252474
    52  C    0.157288
    54  C    0.599691
    55  C    0.032457
    58  O   -0.464467
    59  C    0.061131
    62  C    0.180967
    65  N   -0.204674
    67  N    0.007817
    70  N   -0.001308
    73  C    0.756092
    74  O   -0.133522
 Electronic spatial extent (au):  <R**2>=          22047.0838
 Charge=              1.0000 electrons
 Dipole moment (field-independent basis, Debye):
    X=              8.0449    Y=             12.6596    Z=              2.5529  Tot=             15.2152
 Quadrupole moment (field-independent basis, Debye-Ang):
   XX=           -183.3479   YY=           -131.0582   ZZ=           -176.9865
   XY=             10.3940   XZ=             -0.4343   YZ=             15.2221
 Traceless Quadrupole moment (field-independent basis, Debye-Ang):
   XX=            -19.5503   YY=             32.7393   ZZ=            -13.1890
   XY=             10.3940   XZ=             -0.4343   YZ=             15.2221
 Octapole moment (field-independent basis, Debye-Ang**2):
  XXX=             86.5515  YYY=           -442.6478  ZZZ=            321.4164  XYY=            218.9308
  XXY=           -259.6584  XXZ=            -15.9496  XZZ=             54.6204  YZZ=           -182.9827
  YYZ=             21.7308  XYZ=             33.5068
 Hexadecapole moment (field-independent basis, Debye-Ang**3):
 XXXX=         -11250.4466 YYYY=          -6416.4985 ZZZZ=          -4312.2797 XXXY=            243.7380
 XXXZ=           1626.3180 YYYX=           1316.6700 YYYZ=           -413.8892 ZZZX=           1431.8687
 ZZZY=           -321.7650 XXYY=          -3346.2208 XXZZ=          -3089.0456 YYZZ=          -1952.0017
 XXYZ=           -227.7020 YYXZ=            589.7783 ZZXY=            276.1684
 N-N= 4.921535537004D+03 E-N=-1.428587279957D+04  KE= 1.900077445112D+03
 Unable to Open any file for archive entry.
 1\1\GINC-LAC-317\SP\RB3LYP\6-31G(d,p)\C23H36N9O7(1+)\KENGMITH\08-Sep-2
 022\0\\# B3LYP/6-31G** empiricaldispersion=gd3bj guess=read geom=check
  nosymm integral(ultrafinegrid)\\Candidate Structure: Conf:684 Charge 
 calc in gas phase\\1,1\N,0,-4.8076459309,2.4170089702,2.7032591977\H,0
 ,-5.2712587252,2.4972556707,1.799704609\H,0,-5.0457808708,1.479965005,
 3.0297877032\C,0,-3.3719455977,2.448829748,2.4788054913\H,0,-3.1330706
 165,3.3098354141,1.8481588277\C,0,-2.8656114124,1.1685222435,1.7865762
 018\C,0,-2.6476116999,2.6410380375,3.8235142565\H,0,-3.1100548907,3.49
 79004885,4.3266430913\H,0,-2.8074510382,1.7661635945,4.4629403366\O,0,
 -3.471895581,0.1090080199,1.8766442837\C,0,-1.1678028677,2.9303152884,
 3.6690107697\N,0,-0.3625043604,2.4835022708,4.6498019769\H,0,0.6292193
 567,2.6648325512,4.6064873011\H,0,-0.7212150886,1.9560805396,5.4302730
 726\O,0,-0.7317322369,3.573219046,2.6980386244\N,0,-1.6970790088,1.307
 1575751,1.0930693175\H,0,-1.2581391171,2.2167613788,1.0826965368\C,0,-
 1.2488527552,0.29144522,0.1752752596\H,0,-1.7133967832,-0.642454104,0.
 5003580498\C,0,0.2695682297,0.1703986561,0.2256238241\C,0,-1.706869694
 8,0.585556909,-1.2902690871\H,0,-1.1039166765,1.4102077054,-1.68534068
 05\H,0,-1.4931371196,-0.2945749648,-1.9052315295\O,0,0.9965929159,1.13
 59255478,0.55561936\C,0,-3.1680992743,0.9512061318,-1.3371079483\C,0,-
 4.1526790281,-0.0412307508,-1.3724446493\H,0,-3.8590838432,-1.08475338
 75,-1.4414479348\C,0,-3.5634185181,2.2895540299,-1.2335100335\H,0,-2.8
 07590976,3.0710732027,-1.2044381979\C,0,-5.5023715735,0.2955275892,-1.
 2975382801\H,0,-6.2547108539,-0.4859066438,-1.3225039047\C,0,-4.913619
 5868,2.6330959418,-1.1566333553\H,0,-5.204840568,3.6766588936,-1.08496
 30484\C,0,-5.8869793155,1.63285063,-1.1842198392\H,0,-6.9387680258,1.8
 944552426,-1.127977407\N,0,0.7486135315,-1.0124495,-0.1612716444\H,0,0
 .1259558999,-1.7492742871,-0.5184984535\C,0,2.1667483052,-1.3627830699
 ,-0.2591315162\H,0,2.6700530992,-1.007752007,0.6463707758\C,0,2.831468
 8084,-0.7000735182,-1.486935037\C,0,2.3021312521,-2.8886521783,-0.3607
 610552\H,0,1.9664833754,-3.3353963402,0.580522656\H,0,3.3545885005,-3.
 1419033531,-0.496546782\O,0,3.0395844781,-1.3173716778,-2.5226860842\C
 ,0,1.4276120411,-3.4826513345,-1.4641278803\N,0,2.0279221748,-4.330655
 9904,-2.3246969061\H,0,1.466927558,-4.6705565854,-3.0937604544\H,0,3.0
 249849161,-4.2802934551,-2.4652163262\O,0,0.2129523494,-3.2531171367,-
 1.4975164065\N,0,3.1606749954,0.6053120978,-1.2916766199\H,0,2.7986353
 922,1.0471666662,-0.451293711\C,0,3.6994284214,1.4425328996,-2.3549105
 777\H,0,3.5939811679,0.8706780452,-3.2821152848\C,0,5.1918303671,1.677
 9708752,-2.1011845315\C,0,2.9659383313,2.7857480403,-2.4138341333\H,0,
 3.199894407,3.304123453,-1.4775406422\H,0,3.4062809044,3.3918208044,-3
 .2108970042\O,0,5.6733556254,2.7424898924,-1.7795216722\C,0,1.44940701
 9,2.6482266528,-2.594340641\H,0,1.1765529329,2.6655000417,-3.654084065
 9\H,0,1.1192727978,1.6802716795,-2.2077562248\C,0,0.653830501,3.742088
 55,-1.8728390557\H,0,0.8715692296,4.7338992167,-2.275295621\H,0,-0.419
 0379395,3.5821643804,-2.0210845499\N,0,0.9091593322,3.747683043,-0.428
 4498272\H,0,0.7608305985,2.8562018881,0.0674483816\N,0,2.1794124089,5.
 7075353491,-0.3800947141\H,0,2.5311855745,6.4950983836,0.1402470099\H,
 0,2.5281427598,5.5828333801,-1.3167237116\N,0,1.5139904667,4.675018232
 ,1.5891219134\H,0,2.0910326294,5.3191577735,2.1066907732\H,0,0.7522269
 632,4.1833634344,2.0880370229\C,0,1.5356225903,4.7062814059,0.25440703
 56\O,0,5.9021321578,0.548018115,-2.2509049419\H,0,6.8298278695,0.76451
 82026,-2.0533669082\\Version=ES64L-G16RevC.01\HF=-1917.6518313\RMSD=8.
 054e-10\Dipole=3.0475985,2.709589,1.3848843\Quadrupole=-14.535202,24.3
 408851,-9.8056831,7.727713,-0.3228865,11.3172598\PG=C01 [X(C23H36N9O7)
 ]\\@
 The archive entry for this job was punched.


 ALTHOUGH J.J. COULD DIAGNOSE THE FAULTS OF AN
 APPARATUS WITH UNCANNY ACCURACY, IT WAS JUST AS
 WELL NOT TO LET HIM HANDLE IT.
   -- GEORGE THOMPSON, ABOUT HIS FATHER
 Job cpu time:       0 days  0 hours  7 minutes 13.1 seconds.
 Elapsed time:       0 days  0 hours  1 minutes 53.4 seconds.
 File lengths (MBytes):  RWF=    544 Int=      0 D2E=      0 Chk=     80 Scr=     32
 Normal termination of Gaussian 16 at Thu Sep  8 16:01:44 2022.
