 Entering Gaussian System, Link 0=/opt/software/Gaussian/g16-AVX2-C.01/g16/g16
 Input=charge-conf-549.com
 Output=charge-conf-549.log
 Initial command:
 /opt/software/Gaussian/g16-AVX2-C.01/g16/l1.exe "/mnt/gs18/scratch/users/kengmith/Gau-23196.inp" -scrdir="/mnt/gs18/scratch/users/kengmith/"
 Entering Link 1 = /opt/software/Gaussian/g16-AVX2-C.01/g16/l1.exe PID=     23206.
  
 Copyright (c) 1988-2019, Gaussian, Inc.  All Rights Reserved.
  
 This is part of the Gaussian(R) 16 program.  It is based on
 the Gaussian(R) 09 system (copyright 2009, Gaussian, Inc.),
 the Gaussian(R) 03 system (copyright 2003, Gaussian, Inc.),
 the Gaussian(R) 98 system (copyright 1998, Gaussian, Inc.),
 the Gaussian(R) 94 system (copyright 1995, Gaussian, Inc.),
 the Gaussian 92(TM) system (copyright 1992, Gaussian, Inc.),
 the Gaussian 90(TM) system (copyright 1990, Gaussian, Inc.),
 the Gaussian 88(TM) system (copyright 1988, Gaussian, Inc.),
 the Gaussian 86(TM) system (copyright 1986, Carnegie Mellon
 University), and the Gaussian 82(TM) system (copyright 1983,
 Carnegie Mellon University). Gaussian is a federally registered
 trademark of Gaussian, Inc.
  
 This software contains proprietary and confidential information,
 including trade secrets, belonging to Gaussian, Inc.
  
 This software is provided under written license and may be
 used, copied, transmitted, or stored only in accord with that
 written license.
  
 The following legend is applicable only to US Government
 contracts under FAR:
  
                    RESTRICTED RIGHTS LEGEND
  
 Use, reproduction and disclosure by the US Government is
 subject to restrictions as set forth in subparagraphs (a)
 and (c) of the Commercial Computer Software - Restricted
 Rights clause in FAR 52.227-19.
  
 Gaussian, Inc.
 340 Quinnipiac St., Bldg. 40, Wallingford CT 06492
  
  
 ---------------------------------------------------------------
 Warning -- This program may not be used in any manner that
 competes with the business of Gaussian, Inc. or will provide
 assistance to any competitor of Gaussian, Inc.  The licensee
 of this program is prohibited from giving any competitor of
 Gaussian, Inc. access to this program.  By using this program,
 the user acknowledges that Gaussian, Inc. is engaged in the
 business of creating and licensing software in the field of
 computational chemistry and represents and warrants to the
 licensee that it is not a competitor of Gaussian, Inc. and that
 it will not use this program in any manner prohibited above.
 ---------------------------------------------------------------
  

 Cite this work as:
 Gaussian 16, Revision C.01,
 M. J. Frisch, G. W. Trucks, H. B. Schlegel, G. E. Scuseria, 
 M. A. Robb, J. R. Cheeseman, G. Scalmani, V. Barone, 
 G. A. Petersson, H. Nakatsuji, X. Li, M. Caricato, A. V. Marenich, 
 J. Bloino, B. G. Janesko, R. Gomperts, B. Mennucci, H. P. Hratchian, 
 J. V. Ortiz, A. F. Izmaylov, J. L. Sonnenberg, D. Williams-Young, 
 F. Ding, F. Lipparini, F. Egidi, J. Goings, B. Peng, A. Petrone, 
 T. Henderson, D. Ranasinghe, V. G. Zakrzewski, J. Gao, N. Rega, 
 G. Zheng, W. Liang, M. Hada, M. Ehara, K. Toyota, R. Fukuda, 
 J. Hasegawa, M. Ishida, T. Nakajima, Y. Honda, O. Kitao, H. Nakai, 
 T. Vreven, K. Throssell, J. A. Montgomery, Jr., J. E. Peralta, 
 F. Ogliaro, M. J. Bearpark, J. J. Heyd, E. N. Brothers, K. N. Kudin, 
 V. N. Staroverov, T. A. Keith, R. Kobayashi, J. Normand, 
 K. Raghavachari, A. P. Rendell, J. C. Burant, S. S. Iyengar, 
 J. Tomasi, M. Cossi, J. M. Millam, M. Klene, C. Adamo, R. Cammi, 
 J. W. Ochterski, R. L. Martin, K. Morokuma, O. Farkas, 
 J. B. Foresman, and D. J. Fox, Gaussian, Inc., Wallingford CT, 2019.
 
 ******************************************
 Gaussian 16:  ES64L-G16RevC.01  3-Jul-2019
                23-Jun-2022 
 ******************************************
 %mem=8gb
 %nproc=4
 Will use up to    4 processors via shared memory.
 %chk=conf-549.chk
 ----------------------------------------------------------------------
 # B3LYP/6-31G* empiricaldispersion=gd3bj guess=read geom=check nosymm 
 integral(ultrafinegrid)
 ----------------------------------------------------------------------
 1/29=2,38=1,172=1/1;
 2/12=2,15=1,40=1/2;
 3/5=1,6=6,7=1,11=2,14=-4,25=1,30=1,74=-5,75=-5,116=-2,124=41/1,2,3;
 4/5=1/1;
 5/5=2,38=6/2;
 6/7=2,8=2,9=2,10=2,28=1/1;
 99/5=1,9=1/99;
 ------------------------------------------------------
 Candidate Structure: Conf:549 Charge calc in gas phase
 ------------------------------------------------------
 Structure from the checkpoint file:  "conf-549.chk"
 Charge =  1 Multiplicity = 1
 Redundant internal coordinates found in file.  (old form).
 N,0,-0.0412251966,-4.0637272665,2.9752457933
 H,0,0.6639311134,-4.1070497636,2.2415328017
 H,0,0.4557956021,-3.8609258902,3.8398198285
 C,0,-0.9912749109,-3.0095759535,2.6743709176
 H,0,-1.5805220087,-2.8076375753,3.576931006
 C,0,-0.3461992161,-1.7070135039,2.1989099063
 C,0,-1.9729890408,-3.454145321,1.5607166308
 H,0,-2.6535730586,-2.624591248,1.3355470891
 H,0,-2.5742446844,-4.2771362232,1.9555725927
 O,0,0.6917992403,-1.6862515937,1.5285005782
 C,0,-1.2558866669,-3.9120786136,0.2695573368
 H,0,-0.9438114788,-4.953445905,0.3595538134
 H,0,-0.3713734551,-3.2938850902,0.0866915741
 C,0,-2.1658785119,-3.7917450676,-0.9281498637
 O,0,-2.7552892892,-4.6833501299,-1.4845330662
 O,0,-2.2818997733,-2.4830553085,-1.3235302098
 N,0,-0.9997809888,-0.5366148017,2.4539692941
 H,0,-1.8866846892,-0.5376940251,2.9396061894
 C,0,-0.6627438378,0.6145235071,1.6212156081
 H,0,-1.0413784906,1.5115804002,2.1245476617
 C,0,0.8558622652,0.7447018377,1.6588090436
 C,0,-1.3298429174,0.4379000917,0.2343072832
 H,0,-1.1193882482,-0.5771998208,-0.1076744732
 H,0,-2.4088973601,0.4703196025,0.4308660917
 O,0,1.368397555,0.6654974812,2.853117633
 C,0,-0.9790692141,1.407847814,-0.8721838707
 C,0,-1.0366939114,2.8032405171,-0.7100499234
 H,0,-1.3213895208,3.2292441409,0.2490436989
 C,0,-0.6136675908,0.9010034323,-2.1271676601
 H,0,-0.5781469821,-0.1751917733,-2.2761091738
 C,0,-0.7398950315,3.662444399,-1.7595636903
 H,0,-0.7628672952,4.7378259881,-1.6301052406
 C,0,-0.3248694828,1.7520195227,-3.1931631158
 H,0,-0.0544776226,1.3395363229,-4.1621809507
 O,0,-0.1263449526,4.0235349373,-4.0082872469
 H,0,0.0385885179,3.5511649757,-4.8401906427
 C,0,-0.3952324865,3.1350309029,-3.011314413
 N,0,1.5466783967,1.0790569232,0.5927802421
 H,0,0.9725691677,1.2175644161,-0.2419660447
 C,0,2.9767037308,0.856295823,0.2799649494
 H,0,3.1513680698,-0.2246003721,0.3685971274
 C,0,4.0159103993,1.5239964587,1.1782229687
 C,0,3.2197910514,1.31274052,-1.1727624433
 H,0,4.2288118738,0.988895898,-1.4421285816
 H,0,2.5223321706,0.7701711864,-1.8231073779
 O,0,5.1884157579,1.5315147705,0.9296087153
 C,0,3.0776456577,2.8278333389,-1.3535029894
 H,0,3.8000920567,3.334535552,-0.6998276903
 H,0,2.0865384106,3.1762622209,-1.0447359528
 C,0,3.3303877045,3.2804376399,-2.7939083891
 H,0,4.2759123192,2.8584129627,-3.1593600898
 H,0,2.5391071313,2.8853499589,-3.4462907979
 C,0,3.394367524,4.8063009163,-2.9228555807
 H,0,4.2186958002,5.1747496185,-2.2996616724
 H,0,3.6515734032,5.0627927048,-3.9646496403
 N,0,2.1553868903,5.4320033743,-2.4455470642
 H,0,1.4224299994,5.2961668939,-3.139866086
 H,0,2.2916762787,6.4377255159,-2.3647264723
 O,0,3.4992186015,2.0849266981,2.3170536145
 H,0,2.2750991145,1.0619656863,2.881310581
 H,0,4.245424109,2.4593493988,2.828529842
 H,0,-2.914373059,-2.4848881324,-2.0672279691
 Recover connectivity data from disk.
                           ----------------------------
                           !    Current Parameters    !
                           ! (Angstroms and Degrees)  !
 --------------------------                            --------------------------
 ! Name  Definition              Value                                          !
 --------------------------------------------------------------------------------
 ! R1    R(1,2)                  1.0186                                         !
 ! R2    R(1,3)                  1.0177                                         !
 ! R3    R(1,4)                  1.4506                                         !
 ! R4    R(4,5)                  1.0966                                         !
 ! R5    R(4,6)                  1.5293                                         !
 ! R6    R(4,7)                  1.5497                                         !
 ! R7    R(6,10)                 1.2358                                         !
 ! R8    R(6,17)                 1.3646                                         !
 ! R9    R(7,8)                  1.0964                                         !
 ! R10   R(7,9)                  1.093                                          !
 ! R11   R(7,11)                 1.5463                                         !
 ! R12   R(11,12)                1.0908                                         !
 ! R13   R(11,13)                1.0945                                         !
 ! R14   R(11,14)                1.509                                          !
 ! R15   R(14,15)                1.205                                          !
 ! R16   R(14,16)                1.372                                          !
 ! R17   R(16,62)                0.9763                                         !
 ! R18   R(17,18)                1.0112                                         !
 ! R19   R(17,19)                1.4602                                         !
 ! R20   R(19,20)                1.0961                                         !
 ! R21   R(19,21)                1.5246                                         !
 ! R22   R(19,22)                1.5491                                         !
 ! R23   R(21,25)                1.3021                                         !
 ! R24   R(21,38)                1.3136                                         !
 ! R25   R(22,23)                1.0916                                         !
 ! R26   R(22,24)                1.0973                                         !
 ! R27   R(22,26)                1.5127                                         !
 ! R28   R(26,27)                1.406                                          !
 ! R29   R(26,29)                1.4019                                         !
 ! R30   R(27,28)                1.0874                                         !
 ! R31   R(27,31)                1.3885                                         !
 ! R32   R(29,30)                1.087                                          !
 ! R33   R(29,33)                1.3943                                         !
 ! R34   R(31,32)                1.0834                                         !
 ! R35   R(31,37)                1.4014                                         !
 ! R36   R(33,34)                1.0873                                         !
 ! R37   R(33,37)                1.3967                                         !
 ! R38   R(35,36)                0.9708                                         !
 ! R39   R(35,37)                1.3622                                         !
 ! R40   R(38,39)                1.0225                                         !
 ! R41   R(38,40)                1.4807                                         !
 ! R42   R(40,41)                1.0985                                         !
 ! R43   R(40,42)                1.5273                                         !
 ! R44   R(40,43)                1.542                                          !
 ! R45   R(42,46)                1.1986                                         !
 ! R46   R(42,59)                1.3706                                         !
 ! R47   R(43,44)                1.0934                                         !
 ! R48   R(43,45)                1.0972                                         !
 ! R49   R(43,47)                1.5324                                         !
 ! R50   R(47,48)                1.0982                                         !
 ! R51   R(47,49)                1.095                                          !
 ! R52   R(47,50)                1.5308                                         !
 ! R53   R(50,51)                1.098                                          !
 ! R54   R(50,52)                1.099                                          !
 ! R55   R(50,53)                1.5326                                         !
 ! R56   R(53,54)                1.0971                                         !
 ! R57   R(53,55)                1.1033                                         !
 ! R58   R(53,56)                1.4678                                         !
 ! R59   R(56,57)                1.0187                                         !
 ! R60   R(56,58)                1.0181                                         !
 ! R61   R(59,60)                1.6921                                         !
 ! R62   R(59,61)                0.9791                                         !
 ! A1    A(2,1,3)              106.3998                                         !
 ! A2    A(2,1,4)              109.567                                          !
 ! A3    A(3,1,4)              110.5638                                         !
 ! A4    A(1,4,5)              108.3616                                         !
 ! A5    A(1,4,6)              114.0268                                         !
 ! A6    A(1,4,7)              110.8216                                         !
 ! A7    A(5,4,6)              109.0068                                         !
 ! A8    A(5,4,7)              107.691                                          !
 ! A9    A(6,4,7)              106.7456                                         !
 ! A10   A(4,6,10)             122.4956                                         !
 ! A11   A(4,6,17)             118.0592                                         !
 ! A12   A(10,6,17)            119.2928                                         !
 ! A13   A(4,7,8)              108.8908                                         !
 ! A14   A(4,7,9)              107.7498                                         !
 ! A15   A(4,7,11)             113.0307                                         !
 ! A16   A(8,7,9)              107.6032                                         !
 ! A17   A(8,7,11)             109.9051                                         !
 ! A18   A(9,7,11)             109.4972                                         !
 ! A19   A(7,11,12)            110.2735                                         !
 ! A20   A(7,11,13)            110.3048                                         !
 ! A21   A(7,11,14)            111.0676                                         !
 ! A22   A(12,11,13)           108.7707                                         !
 ! A23   A(12,11,14)           108.3085                                         !
 ! A24   A(13,11,14)           108.0406                                         !
 ! A25   A(11,14,15)           127.0468                                         !
 ! A26   A(11,14,16)           110.8415                                         !
 ! A27   A(15,14,16)           122.0976                                         !
 ! A28   A(14,16,62)           105.8139                                         !
 ! A29   A(6,17,18)            120.5948                                         !
 ! A30   A(6,17,19)            117.3234                                         !
 ! A31   A(18,17,19)           118.5024                                         !
 ! A32   A(17,19,20)           107.6722                                         !
 ! A33   A(17,19,21)           106.4484                                         !
 ! A34   A(17,19,22)           108.7419                                         !
 ! A35   A(20,19,21)           105.2406                                         !
 ! A36   A(20,19,22)           110.8351                                         !
 ! A37   A(21,19,22)           117.435                                          !
 ! A38   A(19,21,25)           114.1736                                         !
 ! A39   A(19,21,38)           121.7055                                         !
 ! A40   A(25,21,38)           123.564                                          !
 ! A41   A(19,22,23)           107.6664                                         !
 ! A42   A(19,22,24)           105.0543                                         !
 ! A43   A(19,22,26)           118.8112                                         !
 ! A44   A(23,22,24)           105.8533                                         !
 ! A45   A(23,22,26)           108.8081                                         !
 ! A46   A(24,22,26)           109.8844                                         !
 ! A47   A(22,26,27)           122.8566                                         !
 ! A48   A(22,26,29)           118.9098                                         !
 ! A49   A(27,26,29)           118.2117                                         !
 ! A50   A(26,27,28)           120.0841                                         !
 ! A51   A(26,27,31)           121.2143                                         !
 ! A52   A(28,27,31)           118.7012                                         !
 ! A53   A(26,29,30)           119.2816                                         !
 ! A54   A(26,29,33)           121.1807                                         !
 ! A55   A(30,29,33)           119.522                                          !
 ! A56   A(27,31,32)           121.2914                                         !
 ! A57   A(27,31,37)           119.6606                                         !
 ! A58   A(32,31,37)           119.0469                                         !
 ! A59   A(29,33,34)           120.0884                                         !
 ! A60   A(29,33,37)           119.6309                                         !
 ! A61   A(34,33,37)           120.2788                                         !
 ! A62   A(36,35,37)           110.08                                           !
 ! A63   A(31,37,33)           120.09                                           !
 ! A64   A(31,37,35)           117.1807                                         !
 ! A65   A(33,37,35)           122.7257                                         !
 ! A66   A(21,38,39)           113.6855                                         !
 ! A67   A(21,38,40)           129.8719                                         !
 ! A68   A(39,38,40)           112.9643                                         !
 ! A69   A(38,40,41)           106.5319                                         !
 ! A70   A(38,40,42)           117.8473                                         !
 ! A71   A(38,40,43)           107.8631                                         !
 ! A72   A(41,40,42)           105.934                                          !
 ! A73   A(41,40,43)           110.0114                                         !
 ! A74   A(42,40,43)           108.5062                                         !
 ! A75   A(40,42,46)           123.1177                                         !
 ! A76   A(40,42,59)           114.2735                                         !
 ! A77   A(46,42,59)           122.5853                                         !
 ! A78   A(40,43,44)           106.8514                                         !
 ! A79   A(40,43,45)           108.1697                                         !
 ! A80   A(40,43,47)           112.9011                                         !
 ! A81   A(44,43,45)           107.1056                                         !
 ! A82   A(44,43,47)           110.4486                                         !
 ! A83   A(45,43,47)           111.1029                                         !
 ! A84   A(43,47,48)           108.963                                          !
 ! A85   A(43,47,49)           111.4258                                         !
 ! A86   A(43,47,50)           112.8282                                         !
 ! A87   A(48,47,49)           106.3069                                         !
 ! A88   A(48,47,50)           108.3635                                         !
 ! A89   A(49,47,50)           108.7038                                         !
 ! A90   A(47,50,51)           109.9802                                         !
 ! A91   A(47,50,52)           109.4742                                         !
 ! A92   A(47,50,53)           112.3587                                         !
 ! A93   A(51,50,52)           106.5143                                         !
 ! A94   A(51,50,53)           108.5842                                         !
 ! A95   A(52,50,53)           109.7562                                         !
 ! A96   A(50,53,54)           108.5376                                         !
 ! A97   A(50,53,55)           108.7007                                         !
 ! A98   A(50,53,56)           111.2113                                         !
 ! A99   A(54,53,55)           106.4472                                         !
 ! A100  A(54,53,56)           107.8398                                         !
 ! A101  A(55,53,56)           113.8749                                         !
 ! A102  A(53,56,57)           109.1995                                         !
 ! A103  A(53,56,58)           109.5065                                         !
 ! A104  A(57,56,58)           106.3877                                         !
 ! A105  A(42,59,60)           107.6002                                         !
 ! A106  A(42,59,61)           107.6532                                         !
 ! A107  A(60,59,61)           127.4692                                         !
 ! D1    D(2,1,4,5)           -165.862                                          !
 ! D2    D(2,1,4,6)            -44.2834                                         !
 ! D3    D(2,1,4,7)             76.1827                                         !
 ! D4    D(3,1,4,5)            -48.9014                                         !
 ! D5    D(3,1,4,6)             72.6771                                         !
 ! D6    D(3,1,4,7)           -166.8567                                         !
 ! D7    D(1,4,6,10)            33.2694                                         !
 ! D8    D(1,4,6,17)          -151.2537                                         !
 ! D9    D(5,4,6,10)           154.4905                                         !
 ! D10   D(5,4,6,17)           -30.0326                                         !
 ! D11   D(7,4,6,10)           -89.4514                                         !
 ! D12   D(7,4,6,17)            86.0255                                         !
 ! D13   D(1,4,7,8)           -178.1393                                         !
 ! D14   D(1,4,7,9)             65.4276                                         !
 ! D15   D(1,4,7,11)           -55.6948                                         !
 ! D16   D(5,4,7,8)             63.4977                                         !
 ! D17   D(5,4,7,9)            -52.9354                                         !
 ! D18   D(5,4,7,11)          -174.0579                                         !
 ! D19   D(6,4,7,8)            -53.4358                                         !
 ! D20   D(6,4,7,9)           -169.8689                                         !
 ! D21   D(6,4,7,11)            69.0086                                         !
 ! D22   D(4,6,17,18)           -0.2955                                         !
 ! D23   D(4,6,17,19)         -158.6487                                         !
 ! D24   D(10,6,17,18)         175.3306                                         !
 ! D25   D(10,6,17,19)          16.9773                                         !
 ! D26   D(4,7,11,12)           83.2                                            !
 ! D27   D(4,7,11,13)          -36.9613                                         !
 ! D28   D(4,7,11,14)         -156.7232                                         !
 ! D29   D(8,7,11,12)         -154.9236                                         !
 ! D30   D(8,7,11,13)           84.9151                                         !
 ! D31   D(8,7,11,14)          -34.8468                                         !
 ! D32   D(9,7,11,12)          -36.9278                                         !
 ! D33   D(9,7,11,13)         -157.0891                                         !
 ! D34   D(9,7,11,14)           83.1491                                         !
 ! D35   D(7,11,14,15)        -102.5057                                         !
 ! D36   D(7,11,14,16)          76.1366                                         !
 ! D37   D(12,11,14,15)         18.7315                                         !
 ! D38   D(12,11,14,16)       -162.6262                                         !
 ! D39   D(13,11,14,15)        136.3921                                         !
 ! D40   D(13,11,14,16)        -44.9656                                         !
 ! D41   D(11,14,16,62)       -177.3013                                         !
 ! D42   D(15,14,16,62)          1.4195                                         !
 ! D43   D(6,17,19,20)        -164.0463                                         !
 ! D44   D(6,17,19,21)         -51.6056                                         !
 ! D45   D(6,17,19,22)          75.8014                                         !
 ! D46   D(18,17,19,20)         37.1352                                         !
 ! D47   D(18,17,19,21)        149.576                                          !
 ! D48   D(18,17,19,22)        -83.017                                          !
 ! D49   D(17,19,21,25)        -47.0513                                         !
 ! D50   D(17,19,21,38)        141.22                                           !
 ! D51   D(20,19,21,25)         67.0593                                         !
 ! D52   D(20,19,21,38)       -104.6693                                         !
 ! D53   D(22,19,21,25)       -169.1062                                         !
 ! D54   D(22,19,21,38)         19.1651                                         !
 ! D55   D(17,19,22,23)        -47.6872                                         !
 ! D56   D(17,19,22,24)         64.8044                                         !
 ! D57   D(17,19,22,26)       -171.8352                                         !
 ! D58   D(20,19,22,23)       -165.8594                                         !
 ! D59   D(20,19,22,24)        -53.3678                                         !
 ! D60   D(20,19,22,26)         69.9926                                         !
 ! D61   D(21,19,22,23)         73.1788                                         !
 ! D62   D(21,19,22,24)       -174.3295                                         !
 ! D63   D(21,19,22,26)        -50.9692                                         !
 ! D64   D(19,21,38,39)         -1.2235                                         !
 ! D65   D(19,21,38,40)       -158.3757                                         !
 ! D66   D(25,21,38,39)       -172.1612                                         !
 ! D67   D(25,21,38,40)         30.6865                                         !
 ! D68   D(19,22,26,27)        -51.2991                                         !
 ! D69   D(19,22,26,29)        130.433                                          !
 ! D70   D(23,22,26,27)       -174.8866                                         !
 ! D71   D(23,22,26,29)          6.8455                                         !
 ! D72   D(24,22,26,27)         69.6417                                         !
 ! D73   D(24,22,26,29)       -108.6262                                         !
 ! D74   D(22,26,27,28)          1.4197                                         !
 ! D75   D(22,26,27,31)       -178.3384                                         !
 ! D76   D(29,26,27,28)        179.6991                                         !
 ! D77   D(29,26,27,31)         -0.059                                          !
 ! D78   D(22,26,29,30)         -0.7334                                         !
 ! D79   D(22,26,29,33)        177.8163                                         !
 ! D80   D(27,26,29,30)       -179.0822                                         !
 ! D81   D(27,26,29,33)         -0.5326                                         !
 ! D82   D(26,27,31,32)       -178.6479                                         !
 ! D83   D(26,27,31,37)          0.9622                                         !
 ! D84   D(28,27,31,32)          1.5907                                         !
 ! D85   D(28,27,31,37)       -178.7992                                         !
 ! D86   D(26,29,33,34)       -179.2911                                         !
 ! D87   D(26,29,33,37)          0.2103                                         !
 ! D88   D(30,29,33,34)         -0.7448                                         !
 ! D89   D(30,29,33,37)        178.7565                                         !
 ! D90   D(27,31,37,33)         -1.2857                                         !
 ! D91   D(27,31,37,35)        179.3856                                         !
 ! D92   D(32,31,37,33)        178.3332                                         !
 ! D93   D(32,31,37,35)         -0.9955                                         !
 ! D94   D(29,33,37,31)          0.7066                                         !
 ! D95   D(29,33,37,35)        179.9968                                         !
 ! D96   D(34,33,37,31)       -179.793                                          !
 ! D97   D(34,33,37,35)         -0.5028                                         !
 ! D98   D(36,35,37,31)       -176.0783                                         !
 ! D99   D(36,35,37,33)          4.6121                                         !
 ! D100  D(21,38,40,41)         55.6884                                         !
 ! D101  D(21,38,40,42)        -63.0415                                         !
 ! D102  D(21,38,40,43)        173.7683                                         !
 ! D103  D(39,38,40,41)       -101.5944                                         !
 ! D104  D(39,38,40,42)        139.6756                                         !
 ! D105  D(39,38,40,43)         16.4854                                         !
 ! D106  D(38,40,42,46)       -171.4985                                         !
 ! D107  D(38,40,42,59)         10.2278                                         !
 ! D108  D(41,40,42,46)         69.456                                          !
 ! D109  D(41,40,42,59)       -108.8176                                         !
 ! D110  D(43,40,42,46)        -48.6333                                         !
 ! D111  D(43,40,42,59)        133.0931                                         !
 ! D112  D(38,40,43,44)       -170.6889                                         !
 ! D113  D(38,40,43,45)        -55.673                                          !
 ! D114  D(38,40,43,47)         67.6945                                         !
 ! D115  D(41,40,43,44)        -54.869                                          !
 ! D116  D(41,40,43,45)         60.1469                                         !
 ! D117  D(41,40,43,47)       -176.4856                                         !
 ! D118  D(42,40,43,44)         60.5988                                         !
 ! D119  D(42,40,43,45)        175.6147                                         !
 ! D120  D(42,40,43,47)        -61.0179                                         !
 ! D121  D(40,42,59,60)         38.0015                                         !
 ! D122  D(40,42,59,61)        178.4185                                         !
 ! D123  D(46,42,59,60)       -140.2825                                         !
 ! D124  D(46,42,59,61)          0.1345                                         !
 ! D125  D(40,43,47,48)         59.1343                                         !
 ! D126  D(40,43,47,49)        -57.8516                                         !
 ! D127  D(40,43,47,50)        179.5368                                         !
 ! D128  D(44,43,47,48)        -60.4281                                         !
 ! D129  D(44,43,47,49)       -177.4141                                         !
 ! D130  D(44,43,47,50)         59.9744                                         !
 ! D131  D(45,43,47,48)       -179.1383                                         !
 ! D132  D(45,43,47,49)         63.8758                                         !
 ! D133  D(45,43,47,50)        -58.7358                                         !
 ! D134  D(43,47,50,51)        -50.3101                                         !
 ! D135  D(43,47,50,52)         66.3937                                         !
 ! D136  D(43,47,50,53)       -171.3895                                         !
 ! D137  D(48,47,50,51)         70.4351                                         !
 ! D138  D(48,47,50,52)       -172.8611                                         !
 ! D139  D(48,47,50,53)        -50.6443                                         !
 ! D140  D(49,47,50,51)       -174.4316                                         !
 ! D141  D(49,47,50,52)        -57.7278                                         !
 ! D142  D(49,47,50,53)         64.489                                          !
 ! D143  D(47,50,53,54)         60.4776                                         !
 ! D144  D(47,50,53,55)        175.8674                                         !
 ! D145  D(47,50,53,56)        -57.9953                                         !
 ! D146  D(51,50,53,54)        -61.3995                                         !
 ! D147  D(51,50,53,55)         53.9904                                         !
 ! D148  D(51,50,53,56)       -179.8724                                         !
 ! D149  D(52,50,53,54)       -177.4656                                         !
 ! D150  D(52,50,53,55)        -62.0757                                         !
 ! D151  D(52,50,53,56)         64.0615                                         !
 ! D152  D(50,53,56,57)        -75.2313                                         !
 ! D153  D(50,53,56,58)        168.6455                                         !
 ! D154  D(54,53,56,57)        165.8767                                         !
 ! D155  D(54,53,56,58)         49.7535                                         !
 ! D156  D(55,53,56,57)         47.9908                                         !
 ! D157  D(55,53,56,58)        -68.1324                                         !
 --------------------------------------------------------------------------------
 Symmetry turned off by external request.
 Stoichiometry    C20H31N4O7(1+)
 Framework group  C1[X(C20H31N4O7)]
 Deg. of freedom   180
 Full point group                 C1      NOp   1
                          Input orientation:                          
 ---------------------------------------------------------------------
 Center     Atomic      Atomic             Coordinates (Angstroms)
 Number     Number       Type             X           Y           Z
 ---------------------------------------------------------------------
      1          7           0       -0.041225   -4.063727    2.975246
      2          1           0        0.663931   -4.107050    2.241533
      3          1           0        0.455796   -3.860926    3.839820
      4          6           0       -0.991275   -3.009576    2.674371
      5          1           0       -1.580522   -2.807638    3.576931
      6          6           0       -0.346199   -1.707014    2.198910
      7          6           0       -1.972989   -3.454145    1.560717
      8          1           0       -2.653573   -2.624591    1.335547
      9          1           0       -2.574245   -4.277136    1.955573
     10          8           0        0.691799   -1.686252    1.528501
     11          6           0       -1.255887   -3.912079    0.269557
     12          1           0       -0.943811   -4.953446    0.359554
     13          1           0       -0.371373   -3.293885    0.086692
     14          6           0       -2.165879   -3.791745   -0.928150
     15          8           0       -2.755289   -4.683350   -1.484533
     16          8           0       -2.281900   -2.483055   -1.323530
     17          7           0       -0.999781   -0.536615    2.453969
     18          1           0       -1.886685   -0.537694    2.939606
     19          6           0       -0.662744    0.614524    1.621216
     20          1           0       -1.041378    1.511580    2.124548
     21          6           0        0.855862    0.744702    1.658809
     22          6           0       -1.329843    0.437900    0.234307
     23          1           0       -1.119388   -0.577200   -0.107674
     24          1           0       -2.408897    0.470320    0.430866
     25          8           0        1.368398    0.665497    2.853118
     26          6           0       -0.979069    1.407848   -0.872184
     27          6           0       -1.036694    2.803241   -0.710050
     28          1           0       -1.321390    3.229244    0.249044
     29          6           0       -0.613668    0.901003   -2.127168
     30          1           0       -0.578147   -0.175192   -2.276109
     31          6           0       -0.739895    3.662444   -1.759564
     32          1           0       -0.762867    4.737826   -1.630105
     33          6           0       -0.324869    1.752020   -3.193163
     34          1           0       -0.054478    1.339536   -4.162181
     35          8           0       -0.126345    4.023535   -4.008287
     36          1           0        0.038589    3.551165   -4.840191
     37          6           0       -0.395232    3.135031   -3.011314
     38          7           0        1.546678    1.079057    0.592780
     39          1           0        0.972569    1.217564   -0.241966
     40          6           0        2.976704    0.856296    0.279965
     41          1           0        3.151368   -0.224600    0.368597
     42          6           0        4.015910    1.523996    1.178223
     43          6           0        3.219791    1.312741   -1.172762
     44          1           0        4.228812    0.988896   -1.442129
     45          1           0        2.522332    0.770171   -1.823107
     46          8           0        5.188416    1.531515    0.929609
     47          6           0        3.077646    2.827833   -1.353503
     48          1           0        3.800092    3.334536   -0.699828
     49          1           0        2.086538    3.176262   -1.044736
     50          6           0        3.330388    3.280438   -2.793908
     51          1           0        4.275912    2.858413   -3.159360
     52          1           0        2.539107    2.885350   -3.446291
     53          6           0        3.394368    4.806301   -2.922856
     54          1           0        4.218696    5.174750   -2.299662
     55          1           0        3.651573    5.062793   -3.964650
     56          7           0        2.155387    5.432003   -2.445547
     57          1           0        1.422430    5.296167   -3.139866
     58          1           0        2.291676    6.437726   -2.364726
     59          8           0        3.499219    2.084927    2.317054
     60          1           0        2.275099    1.061966    2.881311
     61          1           0        4.245424    2.459349    2.828530
     62          1           0       -2.914373   -2.484888   -2.067228
 ---------------------------------------------------------------------
 Rotational constants (GHZ):           0.1960876           0.0942825           0.0743958
 Standard basis: 6-31G(d) (6D, 7F)
   527 basis functions,   992 primitive gaussians,   527 cartesian basis functions
   117 alpha electrons      117 beta electrons
       nuclear repulsion energy      3397.5079677541 Hartrees.
 NAtoms=   62 NActive=   62 NUniq=   62 SFac= 1.00D+00 NAtFMM=   60 NAOKFM=T Big=T
 Integral buffers will be    131072 words long.
 Raffenetti 2 integral format.
 Two-electron integral symmetry is turned off.
 Nuclear repulsion after empirical dispersion term =     3397.3709427600 Hartrees.
 One-electron integrals computed using PRISM.
 NBasis=   527 RedAO= T EigKep=  4.17D-04  NBF=   527
 NBsUse=   527 1.00D-06 EigRej= -1.00D+00 NBFU=   527
 Initial guess from the checkpoint file:  "conf-549.chk"
 B after Tr=     0.000000    0.000000    0.000000
         Rot=    1.000000    0.000000    0.000000    0.000000 Ang=   0.00 deg.
 Requested convergence on RMS density matrix=1.00D-08 within 128 cycles.
 Requested convergence on MAX density matrix=1.00D-06.
 Requested convergence on             energy=1.00D-06.
 No special actions if energy rises.
 SCF Done:  E(RB3LYP) =  -1526.30764716     A.U. after    1 cycles
            NFock=  1  Conv=0.66D-08     -V/T= 2.0092

 **********************************************************************

            Population analysis using the SCF Density.

 **********************************************************************

 Alpha  occ. eigenvalues --  -19.35761 -19.35237 -19.29366 -19.28633 -19.28574
 Alpha  occ. eigenvalues --  -19.25809 -19.22566 -14.53936 -14.50158 -14.41634
 Alpha  occ. eigenvalues --  -14.38641 -10.48790 -10.47041 -10.41538 -10.40728
 Alpha  occ. eigenvalues --  -10.39495 -10.39457 -10.36611 -10.33932 -10.32287
 Alpha  occ. eigenvalues --  -10.31450 -10.31437 -10.31098 -10.31071 -10.30596
 Alpha  occ. eigenvalues --  -10.30017 -10.29910 -10.29025 -10.28752 -10.28369
 Alpha  occ. eigenvalues --  -10.27247  -1.26779  -1.25246  -1.19005  -1.17584
 Alpha  occ. eigenvalues --   -1.17433  -1.16862  -1.11567  -1.10168  -1.06679
 Alpha  occ. eigenvalues --   -0.99722  -0.97591  -0.95830  -0.94964  -0.91480
 Alpha  occ. eigenvalues --   -0.89078  -0.87763  -0.86690  -0.86395  -0.81951
 Alpha  occ. eigenvalues --   -0.81502  -0.81215  -0.77534  -0.76543  -0.74314
 Alpha  occ. eigenvalues --   -0.74269  -0.73179  -0.71987  -0.71652  -0.70651
 Alpha  occ. eigenvalues --   -0.68749  -0.67499  -0.67318  -0.66150  -0.65286
 Alpha  occ. eigenvalues --   -0.63809  -0.63474  -0.62349  -0.60775  -0.60255
 Alpha  occ. eigenvalues --   -0.59530  -0.58886  -0.58026  -0.57826  -0.57436
 Alpha  occ. eigenvalues --   -0.57294  -0.56984  -0.56192  -0.55830  -0.55623
 Alpha  occ. eigenvalues --   -0.55244  -0.55015  -0.54305  -0.54052  -0.53779
 Alpha  occ. eigenvalues --   -0.53368  -0.53107  -0.52304  -0.51713  -0.51182
 Alpha  occ. eigenvalues --   -0.50875  -0.50788  -0.50380  -0.49085  -0.48391
 Alpha  occ. eigenvalues --   -0.48000  -0.47710  -0.47184  -0.46348  -0.45839
 Alpha  occ. eigenvalues --   -0.45769  -0.45698  -0.45180  -0.44969  -0.44606
 Alpha  occ. eigenvalues --   -0.43524  -0.42996  -0.41932  -0.41631  -0.40608
 Alpha  occ. eigenvalues --   -0.39806  -0.39247  -0.37020  -0.35939  -0.34103
 Alpha  occ. eigenvalues --   -0.33801  -0.31218
 Alpha virt. eigenvalues --   -0.17142  -0.13747  -0.12325  -0.11746  -0.11035
 Alpha virt. eigenvalues --   -0.07867  -0.06802  -0.05300  -0.04225  -0.03503
 Alpha virt. eigenvalues --   -0.02584  -0.02143  -0.01112  -0.00283   0.00049
 Alpha virt. eigenvalues --    0.00620   0.00728   0.01463   0.01869   0.02304
 Alpha virt. eigenvalues --    0.03110   0.03391   0.03638   0.04320   0.04766
 Alpha virt. eigenvalues --    0.05205   0.05349   0.06031   0.06234   0.06837
 Alpha virt. eigenvalues --    0.07321   0.07694   0.07816   0.08338   0.08720
 Alpha virt. eigenvalues --    0.08976   0.09480   0.09984   0.10582   0.10738
 Alpha virt. eigenvalues --    0.11305   0.11527   0.11849   0.12430   0.12784
 Alpha virt. eigenvalues --    0.13315   0.13994   0.14276   0.14705   0.15170
 Alpha virt. eigenvalues --    0.15532   0.16301   0.17476   0.17813   0.18732
 Alpha virt. eigenvalues --    0.19396   0.20659   0.20929   0.22153   0.23407
 Alpha virt. eigenvalues --    0.23929   0.24331   0.24558   0.24957   0.27606
 Alpha virt. eigenvalues --    0.28197   0.29596   0.33293   0.36122   0.36863
 Alpha virt. eigenvalues --    0.37318   0.38556   0.38664   0.40522   0.40928
 Alpha virt. eigenvalues --    0.41760   0.41975   0.43153   0.43256   0.44012
 Alpha virt. eigenvalues --    0.44681   0.45097   0.45602   0.46257   0.46830
 Alpha virt. eigenvalues --    0.47323   0.47504   0.47950   0.48975   0.49393
 Alpha virt. eigenvalues --    0.49755   0.49920   0.50114   0.50446   0.51614
 Alpha virt. eigenvalues --    0.52089   0.52186   0.52873   0.53515   0.53981
 Alpha virt. eigenvalues --    0.54576   0.54882   0.55375   0.55606   0.56229
 Alpha virt. eigenvalues --    0.56793   0.57033   0.57505   0.58784   0.58996
 Alpha virt. eigenvalues --    0.59685   0.60221   0.61274   0.61337   0.62287
 Alpha virt. eigenvalues --    0.63351   0.63862   0.64505   0.65486   0.66231
 Alpha virt. eigenvalues --    0.67014   0.67196   0.68004   0.68679   0.69302
 Alpha virt. eigenvalues --    0.69907   0.70453   0.70790   0.71352   0.71689
 Alpha virt. eigenvalues --    0.72325   0.72987   0.73441   0.74040   0.74269
 Alpha virt. eigenvalues --    0.74607   0.75677   0.76447   0.76534   0.76943
 Alpha virt. eigenvalues --    0.77289   0.77594   0.78249   0.78680   0.78722
 Alpha virt. eigenvalues --    0.79485   0.80047   0.80731   0.80948   0.81972
 Alpha virt. eigenvalues --    0.82276   0.82546   0.82757   0.82963   0.83638
 Alpha virt. eigenvalues --    0.83895   0.84164   0.84522   0.84741   0.85598
 Alpha virt. eigenvalues --    0.86641   0.87198   0.87592   0.87784   0.88257
 Alpha virt. eigenvalues --    0.88762   0.89659   0.90162   0.90525   0.91459
 Alpha virt. eigenvalues --    0.91997   0.93534   0.94350   0.95038   0.96052
 Alpha virt. eigenvalues --    0.96372   0.97594   0.97634   0.98857   0.99338
 Alpha virt. eigenvalues --    0.99596   1.00213   1.00958   1.03081   1.03233
 Alpha virt. eigenvalues --    1.04640   1.04969   1.06052   1.06592   1.08272
 Alpha virt. eigenvalues --    1.10818   1.11570   1.12112   1.13069   1.14066
 Alpha virt. eigenvalues --    1.14968   1.15639   1.17745   1.18350   1.18874
 Alpha virt. eigenvalues --    1.20179   1.21132   1.22249   1.23473   1.24109
 Alpha virt. eigenvalues --    1.26099   1.27272   1.28129   1.28376   1.29308
 Alpha virt. eigenvalues --    1.30186   1.30670   1.31603   1.32223   1.33146
 Alpha virt. eigenvalues --    1.34069   1.34543   1.35280   1.36348   1.36767
 Alpha virt. eigenvalues --    1.37179   1.38077   1.38802   1.39538   1.40691
 Alpha virt. eigenvalues --    1.41110   1.42890   1.45848   1.46783   1.47580
 Alpha virt. eigenvalues --    1.49163   1.50182   1.51981   1.53004   1.55584
 Alpha virt. eigenvalues --    1.56222   1.56545   1.57388   1.58763   1.60706
 Alpha virt. eigenvalues --    1.61023   1.61347   1.62122   1.62323   1.64449
 Alpha virt. eigenvalues --    1.64650   1.64959   1.65714   1.65951   1.66903
 Alpha virt. eigenvalues --    1.67447   1.67978   1.69262   1.69997   1.70459
 Alpha virt. eigenvalues --    1.71081   1.71864   1.72931   1.73415   1.74349
 Alpha virt. eigenvalues --    1.74803   1.76151   1.77102   1.77408   1.77498
 Alpha virt. eigenvalues --    1.78920   1.79181   1.79880   1.81229   1.81429
 Alpha virt. eigenvalues --    1.82211   1.82768   1.83461   1.84249   1.84466
 Alpha virt. eigenvalues --    1.84856   1.85793   1.86140   1.86901   1.87500
 Alpha virt. eigenvalues --    1.88175   1.88312   1.88777   1.89703   1.90282
 Alpha virt. eigenvalues --    1.91033   1.92290   1.92724   1.94323   1.95880
 Alpha virt. eigenvalues --    1.96903   1.98541   1.98906   2.00277   2.00592
 Alpha virt. eigenvalues --    2.01513   2.02185   2.03486   2.03571   2.04834
 Alpha virt. eigenvalues --    2.05498   2.05997   2.07957   2.10218   2.11357
 Alpha virt. eigenvalues --    2.11562   2.13817   2.15360   2.16281   2.17719
 Alpha virt. eigenvalues --    2.18534   2.20233   2.20570   2.20846   2.22162
 Alpha virt. eigenvalues --    2.22792   2.24152   2.25487   2.25889   2.26264
 Alpha virt. eigenvalues --    2.26799   2.27410   2.27930   2.29157   2.30708
 Alpha virt. eigenvalues --    2.31452   2.32141   2.33195   2.34488   2.34785
 Alpha virt. eigenvalues --    2.35104   2.35766   2.36864   2.39128   2.40322
 Alpha virt. eigenvalues --    2.41837   2.42554   2.43693   2.45786   2.46385
 Alpha virt. eigenvalues --    2.48668   2.49201   2.50557   2.50631   2.53359
 Alpha virt. eigenvalues --    2.53458   2.54293   2.54332   2.54555   2.55590
 Alpha virt. eigenvalues --    2.56582   2.57863   2.60203   2.61727   2.62112
 Alpha virt. eigenvalues --    2.63678   2.64484   2.65637   2.66641   2.70415
 Alpha virt. eigenvalues --    2.72088   2.72564   2.74392   2.75200   2.78157
 Alpha virt. eigenvalues --    2.79045   2.80680   2.81903   2.85093   2.87610
 Alpha virt. eigenvalues --    2.87912   2.89305   2.92343   2.96345   2.99122
 Alpha virt. eigenvalues --    2.99821   3.01438   3.05890   3.30524   3.70107
 Alpha virt. eigenvalues --    3.73071   3.75518   3.76513   3.89754   3.92073
 Alpha virt. eigenvalues --    3.95021   3.95600   4.02270   4.03117   4.05409
 Alpha virt. eigenvalues --    4.06715   4.09649   4.12569   4.14357   4.15944
 Alpha virt. eigenvalues --    4.18163   4.21341   4.22105   4.23004   4.30442
 Alpha virt. eigenvalues --    4.33455   4.34960   4.37627   4.41388   4.45880
 Alpha virt. eigenvalues --    4.50248   4.51688   4.58005   4.58630   4.65400
          Condensed to atoms (all electrons):
 Mulliken charges:
               1
     1  N   -0.686066
     2  H    0.323243
     3  H    0.317840
     4  C   -0.097702
     5  H    0.158881
     6  C    0.631563
     7  C   -0.270028
     8  H    0.148513
     9  H    0.199861
    10  O   -0.541824
    11  C   -0.357899
    12  H    0.204688
    13  H    0.180717
    14  C    0.554729
    15  O   -0.424661
    16  O   -0.583480
    17  N   -0.581653
    18  H    0.355836
    19  C   -0.056755
    20  H    0.208926
    21  C    0.664812
    22  C   -0.359929
    23  H    0.212102
    24  H    0.183878
    25  O   -0.552376
    26  C    0.049392
    27  C   -0.182085
    28  H    0.143706
    29  C   -0.201615
    30  H    0.163940
    31  C   -0.131103
    32  H    0.176277
    33  C   -0.183060
    34  H    0.152586
    35  O   -0.638161
    36  H    0.425663
    37  C    0.369982
    38  N   -0.618457
    39  H    0.406604
    40  C   -0.065013
    41  H    0.240574
    42  C    0.625328
    43  C   -0.324190
    44  H    0.200644
    45  H    0.165345
    46  O   -0.400129
    47  C   -0.277364
    48  H    0.151621
    49  H    0.171588
    50  C   -0.257430
    51  H    0.146701
    52  H    0.120889
    53  C   -0.147996
    54  H    0.146999
    55  H    0.132302
    56  N   -0.752957
    57  H    0.326149
    58  H    0.306880
    59  O   -0.617123
    60  H    0.470719
    61  H    0.452097
    62  H    0.417482
 Sum of Mulliken charges =   1.00000
 Mulliken charges with hydrogens summed into heavy atoms:
               1
     1  N   -0.044983
     4  C    0.061179
     6  C    0.631563
     7  C    0.078345
    10  O   -0.541824
    11  C    0.027506
    14  C    0.554729
    15  O   -0.424661
    16  O   -0.165998
    17  N   -0.225817
    19  C    0.152171
    21  C    0.664812
    22  C    0.036050
    25  O   -0.081656
    26  C    0.049392
    27  C   -0.038378
    29  C   -0.037675
    31  C    0.045173
    33  C   -0.030474
    35  O   -0.212498
    37  C    0.369982
    38  N   -0.211853
    40  C    0.175561
    42  C    0.625328
    43  C    0.041800
    46  O   -0.400129
    47  C    0.045844
    50  C    0.010159
    53  C    0.131305
    56  N   -0.119929
    59  O   -0.165026
 Electronic spatial extent (au):  <R**2>=          15160.8211
 Charge=              1.0000 electrons
 Dipole moment (field-independent basis, Debye):
    X=              3.4839    Y=              7.0932    Z=              2.4067  Tot=              8.2610
 Quadrupole moment (field-independent basis, Debye-Ang):
   XX=           -155.5500   YY=           -164.6799   ZZ=           -126.0611
   XY=              9.5997   XZ=             -0.3922   YZ=            -15.1960
 Traceless Quadrupole moment (field-independent basis, Debye-Ang):
   XX=             -6.7864   YY=            -15.9162   ZZ=             22.7026
   XY=              9.5997   XZ=             -0.3922   YZ=            -15.1960
 Octapole moment (field-independent basis, Debye-Ang**2):
  XXX=           -277.9149  YYY=            -76.4984  ZZZ=             41.9099  XYY=             10.4859
  XXY=            -34.9582  XXZ=             92.7327  XZZ=            -48.0783  YZZ=             -3.5170
  YYZ=             17.6416  XYZ=             13.5319
 Hexadecapole moment (field-independent basis, Debye-Ang**3):
 XXXX=          -5483.7058 YYYY=          -8631.0602 ZZZZ=          -3825.3001 XXXY=          -1839.3412
 XXXZ=            259.4801 YYYX=          -1971.3684 YYYZ=           1315.1215 ZZZX=            228.7845
 ZZZY=           1327.9782 XXYY=          -2256.3955 XXZZ=          -1376.0125 YYZZ=          -1970.6172
 XXYZ=            589.1301 YYXZ=            -97.6877 ZZXY=           -459.5163
 N-N= 3.397370942760D+03 E-N=-1.032655118353D+04  KE= 1.512357338292D+03
 Unable to Open any file for archive entry.
 1\1\GINC-AMR-092\SP\RB3LYP\6-31G(d)\C20H31N4O7(1+)\KENGMITH\23-Jun-202
 2\0\\# B3LYP/6-31G* empiricaldispersion=gd3bj guess=read geom=check no
 symm integral(ultrafinegrid)\\Candidate Structure: Conf:549 Charge cal
 c in gas phase\\1,1\N,0,-0.0412251966,-4.0637272665,2.9752457933\H,0,0
 .6639311134,-4.1070497636,2.2415328017\H,0,0.4557956021,-3.8609258902,
 3.8398198285\C,0,-0.9912749109,-3.0095759535,2.6743709176\H,0,-1.58052
 20087,-2.8076375753,3.576931006\C,0,-0.3461992161,-1.7070135039,2.1989
 099063\C,0,-1.9729890408,-3.454145321,1.5607166308\H,0,-2.6535730586,-
 2.624591248,1.3355470891\H,0,-2.5742446844,-4.2771362232,1.9555725927\
 O,0,0.6917992403,-1.6862515937,1.5285005782\C,0,-1.2558866669,-3.91207
 86136,0.2695573368\H,0,-0.9438114788,-4.953445905,0.3595538134\H,0,-0.
 3713734551,-3.2938850902,0.0866915741\C,0,-2.1658785119,-3.7917450676,
 -0.9281498637\O,0,-2.7552892892,-4.6833501299,-1.4845330662\O,0,-2.281
 8997733,-2.4830553085,-1.3235302098\N,0,-0.9997809888,-0.5366148017,2.
 4539692941\H,0,-1.8866846892,-0.5376940251,2.9396061894\C,0,-0.6627438
 378,0.6145235071,1.6212156081\H,0,-1.0413784906,1.5115804002,2.1245476
 617\C,0,0.8558622652,0.7447018377,1.6588090436\C,0,-1.3298429174,0.437
 9000917,0.2343072832\H,0,-1.1193882482,-0.5771998208,-0.1076744732\H,0
 ,-2.4088973601,0.4703196025,0.4308660917\O,0,1.368397555,0.6654974812,
 2.853117633\C,0,-0.9790692141,1.407847814,-0.8721838707\C,0,-1.0366939
 114,2.8032405171,-0.7100499234\H,0,-1.3213895208,3.2292441409,0.249043
 6989\C,0,-0.6136675908,0.9010034323,-2.1271676601\H,0,-0.5781469821,-0
 .1751917733,-2.2761091738\C,0,-0.7398950315,3.662444399,-1.7595636903\
 H,0,-0.7628672952,4.7378259881,-1.6301052406\C,0,-0.3248694828,1.75201
 95227,-3.1931631158\H,0,-0.0544776226,1.3395363229,-4.1621809507\O,0,-
 0.1263449526,4.0235349373,-4.0082872469\H,0,0.0385885179,3.5511649757,
 -4.8401906427\C,0,-0.3952324865,3.1350309029,-3.011314413\N,0,1.546678
 3967,1.0790569232,0.5927802421\H,0,0.9725691677,1.2175644161,-0.241966
 0447\C,0,2.9767037308,0.856295823,0.2799649494\H,0,3.1513680698,-0.224
 6003721,0.3685971274\C,0,4.0159103993,1.5239964587,1.1782229687\C,0,3.
 2197910514,1.31274052,-1.1727624433\H,0,4.2288118738,0.988895898,-1.44
 21285816\H,0,2.5223321706,0.7701711864,-1.8231073779\O,0,5.1884157579,
 1.5315147705,0.9296087153\C,0,3.0776456577,2.8278333389,-1.3535029894\
 H,0,3.8000920567,3.334535552,-0.6998276903\H,0,2.0865384106,3.17626222
 09,-1.0447359528\C,0,3.3303877045,3.2804376399,-2.7939083891\H,0,4.275
 9123192,2.8584129627,-3.1593600898\H,0,2.5391071313,2.8853499589,-3.44
 62907979\C,0,3.394367524,4.8063009163,-2.9228555807\H,0,4.2186958002,5
 .1747496185,-2.2996616724\H,0,3.6515734032,5.0627927048,-3.9646496403\
 N,0,2.1553868903,5.4320033743,-2.4455470642\H,0,1.4224299994,5.2961668
 939,-3.139866086\H,0,2.2916762787,6.4377255159,-2.3647264723\O,0,3.499
 2186015,2.0849266981,2.3170536145\H,0,2.2750991145,1.0619656863,2.8813
 10581\H,0,4.245424109,2.4593493988,2.828529842\H,0,-2.914373059,-2.484
 8881324,-2.0672279691\\Version=ES64L-G16RevC.01\HF=-1526.3076472\RMSD=
 6.612e-09\Dipole=0.2909745,1.8274245,1.2441948\Quadrupole=-5.0455056,-
 11.8333011,16.8788067,7.1371261,-0.2915546,-11.2978879\PG=C01 [X(C20H3
 1N4O7)]\\@
 The archive entry for this job was punched.


 CONFIDENCE: THAT QUIET ASSURED FEELING YOU HAVE
 JUST BEFORE YOU FALL FLAT ON YOUR FACE.
 Job cpu time:       0 days  0 hours  1 minutes  4.0 seconds.
 Elapsed time:       0 days  0 hours  0 minutes 16.3 seconds.
 File lengths (MBytes):  RWF=    264 Int=      0 D2E=      0 Chk=     40 Scr=     16
 Normal termination of Gaussian 16 at Thu Jun 23 14:08:02 2022.
