 Entering Gaussian System, Link 0=/opt/software/Gaussian/g16-AVX2-C.01/g16/g16
 Input=charge-conf-981.com
 Output=charge-conf-981.log
 Initial command:
 /opt/software/Gaussian/g16-AVX2-C.01/g16/l1.exe "/mnt/gs18/scratch/users/kengmith/Gau-76508.inp" -scrdir="/mnt/gs18/scratch/users/kengmith/"
 Entering Link 1 = /opt/software/Gaussian/g16-AVX2-C.01/g16/l1.exe PID=     76518.
  
 Copyright (c) 1988-2019, Gaussian, Inc.  All Rights Reserved.
  
 This is part of the Gaussian(R) 16 program.  It is based on
 the Gaussian(R) 09 system (copyright 2009, Gaussian, Inc.),
 the Gaussian(R) 03 system (copyright 2003, Gaussian, Inc.),
 the Gaussian(R) 98 system (copyright 1998, Gaussian, Inc.),
 the Gaussian(R) 94 system (copyright 1995, Gaussian, Inc.),
 the Gaussian 92(TM) system (copyright 1992, Gaussian, Inc.),
 the Gaussian 90(TM) system (copyright 1990, Gaussian, Inc.),
 the Gaussian 88(TM) system (copyright 1988, Gaussian, Inc.),
 the Gaussian 86(TM) system (copyright 1986, Carnegie Mellon
 University), and the Gaussian 82(TM) system (copyright 1983,
 Carnegie Mellon University). Gaussian is a federally registered
 trademark of Gaussian, Inc.
  
 This software contains proprietary and confidential information,
 including trade secrets, belonging to Gaussian, Inc.
  
 This software is provided under written license and may be
 used, copied, transmitted, or stored only in accord with that
 written license.
  
 The following legend is applicable only to US Government
 contracts under FAR:
  
                    RESTRICTED RIGHTS LEGEND
  
 Use, reproduction and disclosure by the US Government is
 subject to restrictions as set forth in subparagraphs (a)
 and (c) of the Commercial Computer Software - Restricted
 Rights clause in FAR 52.227-19.
  
 Gaussian, Inc.
 340 Quinnipiac St., Bldg. 40, Wallingford CT 06492
  
  
 ---------------------------------------------------------------
 Warning -- This program may not be used in any manner that
 competes with the business of Gaussian, Inc. or will provide
 assistance to any competitor of Gaussian, Inc.  The licensee
 of this program is prohibited from giving any competitor of
 Gaussian, Inc. access to this program.  By using this program,
 the user acknowledges that Gaussian, Inc. is engaged in the
 business of creating and licensing software in the field of
 computational chemistry and represents and warrants to the
 licensee that it is not a competitor of Gaussian, Inc. and that
 it will not use this program in any manner prohibited above.
 ---------------------------------------------------------------
  

 Cite this work as:
 Gaussian 16, Revision C.01,
 M. J. Frisch, G. W. Trucks, H. B. Schlegel, G. E. Scuseria, 
 M. A. Robb, J. R. Cheeseman, G. Scalmani, V. Barone, 
 G. A. Petersson, H. Nakatsuji, X. Li, M. Caricato, A. V. Marenich, 
 J. Bloino, B. G. Janesko, R. Gomperts, B. Mennucci, H. P. Hratchian, 
 J. V. Ortiz, A. F. Izmaylov, J. L. Sonnenberg, D. Williams-Young, 
 F. Ding, F. Lipparini, F. Egidi, J. Goings, B. Peng, A. Petrone, 
 T. Henderson, D. Ranasinghe, V. G. Zakrzewski, J. Gao, N. Rega, 
 G. Zheng, W. Liang, M. Hada, M. Ehara, K. Toyota, R. Fukuda, 
 J. Hasegawa, M. Ishida, T. Nakajima, Y. Honda, O. Kitao, H. Nakai, 
 T. Vreven, K. Throssell, J. A. Montgomery, Jr., J. E. Peralta, 
 F. Ogliaro, M. J. Bearpark, J. J. Heyd, E. N. Brothers, K. N. Kudin, 
 V. N. Staroverov, T. A. Keith, R. Kobayashi, J. Normand, 
 K. Raghavachari, A. P. Rendell, J. C. Burant, S. S. Iyengar, 
 J. Tomasi, M. Cossi, J. M. Millam, M. Klene, C. Adamo, R. Cammi, 
 J. W. Ochterski, R. L. Martin, K. Morokuma, O. Farkas, 
 J. B. Foresman, and D. J. Fox, Gaussian, Inc., Wallingford CT, 2019.
 
 ******************************************
 Gaussian 16:  ES64L-G16RevC.01  3-Jul-2019
                 1-Jun-2022 
 ******************************************
 %mem=8gb
 %nproc=4
 Will use up to    4 processors via shared memory.
 %chk=conf-981.chk
 ----------------------------------------------------------------------
 # B3LYP/6-31G* empiricaldispersion=gd3 guess=read geom=check nosymm in
 tegral(ultrafinegrid)
 ----------------------------------------------------------------------
 1/29=2,38=1,172=1/1;
 2/12=2,15=1,40=1/2;
 3/5=1,6=6,7=1,11=2,14=-4,25=1,30=1,74=-5,75=-5,116=-2,124=31/1,2,3;
 4/5=1/1;
 5/5=2,38=6/2;
 6/7=2,8=2,9=2,10=2,28=1/1;
 99/5=1,9=1/99;
 ------------------------------------------------------
 Candidate Structure: Conf:981 Charge calc in gas phase
 ------------------------------------------------------
 Structure from the checkpoint file:  "conf-981.chk"
 Charge =  1 Multiplicity = 1
 Redundant internal coordinates found in file.  (old form).
 N,0,-0.3730319844,-2.0176725062,3.0044672626
 H,0,0.1956240533,-1.2222485168,2.6020812626
 H,0,-0.4545641149,-1.9669024954,4.0305366704
 H,0,0.103089687,-2.8811280742,2.7208197542
 C,0,-1.7539447523,-1.9741926618,2.3666569223
 H,0,-2.2516549427,-1.1162258557,2.8261927745
 C,0,-1.3796920162,-1.7412534258,0.8828132194
 C,0,-2.5344012057,-3.2679277826,2.5950680067
 H,0,-2.1223133242,-4.0379454954,1.9344672143
 H,0,-3.5625165765,-3.0800186028,2.2670746499
 O,0,-0.8167376923,-2.6528046109,0.2975293663
 C,0,-2.5466610307,-3.801568335,4.0467467598
 H,0,-1.5629956496,-4.1971842921,4.3230978809
 H,0,-3.2644032954,-4.6217255589,4.1115049376
 C,0,-2.9589104312,-2.7495347589,5.0551188831
 O,0,-4.0639133477,-2.5452737684,5.4777880135
 O,0,-1.8754648941,-1.9741945162,5.4199559175
 N,0,-1.583201824,-0.4746610301,0.4179633539
 H,0,-2.0513875537,0.1447800942,1.069209831
 C,0,-0.5865076309,0.2225432939,-0.4042090219
 H,0,-1.0466855692,1.1699108859,-0.7020264452
 C,0,0.6328554789,0.5396423688,0.5025041313
 C,0,-0.1806182296,-0.5289067948,-1.7080329765
 H,0,0.2197233239,-1.5091807418,-1.4488280847
 H,0,-1.1026434581,-0.6922580093,-2.2775308436
 O,0,0.9215329741,-0.1600707942,1.4918046203
 C,0,0.8300359504,0.288683044,-2.4755805084
 C,0,0.4510017964,1.4819061159,-3.1117169016
 H,0,-0.6052741474,1.7285526326,-3.2063458221
 C,0,2.1958013718,-0.0106589635,-2.3984833591
 H,0,2.5138592515,-0.9327869422,-1.9166939589
 C,0,1.4008215364,2.3750629674,-3.597764575
 H,0,1.1108927757,3.3059682375,-4.0744202727
 C,0,3.1603222406,0.8683555769,-2.8861729323
 H,0,4.2165879866,0.6252305038,-2.8128771932
 O,0,3.6509647341,3.0170566106,-3.8836514277
 C,0,2.771879944,2.091138583,-3.4624735625
 N,0,1.3721105101,1.6005339759,0.1576882401
 H,0,1.171884843,2.0724585606,-0.7169403338
 C,0,2.6352639724,1.8949230697,0.822347202
 H,0,3.2321413331,0.9755910352,0.8460816707
 C,0,2.3610355966,2.2998192188,2.2728109261
 C,0,3.4263705537,3.0015791394,0.0755544908
 H,0,3.1270804448,2.9920302684,-0.9774913093
 H,0,3.1503508078,3.9861197296,0.4736918446
 O,0,1.2907758613,2.6277612773,2.7261196464
 C,0,4.943617524,2.7830492242,0.1736587746
 H,0,5.2014330889,1.8914943437,-0.4146245318
 H,0,5.2057859923,2.5568483145,1.2125686509
 C,0,5.7895865138,3.984128139,-0.2758090064
 H,0,5.5266505583,4.8559980779,0.337706848
 H,0,6.8443891689,3.7670554953,-0.0552590011
 C,0,5.6773500559,4.39775845,-1.746505421
 H,0,4.6505573261,4.6955293339,-1.9896646325
 H,0,6.3109437255,5.2809400737,-1.9000795955
 N,0,6.0516259596,3.3020915801,-2.6797025602
 H,0,6.5154713053,3.6932938117,-3.4989684402
 H,0,4.5590730968,2.8652440152,-3.4829124079
 H,0,6.7334014356,2.6805358084,-2.2464939406
 O,0,3.5053065532,2.2720489939,2.9917272876
 H,0,-2.1916761514,-1.316383532,6.0701180633
 H,0,3.2898433898,2.595130614,3.8873913286
 Recover connectivity data from disk.
                           ----------------------------
                           !    Current Parameters    !
                           ! (Angstroms and Degrees)  !
 --------------------------                            --------------------------
 ! Name  Definition              Value                                          !
 --------------------------------------------------------------------------------
 ! R1    R(1,2)                  1.0573                                         !
 ! R2    R(1,3)                  1.0306                                         !
 ! R3    R(1,4)                  1.026                                          !
 ! R4    R(1,5)                  1.5217                                         !
 ! R5    R(5,6)                  1.0932                                         !
 ! R6    R(5,7)                  1.5479                                         !
 ! R7    R(5,8)                  1.5281                                         !
 ! R8    R(7,11)                 1.2208                                         !
 ! R9    R(7,18)                 1.3645                                         !
 ! R10   R(8,9)                  1.0951                                         !
 ! R11   R(8,10)                 1.0954                                         !
 ! R12   R(8,12)                 1.5467                                         !
 ! R13   R(12,13)                1.0957                                         !
 ! R14   R(12,14)                1.0918                                         !
 ! R15   R(12,15)                1.5144                                         !
 ! R16   R(15,16)                1.2006                                         !
 ! R17   R(15,17)                1.3813                                         !
 ! R18   R(17,61)                0.9775                                         !
 ! R19   R(18,19)                1.0134                                         !
 ! R20   R(18,20)                1.4681                                         !
 ! R21   R(20,21)                1.0945                                         !
 ! R22   R(20,22)                1.5523                                         !
 ! R23   R(20,23)                1.5586                                         !
 ! R24   R(22,26)                1.2457                                         !
 ! R25   R(22,38)                1.3382                                         !
 ! R26   R(23,24)                1.0901                                         !
 ! R27   R(23,25)                1.096                                          !
 ! R28   R(23,27)                1.5096                                         !
 ! R29   R(27,28)                1.4043                                         !
 ! R30   R(27,30)                1.4003                                         !
 ! R31   R(28,29)                1.0888                                         !
 ! R32   R(28,32)                1.3914                                         !
 ! R33   R(30,31)                1.0879                                         !
 ! R34   R(30,34)                1.3931                                         !
 ! R35   R(32,33)                1.0853                                         !
 ! R36   R(32,37)                1.4067                                         !
 ! R37   R(34,35)                1.0864                                         !
 ! R38   R(34,37)                1.4065                                         !
 ! R39   R(36,37)                1.3444                                         !
 ! R40   R(38,39)                1.0138                                         !
 ! R41   R(38,40)                1.4574                                         !
 ! R42   R(40,41)                1.0964                                         !
 ! R43   R(40,42)                1.5307                                         !
 ! R44   R(40,43)                1.5518                                         !
 ! R45   R(42,46)                1.2077                                         !
 ! R46   R(42,60)                1.3517                                         !
 ! R47   R(43,44)                1.0948                                         !
 ! R48   R(43,45)                1.0973                                         !
 ! R49   R(43,47)                1.536                                          !
 ! R50   R(47,48)                1.0988                                         !
 ! R51   R(47,49)                1.0951                                         !
 ! R52   R(47,50)                1.5363                                         !
 ! R53   R(50,51)                1.098                                          !
 ! R54   R(50,52)                1.0993                                         !
 ! R55   R(50,53)                1.5319                                         !
 ! R56   R(53,54)                1.0964                                         !
 ! R57   R(53,55)                1.0977                                         !
 ! R58   R(53,56)                1.4871                                         !
 ! R59   R(56,57)                1.0195                                         !
 ! R60   R(56,58)                1.7503                                         !
 ! R61   R(56,59)                1.0192                                         !
 ! R62   R(60,62)                0.9762                                         !
 ! A1    A(2,1,3)              112.6061                                         !
 ! A2    A(2,1,4)              106.1595                                         !
 ! A3    A(2,1,5)              107.8814                                         !
 ! A4    A(3,1,4)              110.697                                          !
 ! A5    A(3,1,5)              110.1277                                         !
 ! A6    A(4,1,5)              109.2254                                         !
 ! A7    A(1,5,6)              105.0343                                         !
 ! A8    A(1,5,7)              100.7591                                         !
 ! A9    A(1,5,8)              112.1259                                         !
 ! A10   A(6,5,7)              113.2622                                         !
 ! A11   A(6,5,8)              111.6608                                         !
 ! A12   A(7,5,8)              113.2146                                         !
 ! A13   A(5,7,11)             117.3029                                         !
 ! A14   A(5,7,18)             115.4806                                         !
 ! A15   A(11,7,18)            126.7669                                         !
 ! A16   A(5,8,9)              108.238                                          !
 ! A17   A(5,8,10)             106.8206                                         !
 ! A18   A(5,8,12)             115.8774                                         !
 ! A19   A(9,8,10)             107.0493                                         !
 ! A20   A(9,8,12)             109.0608                                         !
 ! A21   A(10,8,12)            109.4374                                         !
 ! A22   A(8,12,13)            110.7437                                         !
 ! A23   A(8,12,14)            108.6665                                         !
 ! A24   A(8,12,15)            112.7937                                         !
 ! A25   A(13,12,14)           107.698                                          !
 ! A26   A(13,12,15)           109.1034                                         !
 ! A27   A(14,12,15)           107.6614                                         !
 ! A28   A(12,15,16)           127.0949                                         !
 ! A29   A(12,15,17)           110.6259                                         !
 ! A30   A(16,15,17)           122.2368                                         !
 ! A31   A(15,17,61)           107.4386                                         !
 ! A32   A(7,18,19)            114.6686                                         !
 ! A33   A(7,18,20)            122.0294                                         !
 ! A34   A(19,18,20)           112.5342                                         !
 ! A35   A(18,20,21)           106.1404                                         !
 ! A36   A(18,20,22)           107.6489                                         !
 ! A37   A(18,20,23)           114.6004                                         !
 ! A38   A(21,20,22)           108.2035                                         !
 ! A39   A(21,20,23)           107.408                                          !
 ! A40   A(22,20,23)           112.4917                                         !
 ! A41   A(20,22,26)           122.0872                                         !
 ! A42   A(20,22,38)           116.4473                                         !
 ! A43   A(26,22,38)           121.4615                                         !
 ! A44   A(20,23,24)           109.2848                                         !
 ! A45   A(20,23,25)           106.7056                                         !
 ! A46   A(20,23,27)           109.788                                          !
 ! A47   A(24,23,25)           107.3665                                         !
 ! A48   A(24,23,27)           111.2253                                         !
 ! A49   A(25,23,27)           112.3177                                         !
 ! A50   A(23,27,28)           120.6497                                         !
 ! A51   A(23,27,30)           120.6097                                         !
 ! A52   A(28,27,30)           118.0228                                         !
 ! A53   A(27,28,29)           119.5832                                         !
 ! A54   A(27,28,32)           121.2915                                         !
 ! A55   A(29,28,32)           119.1075                                         !
 ! A56   A(27,30,31)           119.3872                                         !
 ! A57   A(27,30,34)           121.4066                                         !
 ! A58   A(31,30,34)           119.1713                                         !
 ! A59   A(28,32,33)           121.4425                                         !
 ! A60   A(28,32,37)           120.144                                          !
 ! A61   A(33,32,37)           118.4084                                         !
 ! A62   A(30,34,35)           120.553                                          !
 ! A63   A(30,34,37)           120.0517                                         !
 ! A64   A(35,34,37)           119.3892                                         !
 ! A65   A(32,37,34)           118.9518                                         !
 ! A66   A(32,37,36)           117.916                                          !
 ! A67   A(34,37,36)           123.1292                                         !
 ! A68   A(22,38,39)           118.8305                                         !
 ! A69   A(22,38,40)           121.4267                                         !
 ! A70   A(39,38,40)           118.0735                                         !
 ! A71   A(38,40,41)           108.201                                          !
 ! A72   A(38,40,42)           109.2879                                         !
 ! A73   A(38,40,43)           111.495                                          !
 ! A74   A(41,40,42)           107.3874                                         !
 ! A75   A(41,40,43)           109.3209                                         !
 ! A76   A(42,40,43)           111.0206                                         !
 ! A77   A(40,42,46)           125.8936                                         !
 ! A78   A(40,42,60)           110.298                                          !
 ! A79   A(46,42,60)           123.7918                                         !
 ! A80   A(40,43,44)           108.4994                                         !
 ! A81   A(40,43,45)           109.6947                                         !
 ! A82   A(40,43,47)           111.7993                                         !
 ! A83   A(44,43,45)           106.742                                          !
 ! A84   A(44,43,47)           109.2823                                         !
 ! A85   A(45,43,47)           110.6678                                         !
 ! A86   A(43,47,48)           108.2399                                         !
 ! A87   A(43,47,49)           109.0536                                         !
 ! A88   A(43,47,50)           114.4564                                         !
 ! A89   A(48,47,49)           106.5075                                         !
 ! A90   A(48,47,50)           110.3953                                         !
 ! A91   A(49,47,50)           107.8912                                         !
 ! A92   A(47,50,51)           108.9921                                         !
 ! A93   A(47,50,52)           108.3788                                         !
 ! A94   A(47,50,53)           116.8483                                         !
 ! A95   A(51,50,52)           105.9304                                         !
 ! A96   A(51,50,53)           107.7269                                         !
 ! A97   A(52,50,53)           108.4361                                         !
 ! A98   A(50,53,54)           110.7856                                         !
 ! A99   A(50,53,55)           108.0149                                         !
 ! A100  A(50,53,56)           112.6492                                         !
 ! A101  A(54,53,55)           106.918                                          !
 ! A102  A(54,53,56)           107.2556                                         !
 ! A103  A(55,53,56)           111.083                                          !
 ! A104  A(53,56,57)           109.6377                                         !
 ! A105  A(53,56,58)           104.9062                                         !
 ! A106  A(53,56,59)           110.5452                                         !
 ! A107  A(57,56,58)            96.6021                                         !
 ! A108  A(57,56,59)           105.737                                          !
 ! A109  A(58,56,59)           127.8243                                         !
 ! A110  A(42,60,62)           107.1179                                         !
 ! D1    D(2,1,5,6)            -73.2273                                         !
 ! D2    D(2,1,5,7)             44.6314                                         !
 ! D3    D(2,1,5,8)            165.3208                                         !
 ! D4    D(3,1,5,6)             50.0313                                         !
 ! D5    D(3,1,5,7)            167.89                                           !
 ! D6    D(3,1,5,8)            -71.4205                                         !
 ! D7    D(4,1,5,6)            171.7976                                         !
 ! D8    D(4,1,5,7)            -70.3437                                         !
 ! D9    D(4,1,5,8)             50.3457                                         !
 ! D10   D(1,5,7,11)            68.1797                                         !
 ! D11   D(1,5,7,18)          -104.6538                                         !
 ! D12   D(6,5,7,11)           179.8392                                         !
 ! D13   D(6,5,7,18)             7.0058                                         !
 ! D14   D(8,5,7,11)           -51.7315                                         !
 ! D15   D(8,5,7,18)           135.435                                          !
 ! D16   D(1,5,8,9)            -75.0741                                         !
 ! D17   D(1,5,8,10)           169.9576                                         !
 ! D18   D(1,5,8,12)            47.7464                                         !
 ! D19   D(6,5,8,9)            167.3598                                         !
 ! D20   D(6,5,8,10)            52.3914                                         !
 ! D21   D(6,5,8,12)           -69.8197                                         !
 ! D22   D(7,5,8,9)             38.1083                                         !
 ! D23   D(7,5,8,10)           -76.8601                                         !
 ! D24   D(7,5,8,12)           160.9287                                         !
 ! D25   D(5,7,18,19)           -6.3702                                         !
 ! D26   D(5,7,18,20)          135.3287                                         !
 ! D27   D(11,7,18,19)        -178.4159                                         !
 ! D28   D(11,7,18,20)         -36.717                                          !
 ! D29   D(5,8,12,13)          -71.3034                                         !
 ! D30   D(5,8,12,14)          170.5927                                         !
 ! D31   D(5,8,12,15)           51.2961                                         !
 ! D32   D(9,8,12,13)           51.0829                                         !
 ! D33   D(9,8,12,14)          -67.021                                          !
 ! D34   D(9,8,12,15)          173.6824                                         !
 ! D35   D(10,8,12,13)         167.883                                          !
 ! D36   D(10,8,12,14)          49.7792                                         !
 ! D37   D(10,8,12,15)         -69.5175                                         !
 ! D38   D(8,12,15,16)          93.5362                                         !
 ! D39   D(8,12,15,17)         -84.1157                                         !
 ! D40   D(13,12,15,16)       -142.9507                                         !
 ! D41   D(13,12,15,17)         39.3974                                         !
 ! D42   D(14,12,15,16)        -26.3412                                         !
 ! D43   D(14,12,15,17)        156.0069                                         !
 ! D44   D(12,15,17,61)       -179.8299                                         !
 ! D45   D(16,15,17,61)          2.3843                                         !
 ! D46   D(7,18,20,21)         175.1536                                         !
 ! D47   D(7,18,20,22)         -69.166                                          !
 ! D48   D(7,18,20,23)          56.7916                                         !
 ! D49   D(19,18,20,21)        -42.4204                                         !
 ! D50   D(19,18,20,22)         73.26                                           !
 ! D51   D(19,18,20,23)       -160.7824                                         !
 ! D52   D(18,20,22,26)         27.6382                                         !
 ! D53   D(18,20,22,38)       -153.0799                                         !
 ! D54   D(21,20,22,26)        141.951                                          !
 ! D55   D(21,20,22,38)        -38.767                                          !
 ! D56   D(23,20,22,26)        -99.5579                                         !
 ! D57   D(23,20,22,38)         79.7241                                         !
 ! D58   D(18,20,23,24)        -58.5047                                         !
 ! D59   D(18,20,23,25)         57.2916                                         !
 ! D60   D(18,20,23,27)        179.252                                          !
 ! D61   D(21,20,23,24)       -176.1482                                         !
 ! D62   D(21,20,23,25)        -60.352                                          !
 ! D63   D(21,20,23,27)         61.6084                                         !
 ! D64   D(22,20,23,24)         64.8945                                         !
 ! D65   D(22,20,23,25)       -179.3093                                         !
 ! D66   D(22,20,23,27)        -57.3489                                         !
 ! D67   D(20,22,38,39)         -6.8549                                         !
 ! D68   D(20,22,38,40)       -171.8459                                         !
 ! D69   D(26,22,38,39)        172.4319                                         !
 ! D70   D(26,22,38,40)          7.4409                                         !
 ! D71   D(20,23,27,28)        -70.2466                                         !
 ! D72   D(20,23,27,30)         99.8553                                         !
 ! D73   D(24,23,27,28)        168.6713                                         !
 ! D74   D(24,23,27,30)        -21.2268                                         !
 ! D75   D(25,23,27,28)         48.3028                                         !
 ! D76   D(25,23,27,30)       -141.5952                                         !
 ! D77   D(23,27,28,29)        -11.0549                                         !
 ! D78   D(23,27,28,32)        167.3966                                         !
 ! D79   D(30,27,28,29)        178.5929                                         !
 ! D80   D(30,27,28,32)         -2.9556                                         !
 ! D81   D(23,27,30,31)         10.076                                          !
 ! D82   D(23,27,30,34)       -167.7595                                         !
 ! D83   D(28,27,30,31)       -179.5678                                         !
 ! D84   D(28,27,30,34)          2.5967                                         !
 ! D85   D(27,28,32,33)       -178.9265                                         !
 ! D86   D(27,28,32,37)          0.2413                                         !
 ! D87   D(29,28,32,33)         -0.4679                                         !
 ! D88   D(29,28,32,37)        178.7                                            !
 ! D89   D(27,30,34,35)        179.5676                                         !
 ! D90   D(27,30,34,37)          0.4734                                         !
 ! D91   D(31,30,34,35)          1.7275                                         !
 ! D92   D(31,30,34,37)       -177.3667                                         !
 ! D93   D(28,32,37,34)          2.8669                                         !
 ! D94   D(28,32,37,36)       -176.5285                                         !
 ! D95   D(33,32,37,34)       -177.9402                                         !
 ! D96   D(33,32,37,36)          2.6644                                         !
 ! D97   D(30,34,37,32)         -3.2189                                         !
 ! D98   D(30,34,37,36)        176.1432                                         !
 ! D99   D(35,34,37,32)        177.6764                                         !
 ! D100  D(35,34,37,36)         -2.9615                                         !
 ! D101  D(22,38,40,41)         48.9403                                         !
 ! D102  D(22,38,40,42)        -67.6971                                         !
 ! D103  D(22,38,40,43)        169.1923                                         !
 ! D104  D(39,38,40,41)       -116.1602                                         !
 ! D105  D(39,38,40,42)        127.2024                                         !
 ! D106  D(39,38,40,43)          4.0917                                         !
 ! D107  D(38,40,42,46)        -15.8073                                         !
 ! D108  D(38,40,42,60)        165.6332                                         !
 ! D109  D(41,40,42,46)       -132.9596                                         !
 ! D110  D(41,40,42,60)         48.481                                          !
 ! D111  D(43,40,42,46)        107.5848                                         !
 ! D112  D(43,40,42,60)        -70.9746                                         !
 ! D113  D(38,40,43,44)        -25.916                                          !
 ! D114  D(38,40,43,45)         90.3408                                         !
 ! D115  D(38,40,43,47)       -146.5036                                         !
 ! D116  D(41,40,43,44)         93.675                                          !
 ! D117  D(41,40,43,45)       -150.0682                                         !
 ! D118  D(41,40,43,47)        -26.9126                                         !
 ! D119  D(42,40,43,44)       -148.0328                                         !
 ! D120  D(42,40,43,45)        -31.7759                                         !
 ! D121  D(42,40,43,47)         91.3796                                         !
 ! D122  D(40,42,60,62)        176.1876                                         !
 ! D123  D(46,42,60,62)         -2.4081                                         !
 ! D124  D(40,43,47,48)         68.8907                                         !
 ! D125  D(40,43,47,49)        -46.598                                          !
 ! D126  D(40,43,47,50)       -167.5374                                         !
 ! D127  D(44,43,47,48)        -51.2395                                         !
 ! D128  D(44,43,47,49)       -166.7282                                         !
 ! D129  D(44,43,47,50)         72.3324                                         !
 ! D130  D(45,43,47,48)       -168.5071                                         !
 ! D131  D(45,43,47,49)         76.0042                                         !
 ! D132  D(45,43,47,50)        -44.9352                                         !
 ! D133  D(43,47,50,51)         58.5927                                         !
 ! D134  D(43,47,50,52)        173.4413                                         !
 ! D135  D(43,47,50,53)        -63.7601                                         !
 ! D136  D(48,47,50,51)       -178.9994                                         !
 ! D137  D(48,47,50,52)        -64.1508                                         !
 ! D138  D(48,47,50,53)         58.6478                                         !
 ! D139  D(49,47,50,51)        -62.9864                                         !
 ! D140  D(49,47,50,52)         51.8623                                         !
 ! D141  D(49,47,50,53)        174.6608                                         !
 ! D142  D(47,50,53,54)         61.4428                                         !
 ! D143  D(47,50,53,55)        178.2345                                         !
 ! D144  D(47,50,53,56)        -58.7018                                         !
 ! D145  D(51,50,53,54)        -61.5646                                         !
 ! D146  D(51,50,53,55)         55.2271                                         !
 ! D147  D(51,50,53,56)        178.2908                                         !
 ! D148  D(52,50,53,54)       -175.7883                                         !
 ! D149  D(52,50,53,55)        -58.9966                                         !
 ! D150  D(52,50,53,56)         64.0671                                         !
 ! D151  D(50,53,56,57)       -145.0403                                         !
 ! D152  D(50,53,56,58)        112.1737                                         !
 ! D153  D(50,53,56,59)        -28.8556                                         !
 ! D154  D(54,53,56,57)         92.8015                                         !
 ! D155  D(54,53,56,58)         -9.9845                                         !
 ! D156  D(54,53,56,59)       -151.0138                                         !
 ! D157  D(55,53,56,57)        -23.7069                                         !
 ! D158  D(55,53,56,58)       -126.4928                                         !
 ! D159  D(55,53,56,59)         92.4778                                         !
 --------------------------------------------------------------------------------
 Symmetry turned off by external request.
 Stoichiometry    C20H31N4O7(1+)
 Framework group  C1[X(C20H31N4O7)]
 Deg. of freedom   180
 Full point group                 C1      NOp   1
                          Input orientation:                          
 ---------------------------------------------------------------------
 Center     Atomic      Atomic             Coordinates (Angstroms)
 Number     Number       Type             X           Y           Z
 ---------------------------------------------------------------------
      1          7           0       -0.373032   -2.017673    3.004467
      2          1           0        0.195624   -1.222249    2.602081
      3          1           0       -0.454564   -1.966902    4.030537
      4          1           0        0.103090   -2.881128    2.720820
      5          6           0       -1.753945   -1.974193    2.366657
      6          1           0       -2.251655   -1.116226    2.826193
      7          6           0       -1.379692   -1.741253    0.882813
      8          6           0       -2.534401   -3.267928    2.595068
      9          1           0       -2.122313   -4.037945    1.934467
     10          1           0       -3.562517   -3.080019    2.267075
     11          8           0       -0.816738   -2.652805    0.297529
     12          6           0       -2.546661   -3.801568    4.046747
     13          1           0       -1.562996   -4.197184    4.323098
     14          1           0       -3.264403   -4.621726    4.111505
     15          6           0       -2.958910   -2.749535    5.055119
     16          8           0       -4.063913   -2.545274    5.477788
     17          8           0       -1.875465   -1.974195    5.419956
     18          7           0       -1.583202   -0.474661    0.417963
     19          1           0       -2.051388    0.144780    1.069210
     20          6           0       -0.586508    0.222543   -0.404209
     21          1           0       -1.046686    1.169911   -0.702026
     22          6           0        0.632855    0.539642    0.502504
     23          6           0       -0.180618   -0.528907   -1.708033
     24          1           0        0.219723   -1.509181   -1.448828
     25          1           0       -1.102643   -0.692258   -2.277531
     26          8           0        0.921533   -0.160071    1.491805
     27          6           0        0.830036    0.288683   -2.475581
     28          6           0        0.451002    1.481906   -3.111717
     29          1           0       -0.605274    1.728553   -3.206346
     30          6           0        2.195801   -0.010659   -2.398483
     31          1           0        2.513859   -0.932787   -1.916694
     32          6           0        1.400822    2.375063   -3.597765
     33          1           0        1.110893    3.305968   -4.074420
     34          6           0        3.160322    0.868356   -2.886173
     35          1           0        4.216588    0.625231   -2.812877
     36          8           0        3.650965    3.017057   -3.883651
     37          6           0        2.771880    2.091139   -3.462474
     38          7           0        1.372111    1.600534    0.157688
     39          1           0        1.171885    2.072459   -0.716940
     40          6           0        2.635264    1.894923    0.822347
     41          1           0        3.232141    0.975591    0.846082
     42          6           0        2.361036    2.299819    2.272811
     43          6           0        3.426371    3.001579    0.075554
     44          1           0        3.127080    2.992030   -0.977491
     45          1           0        3.150351    3.986120    0.473692
     46          8           0        1.290776    2.627761    2.726120
     47          6           0        4.943618    2.783049    0.173659
     48          1           0        5.201433    1.891494   -0.414625
     49          1           0        5.205786    2.556848    1.212569
     50          6           0        5.789587    3.984128   -0.275809
     51          1           0        5.526651    4.855998    0.337707
     52          1           0        6.844389    3.767055   -0.055259
     53          6           0        5.677350    4.397758   -1.746505
     54          1           0        4.650557    4.695529   -1.989665
     55          1           0        6.310944    5.280940   -1.900080
     56          7           0        6.051626    3.302092   -2.679703
     57          1           0        6.515471    3.693294   -3.498968
     58          1           0        4.559073    2.865244   -3.482912
     59          1           0        6.733401    2.680536   -2.246494
     60          8           0        3.505307    2.272049    2.991727
     61          1           0       -2.191676   -1.316384    6.070118
     62          1           0        3.289843    2.595131    3.887391
 ---------------------------------------------------------------------
 Rotational constants (GHZ):           0.2692593           0.0682464           0.0579724
 Standard basis: 6-31G(d) (6D, 7F)
   527 basis functions,   992 primitive gaussians,   527 cartesian basis functions
   117 alpha electrons      117 beta electrons
       nuclear repulsion energy      3303.1831003433 Hartrees.
 NAtoms=   62 NActive=   62 NUniq=   62 SFac= 1.00D+00 NAtFMM=   60 NAOKFM=T Big=T
 Integral buffers will be    131072 words long.
 Raffenetti 2 integral format.
 Two-electron integral symmetry is turned off.
 Nuclear repulsion after empirical dispersion term =     3303.0989696688 Hartrees.
 One-electron integrals computed using PRISM.
 NBasis=   527 RedAO= T EigKep=  4.36D-04  NBF=   527
 NBsUse=   527 1.00D-06 EigRej= -1.00D+00 NBFU=   527
 Initial guess from the checkpoint file:  "conf-981.chk"
 B after Tr=     0.000000    0.000000    0.000000
         Rot=    1.000000    0.000000    0.000000    0.000000 Ang=   0.00 deg.
 Requested convergence on RMS density matrix=1.00D-08 within 128 cycles.
 Requested convergence on MAX density matrix=1.00D-06.
 Requested convergence on             energy=1.00D-06.
 No special actions if energy rises.
 SCF Done:  E(RB3LYP) =  -1526.29953518     A.U. after    3 cycles
            NFock=  3  Conv=0.79D-09     -V/T= 2.0093

 **********************************************************************

            Population analysis using the SCF Density.

 **********************************************************************

 Alpha  occ. eigenvalues --  -19.33138 -19.29561 -19.26731 -19.25709 -19.25303
 Alpha  occ. eigenvalues --  -19.23726 -19.22743 -14.57946 -14.49493 -14.48028
 Alpha  occ. eigenvalues --  -14.42557 -10.44839 -10.43051 -10.41912 -10.41474
 Alpha  occ. eigenvalues --  -10.39988 -10.36119 -10.34511 -10.33946 -10.33501
 Alpha  occ. eigenvalues --  -10.32700 -10.29835 -10.29253 -10.29174 -10.27694
 Alpha  occ. eigenvalues --  -10.27643 -10.27587 -10.27576 -10.27431 -10.26836
 Alpha  occ. eigenvalues --  -10.26636  -1.23100  -1.20421  -1.18292  -1.16280
 Alpha  occ. eigenvalues --   -1.14560  -1.12651  -1.11581  -1.11459  -1.06107
 Alpha  occ. eigenvalues --   -1.04719  -0.98227  -0.94671  -0.94021  -0.91041
 Alpha  occ. eigenvalues --   -0.89227  -0.86973  -0.85262  -0.83048  -0.82234
 Alpha  occ. eigenvalues --   -0.79036  -0.78601  -0.76091  -0.74522  -0.73914
 Alpha  occ. eigenvalues --   -0.72742  -0.72214  -0.70913  -0.70231  -0.69587
 Alpha  occ. eigenvalues --   -0.68900  -0.67082  -0.66067  -0.65401  -0.63847
 Alpha  occ. eigenvalues --   -0.62987  -0.62023  -0.61180  -0.60995  -0.60631
 Alpha  occ. eigenvalues --   -0.59971  -0.59149  -0.58661  -0.57779  -0.57441
 Alpha  occ. eigenvalues --   -0.56635  -0.56226  -0.55872  -0.55397  -0.54739
 Alpha  occ. eigenvalues --   -0.54495  -0.54043  -0.53612  -0.53394  -0.53202
 Alpha  occ. eigenvalues --   -0.52417  -0.52265  -0.51477  -0.50368  -0.50073
 Alpha  occ. eigenvalues --   -0.50021  -0.49844  -0.49053  -0.48886  -0.48369
 Alpha  occ. eigenvalues --   -0.47938  -0.47714  -0.46419  -0.45925  -0.45342
 Alpha  occ. eigenvalues --   -0.44974  -0.43678  -0.43198  -0.42547  -0.42108
 Alpha  occ. eigenvalues --   -0.41370  -0.41292  -0.40696  -0.40227  -0.39978
 Alpha  occ. eigenvalues --   -0.39002  -0.38418  -0.37780  -0.36919  -0.34715
 Alpha  occ. eigenvalues --   -0.33741  -0.29433
 Alpha virt. eigenvalues --   -0.13713  -0.12125  -0.10449  -0.09012  -0.08629
 Alpha virt. eigenvalues --   -0.08043  -0.07609  -0.06012  -0.04760  -0.02412
 Alpha virt. eigenvalues --   -0.01561  -0.01023  -0.00686   0.00285   0.00493
 Alpha virt. eigenvalues --    0.00719   0.01272   0.01946   0.02405   0.02817
 Alpha virt. eigenvalues --    0.03438   0.03779   0.03988   0.04463   0.04664
 Alpha virt. eigenvalues --    0.05016   0.05239   0.05540   0.06438   0.06620
 Alpha virt. eigenvalues --    0.07095   0.07581   0.08035   0.08433   0.08901
 Alpha virt. eigenvalues --    0.09232   0.09650   0.10464   0.10979   0.11143
 Alpha virt. eigenvalues --    0.11857   0.11943   0.12141   0.12805   0.13384
 Alpha virt. eigenvalues --    0.13860   0.14638   0.15160   0.15340   0.16142
 Alpha virt. eigenvalues --    0.16876   0.17206   0.18357   0.19009   0.20156
 Alpha virt. eigenvalues --    0.20696   0.21506   0.22154   0.22731   0.23827
 Alpha virt. eigenvalues --    0.25396   0.25990   0.27225   0.27883   0.28939
 Alpha virt. eigenvalues --    0.29774   0.31470   0.35675   0.37624   0.37974
 Alpha virt. eigenvalues --    0.38600   0.39347   0.39741   0.40469   0.40880
 Alpha virt. eigenvalues --    0.41816   0.42918   0.43457   0.44034   0.44659
 Alpha virt. eigenvalues --    0.44882   0.45160   0.46084   0.46168   0.46566
 Alpha virt. eigenvalues --    0.46916   0.47426   0.47978   0.48125   0.49287
 Alpha virt. eigenvalues --    0.49677   0.50927   0.51708   0.52257   0.52771
 Alpha virt. eigenvalues --    0.53030   0.53433   0.53894   0.54014   0.54575
 Alpha virt. eigenvalues --    0.54898   0.55606   0.55869   0.56260   0.56677
 Alpha virt. eigenvalues --    0.57573   0.58015   0.58188   0.59023   0.60204
 Alpha virt. eigenvalues --    0.61001   0.61305   0.61699   0.62393   0.63373
 Alpha virt. eigenvalues --    0.64264   0.64542   0.66101   0.66459   0.66857
 Alpha virt. eigenvalues --    0.67276   0.68486   0.68752   0.68983   0.69072
 Alpha virt. eigenvalues --    0.69787   0.70678   0.70702   0.71782   0.72192
 Alpha virt. eigenvalues --    0.72616   0.73185   0.73781   0.73950   0.74540
 Alpha virt. eigenvalues --    0.74801   0.74832   0.75321   0.76395   0.76822
 Alpha virt. eigenvalues --    0.76928   0.77220   0.77634   0.78130   0.78755
 Alpha virt. eigenvalues --    0.79974   0.80359   0.80577   0.80872   0.81062
 Alpha virt. eigenvalues --    0.81242   0.81731   0.82142   0.82501   0.82683
 Alpha virt. eigenvalues --    0.83252   0.83846   0.84786   0.85561   0.86017
 Alpha virt. eigenvalues --    0.86652   0.87215   0.87542   0.88262   0.89532
 Alpha virt. eigenvalues --    0.89996   0.91095   0.91303   0.91964   0.92786
 Alpha virt. eigenvalues --    0.93647   0.94450   0.94683   0.95577   0.95764
 Alpha virt. eigenvalues --    0.96707   0.97775   0.98469   0.99130   0.99712
 Alpha virt. eigenvalues --    1.00235   1.01215   1.02584   1.03913   1.04657
 Alpha virt. eigenvalues --    1.04880   1.05992   1.07883   1.08191   1.10050
 Alpha virt. eigenvalues --    1.10679   1.11229   1.12215   1.13576   1.15548
 Alpha virt. eigenvalues --    1.16173   1.16577   1.18155   1.19365   1.19823
 Alpha virt. eigenvalues --    1.20102   1.21526   1.22319   1.23033   1.24988
 Alpha virt. eigenvalues --    1.25177   1.26401   1.27664   1.28879   1.29569
 Alpha virt. eigenvalues --    1.30994   1.32055   1.32267   1.33223   1.34659
 Alpha virt. eigenvalues --    1.35275   1.36692   1.37339   1.38440   1.38729
 Alpha virt. eigenvalues --    1.39349   1.40612   1.42391   1.42631   1.43283
 Alpha virt. eigenvalues --    1.43553   1.44119   1.45209   1.46469   1.48092
 Alpha virt. eigenvalues --    1.49880   1.52350   1.52743   1.53574   1.54224
 Alpha virt. eigenvalues --    1.55994   1.56962   1.57876   1.58550   1.60095
 Alpha virt. eigenvalues --    1.61101   1.62378   1.63087   1.63687   1.64379
 Alpha virt. eigenvalues --    1.65207   1.65674   1.66222   1.66864   1.67246
 Alpha virt. eigenvalues --    1.68550   1.69722   1.69835   1.70286   1.70750
 Alpha virt. eigenvalues --    1.71140   1.71982   1.73265   1.73877   1.74335
 Alpha virt. eigenvalues --    1.75567   1.75977   1.76801   1.77345   1.77819
 Alpha virt. eigenvalues --    1.78862   1.79509   1.80435   1.81619   1.82051
 Alpha virt. eigenvalues --    1.82352   1.83153   1.83782   1.85216   1.85715
 Alpha virt. eigenvalues --    1.86121   1.86698   1.87781   1.88345   1.89152
 Alpha virt. eigenvalues --    1.89901   1.90178   1.90408   1.90827   1.91875
 Alpha virt. eigenvalues --    1.93108   1.94141   1.94588   1.95777   1.96479
 Alpha virt. eigenvalues --    1.96841   1.98212   1.99374   2.00251   2.01718
 Alpha virt. eigenvalues --    2.02018   2.02256   2.04079   2.04988   2.05919
 Alpha virt. eigenvalues --    2.06927   2.07281   2.07677   2.08282   2.09309
 Alpha virt. eigenvalues --    2.11902   2.14367   2.16305   2.17171   2.17542
 Alpha virt. eigenvalues --    2.18784   2.19693   2.21009   2.21462   2.21625
 Alpha virt. eigenvalues --    2.21921   2.22690   2.23138   2.24351   2.25110
 Alpha virt. eigenvalues --    2.26675   2.27727   2.28691   2.31010   2.31476
 Alpha virt. eigenvalues --    2.32284   2.32398   2.33445   2.34535   2.35376
 Alpha virt. eigenvalues --    2.35693   2.36862   2.37354   2.39494   2.42085
 Alpha virt. eigenvalues --    2.42481   2.43948   2.45544   2.45862   2.48833
 Alpha virt. eigenvalues --    2.49203   2.50262   2.50977   2.51755   2.53628
 Alpha virt. eigenvalues --    2.54537   2.55017   2.56879   2.57627   2.58726
 Alpha virt. eigenvalues --    2.58999   2.60210   2.60506   2.61214   2.62973
 Alpha virt. eigenvalues --    2.63986   2.65305   2.67531   2.68376   2.68667
 Alpha virt. eigenvalues --    2.69864   2.71178   2.74990   2.77614   2.78964
 Alpha virt. eigenvalues --    2.80216   2.82099   2.85714   2.86386   2.87824
 Alpha virt. eigenvalues --    2.89058   2.92084   2.94053   2.94758   3.00712
 Alpha virt. eigenvalues --    3.01952   3.04700   3.08284   3.33140   3.70278
 Alpha virt. eigenvalues --    3.73589   3.75434   3.77672   3.86487   3.95155
 Alpha virt. eigenvalues --    3.97017   4.01703   4.04957   4.06653   4.07370
 Alpha virt. eigenvalues --    4.09312   4.12502   4.16742   4.18768   4.23524
 Alpha virt. eigenvalues --    4.23607   4.24533   4.27100   4.27523   4.28747
 Alpha virt. eigenvalues --    4.32251   4.39076   4.39731   4.41664   4.43018
 Alpha virt. eigenvalues --    4.44769   4.54165   4.57260   4.60789   4.69280
          Condensed to atoms (all electrons):
 Mulliken charges:
               1
     1  N   -0.779658
     2  H    0.454481
     3  H    0.426195
     4  H    0.407666
     5  C   -0.108061
     6  H    0.195022
     7  C    0.607886
     8  C   -0.297638
     9  H    0.211744
    10  H    0.207710
    11  O   -0.483137
    12  C   -0.369214
    13  H    0.173724
    14  H    0.226489
    15  C    0.580044
    16  O   -0.401345
    17  O   -0.607499
    18  N   -0.571503
    19  H    0.344458
    20  C   -0.094654
    21  H    0.183798
    22  C    0.659237
    23  C   -0.354272
    24  H    0.201255
    25  H    0.179512
    26  O   -0.593868
    27  C    0.128866
    28  C   -0.217786
    29  H    0.137717
    30  C   -0.182201
    31  H    0.135683
    32  C   -0.170677
    33  H    0.157435
    34  C   -0.201377
    35  H    0.141020
    36  O   -0.686928
    37  C    0.361889
    38  N   -0.591355
    39  H    0.367346
    40  C   -0.009278
    41  H    0.191735
    42  C    0.596921
    43  C   -0.325776
    44  H    0.182254
    45  H    0.166236
    46  O   -0.462431
    47  C   -0.274928
    48  H    0.141700
    49  H    0.173265
    50  C   -0.294960
    51  H    0.156809
    52  H    0.148883
    53  C   -0.131090
    54  H    0.164600
    55  H    0.157250
    56  N   -0.784572
    57  H    0.340023
    58  H    0.464745
    59  H    0.324744
    60  O   -0.562915
    61  H    0.436543
    62  H    0.422235
 Sum of Mulliken charges =   1.00000
 Mulliken charges with hydrogens summed into heavy atoms:
               1
     1  N    0.508683
     5  C    0.086961
     7  C    0.607886
     8  C    0.121816
    11  O   -0.483137
    12  C    0.030999
    15  C    0.580044
    16  O   -0.401345
    17  O   -0.170956
    18  N   -0.227044
    20  C    0.089144
    22  C    0.659237
    23  C    0.026495
    26  O   -0.593868
    27  C    0.128866
    28  C   -0.080069
    30  C   -0.046518
    32  C   -0.013242
    34  C   -0.060357
    36  O   -0.222182
    37  C    0.361889
    38  N   -0.224008
    40  C    0.182457
    42  C    0.596921
    43  C    0.022714
    46  O   -0.462431
    47  C    0.040038
    50  C    0.010733
    53  C    0.190761
    56  N   -0.119805
    60  O   -0.140679
 Electronic spatial extent (au):  <R**2>=          19210.4270
 Charge=              1.0000 electrons
 Dipole moment (field-independent basis, Debye):
    X=              5.3067    Y=             -0.3741    Z=              9.5415  Tot=             10.9243
 Quadrupole moment (field-independent basis, Debye-Ang):
   XX=           -115.6510   YY=           -140.9574   ZZ=           -135.4050
   XY=             36.6938   XZ=            -12.8095   YZ=            -28.1087
 Traceless Quadrupole moment (field-independent basis, Debye-Ang):
   XX=             15.0201   YY=            -10.2863   ZZ=             -4.7338
   XY=             36.6938   XZ=            -12.8095   YZ=            -28.1087
 Octapole moment (field-independent basis, Debye-Ang**2):
  XXX=           -190.5807  YYY=           -288.2354  ZZZ=             49.1554  XYY=           -109.9417
  XXY=            107.2459  XXZ=           -184.2613  XZZ=           -163.5764  YZZ=           -143.5606
  YYZ=             -0.6753  XYZ=            -12.1196
 Hexadecapole moment (field-independent basis, Debye-Ang**3):
 XXXX=          -7347.7316 YYYY=          -5797.2852 ZZZZ=          -7186.7782 XXXY=          -2181.9885
 XXXZ=           1521.4264 YYYX=          -2801.2234 YYYZ=           1484.5026 ZZZX=           2280.3684
 ZZZY=           1800.4615 XXYY=          -1849.6441 XXZZ=          -2794.6466 YYZZ=          -2098.4323
 XXYZ=            373.7761 YYXZ=            510.0327 ZZXY=           -986.3854
 N-N= 3.303098969669D+03 E-N=-1.014001843887D+04  KE= 1.512247492518D+03
 Unable to Open any file for archive entry.
 1\1\GINC-AMR-095\SP\RB3LYP\6-31G(d)\C20H31N4O7(1+)\KENGMITH\01-Jun-202
 2\0\\# B3LYP/6-31G* empiricaldispersion=gd3 guess=read geom=check nosy
 mm integral(ultrafinegrid)\\Candidate Structure: Conf:981 Charge calc 
 in gas phase\\1,1\N,0,-0.3730319844,-2.0176725062,3.0044672626\H,0,0.1
 956240533,-1.2222485168,2.6020812626\H,0,-0.4545641149,-1.9669024954,4
 .0305366704\H,0,0.103089687,-2.8811280742,2.7208197542\C,0,-1.75394475
 23,-1.9741926618,2.3666569223\H,0,-2.2516549427,-1.1162258557,2.826192
 7745\C,0,-1.3796920162,-1.7412534258,0.8828132194\C,0,-2.5344012057,-3
 .2679277826,2.5950680067\H,0,-2.1223133242,-4.0379454954,1.9344672143\
 H,0,-3.5625165765,-3.0800186028,2.2670746499\O,0,-0.8167376923,-2.6528
 046109,0.2975293663\C,0,-2.5466610307,-3.801568335,4.0467467598\H,0,-1
 .5629956496,-4.1971842921,4.3230978809\H,0,-3.2644032954,-4.6217255589
 ,4.1115049376\C,0,-2.9589104312,-2.7495347589,5.0551188831\O,0,-4.0639
 133477,-2.5452737684,5.4777880135\O,0,-1.8754648941,-1.9741945162,5.41
 99559175\N,0,-1.583201824,-0.4746610301,0.4179633539\H,0,-2.0513875537
 ,0.1447800942,1.069209831\C,0,-0.5865076309,0.2225432939,-0.4042090219
 \H,0,-1.0466855692,1.1699108859,-0.7020264452\C,0,0.6328554789,0.53964
 23688,0.5025041313\C,0,-0.1806182296,-0.5289067948,-1.7080329765\H,0,0
 .2197233239,-1.5091807418,-1.4488280847\H,0,-1.1026434581,-0.692258009
 3,-2.2775308436\O,0,0.9215329741,-0.1600707942,1.4918046203\C,0,0.8300
 359504,0.288683044,-2.4755805084\C,0,0.4510017964,1.4819061159,-3.1117
 169016\H,0,-0.6052741474,1.7285526326,-3.2063458221\C,0,2.1958013718,-
 0.0106589635,-2.3984833591\H,0,2.5138592515,-0.9327869422,-1.916693958
 9\C,0,1.4008215364,2.3750629674,-3.597764575\H,0,1.1108927757,3.305968
 2375,-4.0744202727\C,0,3.1603222406,0.8683555769,-2.8861729323\H,0,4.2
 165879866,0.6252305038,-2.8128771932\O,0,3.6509647341,3.0170566106,-3.
 8836514277\C,0,2.771879944,2.091138583,-3.4624735625\N,0,1.3721105101,
 1.6005339759,0.1576882401\H,0,1.171884843,2.0724585606,-0.7169403338\C
 ,0,2.6352639724,1.8949230697,0.822347202\H,0,3.2321413331,0.9755910352
 ,0.8460816707\C,0,2.3610355966,2.2998192188,2.2728109261\C,0,3.4263705
 537,3.0015791394,0.0755544908\H,0,3.1270804448,2.9920302684,-0.9774913
 093\H,0,3.1503508078,3.9861197296,0.4736918446\O,0,1.2907758613,2.6277
 612773,2.7261196464\C,0,4.943617524,2.7830492242,0.1736587746\H,0,5.20
 14330889,1.8914943437,-0.4146245318\H,0,5.2057859923,2.5568483145,1.21
 25686509\C,0,5.7895865138,3.984128139,-0.2758090064\H,0,5.5266505583,4
 .8559980779,0.337706848\H,0,6.8443891689,3.7670554953,-0.0552590011\C,
 0,5.6773500559,4.39775845,-1.746505421\H,0,4.6505573261,4.6955293339,-
 1.9896646325\H,0,6.3109437255,5.2809400737,-1.9000795955\N,0,6.0516259
 596,3.3020915801,-2.6797025602\H,0,6.5154713053,3.6932938117,-3.498968
 4402\H,0,4.5590730968,2.8652440152,-3.4829124079\H,0,6.7334014356,2.68
 05358084,-2.2464939406\O,0,3.5053065532,2.2720489939,2.9917272876\H,0,
 -2.1916761514,-1.316383532,6.0701180633\H,0,3.2898433898,2.595130614,3
 .8873913286\\Version=ES64L-G16RevC.01\HF=-1526.2995352\RMSD=7.863e-10\
 Dipole=0.0063238,-1.1023799,2.8707787\Quadrupole=11.1670867,-7.6475989
 ,-3.5194879,27.2809264,-9.5235375,-20.898128\PG=C01 [X(C20H31N4O7)]\\@
 The archive entry for this job was punched.


       THE DEATH-KNELL OF THE ATOM

 SO THE ATOMS IN TURN, WE NOW CLEARLY DISCERN,
 FLY TO BITS WITH THE UTMOST FACILITY;
 THEY WEND ON THEIR WAY, AND, IN SPLITTING, DISPLAY
 AN ABSOLUTE LACK OF STABILITY.

          SIR WM. RAMSAY, 1905
 Job cpu time:       0 days  0 hours  2 minutes 30.1 seconds.
 Elapsed time:       0 days  0 hours  0 minutes 38.3 seconds.
 File lengths (MBytes):  RWF=    264 Int=      0 D2E=      0 Chk=     40 Scr=     16
 Normal termination of Gaussian 16 at Wed Jun  1 23:44:25 2022.
