 Entering Gaussian System, Link 0=/opt/software/Gaussian/g16-AVX2-C.01/g16/g16
 Input=charge-conf-720.com
 Output=charge-conf-720.log
 Initial command:
 /opt/software/Gaussian/g16-AVX2-C.01/g16/l1.exe "/mnt/gs18/scratch/users/kengmith/Gau-11636.inp" -scrdir="/mnt/gs18/scratch/users/kengmith/"
 Entering Link 1 = /opt/software/Gaussian/g16-AVX2-C.01/g16/l1.exe PID=     11647.
  
 Copyright (c) 1988-2019, Gaussian, Inc.  All Rights Reserved.
  
 This is part of the Gaussian(R) 16 program.  It is based on
 the Gaussian(R) 09 system (copyright 2009, Gaussian, Inc.),
 the Gaussian(R) 03 system (copyright 2003, Gaussian, Inc.),
 the Gaussian(R) 98 system (copyright 1998, Gaussian, Inc.),
 the Gaussian(R) 94 system (copyright 1995, Gaussian, Inc.),
 the Gaussian 92(TM) system (copyright 1992, Gaussian, Inc.),
 the Gaussian 90(TM) system (copyright 1990, Gaussian, Inc.),
 the Gaussian 88(TM) system (copyright 1988, Gaussian, Inc.),
 the Gaussian 86(TM) system (copyright 1986, Carnegie Mellon
 University), and the Gaussian 82(TM) system (copyright 1983,
 Carnegie Mellon University). Gaussian is a federally registered
 trademark of Gaussian, Inc.
  
 This software contains proprietary and confidential information,
 including trade secrets, belonging to Gaussian, Inc.
  
 This software is provided under written license and may be
 used, copied, transmitted, or stored only in accord with that
 written license.
  
 The following legend is applicable only to US Government
 contracts under FAR:
  
                    RESTRICTED RIGHTS LEGEND
  
 Use, reproduction and disclosure by the US Government is
 subject to restrictions as set forth in subparagraphs (a)
 and (c) of the Commercial Computer Software - Restricted
 Rights clause in FAR 52.227-19.
  
 Gaussian, Inc.
 340 Quinnipiac St., Bldg. 40, Wallingford CT 06492
  
  
 ---------------------------------------------------------------
 Warning -- This program may not be used in any manner that
 competes with the business of Gaussian, Inc. or will provide
 assistance to any competitor of Gaussian, Inc.  The licensee
 of this program is prohibited from giving any competitor of
 Gaussian, Inc. access to this program.  By using this program,
 the user acknowledges that Gaussian, Inc. is engaged in the
 business of creating and licensing software in the field of
 computational chemistry and represents and warrants to the
 licensee that it is not a competitor of Gaussian, Inc. and that
 it will not use this program in any manner prohibited above.
 ---------------------------------------------------------------
  

 Cite this work as:
 Gaussian 16, Revision C.01,
 M. J. Frisch, G. W. Trucks, H. B. Schlegel, G. E. Scuseria, 
 M. A. Robb, J. R. Cheeseman, G. Scalmani, V. Barone, 
 G. A. Petersson, H. Nakatsuji, X. Li, M. Caricato, A. V. Marenich, 
 J. Bloino, B. G. Janesko, R. Gomperts, B. Mennucci, H. P. Hratchian, 
 J. V. Ortiz, A. F. Izmaylov, J. L. Sonnenberg, D. Williams-Young, 
 F. Ding, F. Lipparini, F. Egidi, J. Goings, B. Peng, A. Petrone, 
 T. Henderson, D. Ranasinghe, V. G. Zakrzewski, J. Gao, N. Rega, 
 G. Zheng, W. Liang, M. Hada, M. Ehara, K. Toyota, R. Fukuda, 
 J. Hasegawa, M. Ishida, T. Nakajima, Y. Honda, O. Kitao, H. Nakai, 
 T. Vreven, K. Throssell, J. A. Montgomery, Jr., J. E. Peralta, 
 F. Ogliaro, M. J. Bearpark, J. J. Heyd, E. N. Brothers, K. N. Kudin, 
 V. N. Staroverov, T. A. Keith, R. Kobayashi, J. Normand, 
 K. Raghavachari, A. P. Rendell, J. C. Burant, S. S. Iyengar, 
 J. Tomasi, M. Cossi, J. M. Millam, M. Klene, C. Adamo, R. Cammi, 
 J. W. Ochterski, R. L. Martin, K. Morokuma, O. Farkas, 
 J. B. Foresman, and D. J. Fox, Gaussian, Inc., Wallingford CT, 2019.
 
 ******************************************
 Gaussian 16:  ES64L-G16RevC.01  3-Jul-2019
                 1-Jun-2022 
 ******************************************
 %mem=8gb
 %nproc=4
 Will use up to    4 processors via shared memory.
 %chk=conf-720.chk
 ----------------------------------------------------------------------
 # B3LYP/6-31G* empiricaldispersion=gd3 guess=read geom=check nosymm in
 tegral(ultrafinegrid)
 ----------------------------------------------------------------------
 1/29=2,38=1,172=1/1;
 2/12=2,15=1,40=1/2;
 3/5=1,6=6,7=1,11=2,14=-4,25=1,30=1,74=-5,75=-5,116=-2,124=31/1,2,3;
 4/5=1/1;
 5/5=2,38=6/2;
 6/7=2,8=2,9=2,10=2,28=1/1;
 99/5=1,9=1/99;
 ------------------------------------------------------
 Candidate Structure: Conf:720 Charge calc in gas phase
 ------------------------------------------------------
 Structure from the checkpoint file:  "conf-720.chk"
 Charge =  1 Multiplicity = 1
 Redundant internal coordinates found in file.  (old form).
 N,0,0.7893376048,-3.7493135546,0.4447756173
 H,0,1.274526458,-4.5057865051,0.9194413863
 H,0,-0.6344812938,-4.3916407991,-0.295929563
 H,0,1.4242365207,-3.3487667134,-0.235406793
 C,0,0.407212111,-2.70549415,1.4041650176
 H,0,1.0954891127,-2.6747369726,2.2587098996
 C,0,0.5158555498,-1.3262637081,0.7204177682
 C,0,-1.0443055248,-2.8935131434,1.938622694
 H,0,-1.7170504391,-2.1809712577,1.4397671091
 H,0,-1.0380597189,-2.6310824116,3.0029586329
 O,0,1.0207568288,-1.2050138069,-0.4108430908
 C,0,-1.7098051633,-4.2812447853,1.8092304533
 H,0,-2.4759832677,-4.3879582385,2.5792986573
 H,0,-0.9854412584,-5.0911152697,1.9623690462
 C,0,-2.3868997089,-4.4777745039,0.4586457874
 O,0,-1.573349318,-4.5513317331,-0.6010238474
 O,0,-3.5889530527,-4.5500594498,0.3343510495
 N,0,0.0246441873,-0.2883614906,1.4121483769
 H,0,-0.2750757863,-0.4206635639,2.3635484268
 C,0,-0.0479092959,1.065085344,0.8990677195
 H,0,-0.5150859759,1.6730341107,1.6816255338
 C,0,1.4224422556,1.5970575852,0.7605304332
 C,0,-0.9216595357,1.2515877053,-0.4055324669
 H,0,-1.3262729387,2.2671735176,-0.3680000333
 H,0,-0.266596279,1.2237452194,-1.2863022258
 O,0,2.3578010986,1.0424793279,1.3250180196
 C,0,-2.0954972828,0.3010792684,-0.5513346331
 C,0,-1.9553441229,-0.9528771389,-1.1717843285
 H,0,-0.9880733248,-1.3034636638,-1.5069987593
 C,0,-3.3727052598,0.6483117852,-0.0861535105
 H,0,-3.5305497791,1.6224999366,0.3719576233
 C,0,-3.0295049953,-1.8311117802,-1.3043564877
 H,0,-2.8798208761,-2.8005212854,-1.7680397463
 C,0,-4.4567521423,-0.2258271783,-0.1947129784
 H,0,-5.4374640289,0.0458589668,0.1815860479
 O,0,-5.3292801202,-2.3364764007,-0.8669359121
 C,0,-4.2892155145,-1.4852727302,-0.7897351319
 N,0,1.5742063958,2.6921824572,-0.0115743035
 H,0,0.7919598402,3.1991305766,-0.3985112183
 C,0,2.8652094279,3.3416809936,-0.134306041
 H,0,3.3238909118,3.4486901719,0.8545538257
 C,0,2.6088668287,4.7210387274,-0.7193739343
 C,0,3.8727292007,2.5576709351,-1.0269572315
 H,0,4.7377753655,3.2092239493,-1.1749358175
 H,0,4.2081125416,1.6923589405,-0.4467130066
 O,0,1.5642353756,5.0697367102,-1.2282604406
 C,0,3.3366973015,2.0963250325,-2.3975859569
 H,0,4.1627294155,2.0492177904,-3.1141409247
 H,0,2.6425873668,2.8640962042,-2.7791876909
 C,0,2.6076458228,0.7423312228,-2.3473719179
 H,0,3.326621208,-0.0438933903,-2.0826396108
 H,0,1.8844584102,0.7532606526,-1.5425065616
 C,0,1.8923952502,0.3465682714,-3.6314865361
 H,0,1.3156682323,1.1783694276,-4.0471174242
 H,0,2.5723485212,-0.0186767757,-4.4042005839
 N,0,0.9052630852,-0.7659732915,-3.3019943849
 H,0,0.6644379252,-1.3535586317,-4.1031473697
 H,0,0.0428944652,-0.3691421178,-2.8853474896
 H,0,1.2415232208,-1.3465510762,-2.5229285697
 O,0,3.7032610243,5.4935863854,-0.6379131089
 H,0,-4.9213328493,-3.2970975438,-0.9250303114
 H,0,3.4906288991,6.3509570461,-1.0529784632
 Recover connectivity data from disk.
                           ----------------------------
                           !    Current Parameters    !
                           ! (Angstroms and Degrees)  !
 --------------------------                            --------------------------
 ! Name  Definition              Value                                          !
 --------------------------------------------------------------------------------
 ! R1    R(1,2)                  1.0163                                         !
 ! R2    R(1,3)                  1.7287                                         !
 ! R3    R(1,4)                  1.013                                          !
 ! R4    R(1,5)                  1.4683                                         !
 ! R5    R(5,6)                  1.0977                                         !
 ! R6    R(5,7)                  1.5432                                         !
 ! R7    R(5,8)                  1.5582                                         !
 ! R8    R(7,11)                 1.2447                                         !
 ! R9    R(7,18)                 1.3405                                         !
 ! R10   R(8,9)                  1.0996                                         !
 ! R11   R(8,10)                 1.0962                                         !
 ! R12   R(8,12)                 1.5445                                         !
 ! R13   R(12,13)                1.0915                                         !
 ! R14   R(12,14)                1.0973                                         !
 ! R15   R(12,15)                1.5235                                         !
 ! R16   R(15,16)                1.338                                          !
 ! R17   R(15,17)                1.2106                                         !
 ! R18   R(17,61)                2.2206                                         !
 ! R19   R(18,19)                1.0062                                         !
 ! R20   R(18,20)                1.4493                                         !
 ! R21   R(20,21)                1.0956                                         !
 ! R22   R(20,22)                1.5698                                         !
 ! R23   R(20,23)                1.5812                                         !
 ! R24   R(22,26)                1.2252                                         !
 ! R25   R(22,38)                1.3485                                         !
 ! R26   R(23,24)                1.0939                                         !
 ! R27   R(23,25)                1.098                                          !
 ! R28   R(23,27)                1.5174                                         !
 ! R29   R(27,28)                1.4061                                         !
 ! R30   R(27,30)                1.4029                                         !
 ! R31   R(28,29)                1.0821                                         !
 ! R32   R(28,32)                1.3938                                         !
 ! R33   R(30,31)                1.088                                          !
 ! R34   R(30,34)                1.3968                                         !
 ! R35   R(32,33)                1.085                                          !
 ! R36   R(32,37)                1.404                                          !
 ! R37   R(34,35)                1.085                                          !
 ! R38   R(34,37)                1.403                                          !
 ! R39   R(36,37)                1.3462                                         !
 ! R40   R(38,39)                1.0093                                         !
 ! R41   R(38,40)                1.4504                                         !
 ! R42   R(40,41)                1.0953                                         !
 ! R43   R(40,42)                1.5201                                         !
 ! R44   R(40,43)                1.5578                                         !
 ! R45   R(42,46)                1.2132                                         !
 ! R46   R(42,60)                1.3421                                         !
 ! R47   R(43,44)                1.093                                          !
 ! R48   R(43,45)                1.0945                                         !
 ! R49   R(43,47)                1.5423                                         !
 ! R50   R(47,48)                1.0945                                         !
 ! R51   R(47,49)                1.1031                                         !
 ! R52   R(47,50)                1.5386                                         !
 ! R53   R(50,51)                1.0978                                         !
 ! R54   R(50,52)                1.0821                                         !
 ! R55   R(50,53)                1.5222                                         !
 ! R56   R(53,54)                1.0942                                         !
 ! R57   R(53,55)                1.0922                                         !
 ! R58   R(53,56)                1.5234                                         !
 ! R59   R(56,57)                1.0223                                         !
 ! R60   R(56,58)                1.0367                                         !
 ! R61   R(56,59)                1.0281                                         !
 ! R62   R(60,62)                0.976                                          !
 ! A1    A(2,1,3)              108.4658                                         !
 ! A2    A(2,1,4)              107.9802                                         !
 ! A3    A(2,1,5)              110.3773                                         !
 ! A4    A(3,1,4)              112.0506                                         !
 ! A5    A(3,1,5)              109.2536                                         !
 ! A6    A(4,1,5)              108.7074                                         !
 ! A7    A(1,5,6)              111.4321                                         !
 ! A8    A(1,5,7)              109.1187                                         !
 ! A9    A(1,5,8)              112.381                                          !
 ! A10   A(6,5,7)              106.0058                                         !
 ! A11   A(6,5,8)              108.6908                                         !
 ! A12   A(7,5,8)              108.9894                                         !
 ! A13   A(5,7,11)             121.217                                          !
 ! A14   A(5,7,18)             115.9472                                         !
 ! A15   A(11,7,18)            122.8325                                         !
 ! A16   A(5,8,9)              109.6409                                         !
 ! A17   A(5,8,10)             107.3873                                         !
 ! A18   A(5,8,12)             118.7559                                         !
 ! A19   A(9,8,10)             106.7876                                         !
 ! A20   A(9,8,12)             106.2961                                         !
 ! A21   A(10,8,12)            107.3911                                         !
 ! A22   A(8,12,13)            109.3413                                         !
 ! A23   A(8,12,14)            111.5319                                         !
 ! A24   A(8,12,15)            112.437                                          !
 ! A25   A(13,12,14)           107.0231                                         !
 ! A26   A(13,12,15)           107.5083                                         !
 ! A27   A(14,12,15)           108.7774                                         !
 ! A28   A(12,15,16)           116.0369                                         !
 ! A29   A(12,15,17)           122.6833                                         !
 ! A30   A(16,15,17)           121.275                                          !
 ! A31   A(15,17,61)           128.3374                                         !
 ! A32   A(7,18,19)            119.6857                                         !
 ! A33   A(7,18,20)            123.9676                                         !
 ! A34   A(19,18,20)           116.2711                                         !
 ! A35   A(18,20,21)           106.6605                                         !
 ! A36   A(18,20,22)           107.508                                          !
 ! A37   A(18,20,23)           115.4622                                         !
 ! A38   A(21,20,22)           105.9267                                         !
 ! A39   A(21,20,23)           106.7535                                         !
 ! A40   A(22,20,23)           113.879                                          !
 ! A41   A(20,22,26)           121.4018                                         !
 ! A42   A(20,22,38)           115.5411                                         !
 ! A43   A(26,22,38)           123.057                                          !
 ! A44   A(20,23,24)           106.5946                                         !
 ! A45   A(20,23,25)           109.2183                                         !
 ! A46   A(20,23,27)           115.6489                                         !
 ! A47   A(24,23,25)           105.7678                                         !
 ! A48   A(24,23,27)           107.3811                                         !
 ! A49   A(25,23,27)           111.6258                                         !
 ! A50   A(23,27,28)           121.5956                                         !
 ! A51   A(23,27,30)           121.1545                                         !
 ! A52   A(28,27,30)           117.2446                                         !
 ! A53   A(27,28,29)           120.9805                                         !
 ! A54   A(27,28,32)           121.809                                          !
 ! A55   A(29,28,32)           117.0834                                         !
 ! A56   A(27,30,31)           119.5569                                         !
 ! A57   A(27,30,34)           121.7274                                         !
 ! A58   A(31,30,34)           118.7157                                         !
 ! A59   A(28,32,33)           119.8224                                         !
 ! A60   A(28,32,37)           120.0915                                         !
 ! A61   A(33,32,37)           120.0335                                         !
 ! A62   A(30,34,35)           121.1873                                         !
 ! A63   A(30,34,37)           120.1376                                         !
 ! A64   A(35,34,37)           118.6735                                         !
 ! A65   A(32,37,34)           118.9281                                         !
 ! A66   A(32,37,36)           121.0919                                         !
 ! A67   A(34,37,36)           119.9789                                         !
 ! A68   A(22,38,39)           122.6969                                         !
 ! A69   A(22,38,40)           120.8168                                         !
 ! A70   A(39,38,40)           115.6275                                         !
 ! A71   A(38,40,41)           109.8835                                         !
 ! A72   A(38,40,42)           106.7873                                         !
 ! A73   A(38,40,43)           113.5041                                         !
 ! A74   A(41,40,42)           109.2358                                         !
 ! A75   A(41,40,43)           107.1977                                         !
 ! A76   A(42,40,43)           110.195                                          !
 ! A77   A(40,42,46)           124.5742                                         !
 ! A78   A(40,42,60)           111.1905                                         !
 ! A79   A(46,42,60)           124.2057                                         !
 ! A80   A(40,43,44)           106.8243                                         !
 ! A81   A(40,43,45)           106.9958                                         !
 ! A82   A(40,43,47)           115.7856                                         !
 ! A83   A(44,43,45)           107.4898                                         !
 ! A84   A(44,43,47)           109.4539                                         !
 ! A85   A(45,43,47)           109.9461                                         !
 ! A86   A(43,47,48)           109.4127                                         !
 ! A87   A(43,47,49)           108.5367                                         !
 ! A88   A(43,47,50)           113.5099                                         !
 ! A89   A(48,47,49)           106.162                                          !
 ! A90   A(48,47,50)           109.9433                                         !
 ! A91   A(49,47,50)           109.0034                                         !
 ! A92   A(47,50,51)           109.1347                                         !
 ! A93   A(47,50,52)           109.3939                                         !
 ! A94   A(47,50,53)           115.0814                                         !
 ! A95   A(51,50,52)           105.4007                                         !
 ! A96   A(51,50,53)           108.9631                                         !
 ! A97   A(52,50,53)           108.4246                                         !
 ! A98   A(50,53,54)           111.7435                                         !
 ! A99   A(50,53,55)           113.0325                                         !
 ! A100  A(50,53,56)           108.1728                                         !
 ! A101  A(54,53,55)           108.2779                                         !
 ! A102  A(54,53,56)           107.2051                                         !
 ! A103  A(55,53,56)           108.1925                                         !
 ! A104  A(53,56,57)           113.7596                                         !
 ! A105  A(53,56,58)           110.2669                                         !
 ! A106  A(53,56,59)           111.3679                                         !
 ! A107  A(57,56,58)           109.8166                                         !
 ! A108  A(57,56,59)           110.2614                                         !
 ! A109  A(58,56,59)           100.5839                                         !
 ! A110  A(42,60,62)           107.59                                           !
 ! D1    D(2,1,5,6)             28.1633                                         !
 ! D2    D(2,1,5,7)            144.8803                                         !
 ! D3    D(2,1,5,8)            -94.1096                                         !
 ! D4    D(3,1,5,6)            147.349                                          !
 ! D5    D(3,1,5,7)            -95.934                                          !
 ! D6    D(3,1,5,8)             25.0761                                         !
 ! D7    D(4,1,5,6)            -90.0948                                         !
 ! D8    D(4,1,5,7)             26.6222                                         !
 ! D9    D(4,1,5,8)            147.6322                                         !
 ! D10   D(1,5,7,11)            -8.1469                                         !
 ! D11   D(1,5,7,18)           171.2061                                         !
 ! D12   D(6,5,7,11)           111.9698                                         !
 ! D13   D(6,5,7,18)           -68.6772                                         !
 ! D14   D(8,5,7,11)          -131.204                                          !
 ! D15   D(8,5,7,18)            48.149                                          !
 ! D16   D(1,5,8,9)           -102.9703                                         !
 ! D17   D(1,5,8,10)           141.3648                                         !
 ! D18   D(1,5,8,12)            19.4204                                         !
 ! D19   D(6,5,8,9)            133.2175                                         !
 ! D20   D(6,5,8,10)            17.5527                                         !
 ! D21   D(6,5,8,12)          -104.3917                                         !
 ! D22   D(7,5,8,9)             18.1139                                         !
 ! D23   D(7,5,8,10)           -97.551                                          !
 ! D24   D(7,5,8,12)           140.5046                                         !
 ! D25   D(5,7,18,19)            7.7293                                         !
 ! D26   D(5,7,18,20)         -175.5543                                         !
 ! D27   D(11,7,18,19)        -172.9291                                         !
 ! D28   D(11,7,18,20)           3.7872                                         !
 ! D29   D(5,8,12,13)          154.779                                          !
 ! D30   D(5,8,12,14)           36.6125                                         !
 ! D31   D(5,8,12,15)          -85.8877                                         !
 ! D32   D(9,8,12,13)          -81.1735                                         !
 ! D33   D(9,8,12,14)          160.6601                                         !
 ! D34   D(9,8,12,15)           38.1598                                         !
 ! D35   D(10,8,12,13)          32.8364                                         !
 ! D36   D(10,8,12,14)         -85.33                                           !
 ! D37   D(10,8,12,15)         152.1698                                         !
 ! D38   D(8,12,15,16)          67.8007                                         !
 ! D39   D(8,12,15,17)        -111.4105                                         !
 ! D40   D(13,12,15,16)       -171.8025                                         !
 ! D41   D(13,12,15,17)          8.9863                                         !
 ! D42   D(14,12,15,16)        -56.2405                                         !
 ! D43   D(14,12,15,17)        124.5483                                         !
 ! D44   D(12,15,17,61)        123.218                                          !
 ! D45   D(16,15,17,61)        -55.9527                                         !
 ! D46   D(7,18,20,21)         178.6076                                         !
 ! D47   D(7,18,20,22)         -68.1421                                         !
 ! D48   D(7,18,20,23)          60.1991                                         !
 ! D49   D(19,18,20,21)         -4.5736                                         !
 ! D50   D(19,18,20,22)        108.6767                                         !
 ! D51   D(19,18,20,23)       -122.9821                                         !
 ! D52   D(18,20,22,26)        -16.4181                                         !
 ! D53   D(18,20,22,38)        163.6727                                         !
 ! D54   D(21,20,22,26)         97.3256                                         !
 ! D55   D(21,20,22,38)        -82.5837                                         !
 ! D56   D(23,20,22,26)       -145.6639                                         !
 ! D57   D(23,20,22,38)         34.4268                                         !
 ! D58   D(18,20,23,24)        150.174                                          !
 ! D59   D(18,20,23,25)        -95.9869                                         !
 ! D60   D(18,20,23,27)         30.9073                                         !
 ! D61   D(21,20,23,24)         31.8172                                         !
 ! D62   D(21,20,23,25)        145.6563                                         !
 ! D63   D(21,20,23,27)        -87.4495                                         !
 ! D64   D(22,20,23,24)        -84.7128                                         !
 ! D65   D(22,20,23,25)         29.1263                                         !
 ! D66   D(22,20,23,27)        156.0205                                         !
 ! D67   D(20,22,38,39)          6.2167                                         !
 ! D68   D(20,22,38,40)        175.1394                                         !
 ! D69   D(26,22,38,39)       -173.6909                                         !
 ! D70   D(26,22,38,40)         -4.7683                                         !
 ! D71   D(20,23,27,28)        -88.2853                                         !
 ! D72   D(20,23,27,30)         92.5816                                         !
 ! D73   D(24,23,27,28)        152.8806                                         !
 ! D74   D(24,23,27,30)        -26.2525                                         !
 ! D75   D(25,23,27,28)         37.3878                                         !
 ! D76   D(25,23,27,30)       -141.7453                                         !
 ! D77   D(23,27,28,29)          4.0141                                         !
 ! D78   D(23,27,28,32)        179.7955                                         !
 ! D79   D(30,27,28,29)       -176.8203                                         !
 ! D80   D(30,27,28,32)         -1.0389                                         !
 ! D81   D(23,27,30,31)          1.0733                                         !
 ! D82   D(23,27,30,34)       -178.951                                          !
 ! D83   D(28,27,30,31)       -178.0962                                         !
 ! D84   D(28,27,30,34)          1.8795                                         !
 ! D85   D(27,28,32,33)       -178.5695                                         !
 ! D86   D(27,28,32,37)         -1.2064                                         !
 ! D87   D(29,28,32,33)         -2.6315                                         !
 ! D88   D(29,28,32,37)        174.7317                                         !
 ! D89   D(27,30,34,35)        179.0641                                         !
 ! D90   D(27,30,34,37)         -0.4744                                         !
 ! D91   D(31,30,34,35)         -0.96                                           !
 ! D92   D(31,30,34,37)        179.5015                                         !
 ! D93   D(28,32,37,34)          2.6256                                         !
 ! D94   D(28,32,37,36)       -177.7622                                         !
 ! D95   D(33,32,37,34)        179.9832                                         !
 ! D96   D(33,32,37,36)         -0.4046                                         !
 ! D97   D(30,34,37,32)         -1.8058                                         !
 ! D98   D(30,34,37,36)        178.5775                                         !
 ! D99   D(35,34,37,32)        178.6441                                         !
 ! D100  D(35,34,37,36)         -0.9725                                         !
 ! D101  D(22,38,40,41)        -45.6368                                         !
 ! D102  D(22,38,40,42)       -163.999                                          !
 ! D103  D(22,38,40,43)         74.3729                                         !
 ! D104  D(39,38,40,41)        124.0324                                         !
 ! D105  D(39,38,40,42)          5.6703                                         !
 ! D106  D(39,38,40,43)       -115.9578                                         !
 ! D107  D(38,40,42,46)        -13.6189                                         !
 ! D108  D(38,40,42,60)        168.2945                                         !
 ! D109  D(41,40,42,46)       -132.4036                                         !
 ! D110  D(41,40,42,60)         49.5098                                         !
 ! D111  D(43,40,42,46)        110.0793                                         !
 ! D112  D(43,40,42,60)        -68.0073                                         !
 ! D113  D(38,40,43,44)        171.1864                                         !
 ! D114  D(38,40,43,45)        -73.9325                                         !
 ! D115  D(38,40,43,47)         49.0119                                         !
 ! D116  D(41,40,43,44)        -67.2905                                         !
 ! D117  D(41,40,43,45)         47.5906                                         !
 ! D118  D(41,40,43,47)        170.5349                                         !
 ! D119  D(42,40,43,44)         51.4805                                         !
 ! D120  D(42,40,43,45)        166.3616                                         !
 ! D121  D(42,40,43,47)        -70.694                                          !
 ! D122  D(40,42,60,62)        178.1316                                         !
 ! D123  D(46,42,60,62)          0.0366                                         !
 ! D124  D(40,43,47,48)        150.6656                                         !
 ! D125  D(40,43,47,49)         35.2332                                         !
 ! D126  D(40,43,47,50)        -86.1257                                         !
 ! D127  D(44,43,47,48)         29.8987                                         !
 ! D128  D(44,43,47,49)        -85.5338                                         !
 ! D129  D(44,43,47,50)        153.1074                                         !
 ! D130  D(45,43,47,48)        -87.9576                                         !
 ! D131  D(45,43,47,49)        156.61                                           !
 ! D132  D(45,43,47,50)         35.2511                                         !
 ! D133  D(43,47,50,51)        -65.5589                                         !
 ! D134  D(43,47,50,52)         49.2852                                         !
 ! D135  D(43,47,50,53)        171.6102                                         !
 ! D136  D(48,47,50,51)         57.3583                                         !
 ! D137  D(48,47,50,52)        172.2024                                         !
 ! D138  D(48,47,50,53)        -65.4727                                         !
 ! D139  D(49,47,50,51)        173.3439                                         !
 ! D140  D(49,47,50,52)        -71.812                                          !
 ! D141  D(49,47,50,53)         50.5129                                         !
 ! D142  D(47,50,53,54)        -45.5944                                         !
 ! D143  D(47,50,53,55)         76.8483                                         !
 ! D144  D(47,50,53,56)       -163.3749                                         !
 ! D145  D(51,50,53,54)       -168.5171                                         !
 ! D146  D(51,50,53,55)        -46.0744                                         !
 ! D147  D(51,50,53,56)         73.7024                                         !
 ! D148  D(52,50,53,54)         77.2501                                         !
 ! D149  D(52,50,53,55)       -160.3072                                         !
 ! D150  D(52,50,53,56)        -40.5305                                         !
 ! D151  D(50,53,56,57)       -156.1862                                         !
 ! D152  D(50,53,56,58)         79.9376                                         !
 ! D153  D(50,53,56,59)        -30.8387                                         !
 ! D154  D(54,53,56,57)         83.1627                                         !
 ! D155  D(54,53,56,58)        -40.7135                                         !
 ! D156  D(54,53,56,59)       -151.4898                                         !
 ! D157  D(55,53,56,57)        -33.4114                                         !
 ! D158  D(55,53,56,58)       -157.2875                                         !
 ! D159  D(55,53,56,59)         91.9362                                         !
 --------------------------------------------------------------------------------
 Symmetry turned off by external request.
 Stoichiometry    C20H31N4O7(1+)
 Framework group  C1[X(C20H31N4O7)]
 Deg. of freedom   180
 Full point group                 C1      NOp   1
                          Input orientation:                          
 ---------------------------------------------------------------------
 Center     Atomic      Atomic             Coordinates (Angstroms)
 Number     Number       Type             X           Y           Z
 ---------------------------------------------------------------------
      1          7           0        0.789338   -3.749314    0.444776
      2          1           0        1.274526   -4.505787    0.919441
      3          1           0       -0.634481   -4.391641   -0.295930
      4          1           0        1.424237   -3.348767   -0.235407
      5          6           0        0.407212   -2.705494    1.404165
      6          1           0        1.095489   -2.674737    2.258710
      7          6           0        0.515856   -1.326264    0.720418
      8          6           0       -1.044306   -2.893513    1.938623
      9          1           0       -1.717050   -2.180971    1.439767
     10          1           0       -1.038060   -2.631082    3.002959
     11          8           0        1.020757   -1.205014   -0.410843
     12          6           0       -1.709805   -4.281245    1.809230
     13          1           0       -2.475983   -4.387958    2.579299
     14          1           0       -0.985441   -5.091115    1.962369
     15          6           0       -2.386900   -4.477775    0.458646
     16          8           0       -1.573349   -4.551332   -0.601024
     17          8           0       -3.588953   -4.550059    0.334351
     18          7           0        0.024644   -0.288361    1.412148
     19          1           0       -0.275076   -0.420664    2.363548
     20          6           0       -0.047909    1.065085    0.899068
     21          1           0       -0.515086    1.673034    1.681626
     22          6           0        1.422442    1.597058    0.760530
     23          6           0       -0.921660    1.251588   -0.405532
     24          1           0       -1.326273    2.267174   -0.368000
     25          1           0       -0.266596    1.223745   -1.286302
     26          8           0        2.357801    1.042479    1.325018
     27          6           0       -2.095497    0.301079   -0.551335
     28          6           0       -1.955344   -0.952877   -1.171784
     29          1           0       -0.988073   -1.303464   -1.506999
     30          6           0       -3.372705    0.648312   -0.086154
     31          1           0       -3.530550    1.622500    0.371958
     32          6           0       -3.029505   -1.831112   -1.304356
     33          1           0       -2.879821   -2.800521   -1.768040
     34          6           0       -4.456752   -0.225827   -0.194713
     35          1           0       -5.437464    0.045859    0.181586
     36          8           0       -5.329280   -2.336476   -0.866936
     37          6           0       -4.289216   -1.485273   -0.789735
     38          7           0        1.574206    2.692182   -0.011574
     39          1           0        0.791960    3.199131   -0.398511
     40          6           0        2.865209    3.341681   -0.134306
     41          1           0        3.323891    3.448690    0.854554
     42          6           0        2.608867    4.721039   -0.719374
     43          6           0        3.872729    2.557671   -1.026957
     44          1           0        4.737775    3.209224   -1.174936
     45          1           0        4.208113    1.692359   -0.446713
     46          8           0        1.564235    5.069737   -1.228260
     47          6           0        3.336697    2.096325   -2.397586
     48          1           0        4.162729    2.049218   -3.114141
     49          1           0        2.642587    2.864096   -2.779188
     50          6           0        2.607646    0.742331   -2.347372
     51          1           0        3.326621   -0.043893   -2.082640
     52          1           0        1.884458    0.753261   -1.542507
     53          6           0        1.892395    0.346568   -3.631487
     54          1           0        1.315668    1.178369   -4.047117
     55          1           0        2.572349   -0.018677   -4.404201
     56          7           0        0.905263   -0.765973   -3.301994
     57          1           0        0.664438   -1.353559   -4.103147
     58          1           0        0.042894   -0.369142   -2.885347
     59          1           0        1.241523   -1.346551   -2.522929
     60          8           0        3.703261    5.493586   -0.637913
     61          1           0       -4.921333   -3.297098   -0.925030
     62          1           0        3.490629    6.350957   -1.052978
 ---------------------------------------------------------------------
 Rotational constants (GHZ):           0.2584471           0.0823789           0.0769076
 Standard basis: 6-31G(d) (6D, 7F)
   527 basis functions,   992 primitive gaussians,   527 cartesian basis functions
   117 alpha electrons      117 beta electrons
       nuclear repulsion energy      3439.8785517891 Hartrees.
 NAtoms=   62 NActive=   62 NUniq=   62 SFac= 1.00D+00 NAtFMM=   60 NAOKFM=T Big=T
 Integral buffers will be    131072 words long.
 Raffenetti 2 integral format.
 Two-electron integral symmetry is turned off.
 Nuclear repulsion after empirical dispersion term =     3439.7887862766 Hartrees.
 One-electron integrals computed using PRISM.
 NBasis=   527 RedAO= T EigKep=  4.21D-04  NBF=   527
 NBsUse=   527 1.00D-06 EigRej= -1.00D+00 NBFU=   527
 Initial guess from the checkpoint file:  "conf-720.chk"
 B after Tr=     0.000000    0.000000    0.000000
         Rot=    1.000000    0.000000    0.000000    0.000000 Ang=   0.00 deg.
 Requested convergence on RMS density matrix=1.00D-08 within 128 cycles.
 Requested convergence on MAX density matrix=1.00D-06.
 Requested convergence on             energy=1.00D-06.
 No special actions if energy rises.
 SCF Done:  E(RB3LYP) =  -1526.28446432     A.U. after    1 cycles
            NFock=  1  Conv=0.21D-08     -V/T= 2.0093

 **********************************************************************

            Population analysis using the SCF Density.

 **********************************************************************

 Alpha  occ. eigenvalues --  -19.30560 -19.25728 -19.25412 -19.25278 -19.24789
 Alpha  occ. eigenvalues --  -19.22281 -19.20895 -14.61613 -14.49058 -14.47094
 Alpha  occ. eigenvalues --  -14.45753 -10.43221 -10.42200 -10.40073 -10.39743
 Alpha  occ. eigenvalues --  -10.39335 -10.36026 -10.35327 -10.34809 -10.33153
 Alpha  occ. eigenvalues --  -10.32228 -10.31751 -10.30975 -10.30416 -10.29891
 Alpha  occ. eigenvalues --  -10.29208 -10.29198 -10.28834 -10.28356 -10.27341
 Alpha  occ. eigenvalues --  -10.27187  -1.21761  -1.17117  -1.16904  -1.15953
 Alpha  occ. eigenvalues --   -1.14463  -1.12940  -1.12190  -1.08724  -1.05693
 Alpha  occ. eigenvalues --   -1.03965  -1.02360  -0.94636  -0.94002  -0.90967
 Alpha  occ. eigenvalues --   -0.89471  -0.88203  -0.84607  -0.83907  -0.83704
 Alpha  occ. eigenvalues --   -0.80972  -0.78431  -0.76669  -0.75177  -0.74190
 Alpha  occ. eigenvalues --   -0.73619  -0.72231  -0.71417  -0.70804  -0.70427
 Alpha  occ. eigenvalues --   -0.68316  -0.67648  -0.67534  -0.65890  -0.65020
 Alpha  occ. eigenvalues --   -0.64035  -0.62223  -0.61820  -0.61403  -0.60985
 Alpha  occ. eigenvalues --   -0.60066  -0.59251  -0.58657  -0.58295  -0.57942
 Alpha  occ. eigenvalues --   -0.57214  -0.56593  -0.56309  -0.55369  -0.54826
 Alpha  occ. eigenvalues --   -0.54399  -0.53917  -0.53670  -0.53383  -0.52417
 Alpha  occ. eigenvalues --   -0.51825  -0.51759  -0.51448  -0.50684  -0.50350
 Alpha  occ. eigenvalues --   -0.50129  -0.49481  -0.48954  -0.48739  -0.48577
 Alpha  occ. eigenvalues --   -0.48130  -0.46980  -0.46526  -0.45937  -0.45617
 Alpha  occ. eigenvalues --   -0.45584  -0.44778  -0.44475  -0.44119  -0.42829
 Alpha  occ. eigenvalues --   -0.42490  -0.40258  -0.39606  -0.39226  -0.38849
 Alpha  occ. eigenvalues --   -0.38504  -0.38021  -0.36594  -0.35953  -0.34442
 Alpha  occ. eigenvalues --   -0.34234  -0.30323
 Alpha virt. eigenvalues --   -0.12859  -0.10732  -0.10395  -0.09684  -0.09023
 Alpha virt. eigenvalues --   -0.08255  -0.06897  -0.06619  -0.05733  -0.04826
 Alpha virt. eigenvalues --   -0.03879  -0.02664  -0.02424  -0.01195  -0.01163
 Alpha virt. eigenvalues --   -0.00718   0.00690   0.01064   0.01436   0.02175
 Alpha virt. eigenvalues --    0.02715   0.02805   0.02936   0.03866   0.04289
 Alpha virt. eigenvalues --    0.04421   0.05166   0.05333   0.06102   0.06539
 Alpha virt. eigenvalues --    0.07008   0.07540   0.07637   0.08121   0.08843
 Alpha virt. eigenvalues --    0.09136   0.09494   0.09569   0.10518   0.10634
 Alpha virt. eigenvalues --    0.11260   0.11325   0.12042   0.13032   0.13405
 Alpha virt. eigenvalues --    0.14400   0.14728   0.15115   0.15345   0.15771
 Alpha virt. eigenvalues --    0.16207   0.17470   0.17718   0.18402   0.19254
 Alpha virt. eigenvalues --    0.20795   0.22790   0.23478   0.24906   0.25257
 Alpha virt. eigenvalues --    0.26634   0.27714   0.28223   0.28929   0.29150
 Alpha virt. eigenvalues --    0.30669   0.33347   0.35806   0.36502   0.37742
 Alpha virt. eigenvalues --    0.38657   0.38949   0.39767   0.40679   0.41165
 Alpha virt. eigenvalues --    0.41869   0.41943   0.43647   0.44044   0.44245
 Alpha virt. eigenvalues --    0.44761   0.45138   0.45932   0.46197   0.46576
 Alpha virt. eigenvalues --    0.47404   0.47691   0.48307   0.49190   0.49972
 Alpha virt. eigenvalues --    0.50328   0.50597   0.50744   0.51238   0.52200
 Alpha virt. eigenvalues --    0.52475   0.52939   0.53206   0.53675   0.54087
 Alpha virt. eigenvalues --    0.54472   0.55125   0.55559   0.55939   0.56632
 Alpha virt. eigenvalues --    0.56815   0.57069   0.57741   0.58420   0.59177
 Alpha virt. eigenvalues --    0.60828   0.61571   0.61878   0.62295   0.62918
 Alpha virt. eigenvalues --    0.64486   0.64619   0.65214   0.65620   0.66360
 Alpha virt. eigenvalues --    0.66516   0.67362   0.67491   0.68205   0.68959
 Alpha virt. eigenvalues --    0.69907   0.70239   0.70696   0.71241   0.71758
 Alpha virt. eigenvalues --    0.71899   0.72367   0.73341   0.73802   0.74370
 Alpha virt. eigenvalues --    0.74493   0.74670   0.75679   0.75836   0.76167
 Alpha virt. eigenvalues --    0.76457   0.76963   0.77331   0.77734   0.78240
 Alpha virt. eigenvalues --    0.78509   0.79272   0.79871   0.80752   0.81056
 Alpha virt. eigenvalues --    0.81850   0.82415   0.82515   0.82871   0.83839
 Alpha virt. eigenvalues --    0.84550   0.84974   0.85454   0.86453   0.86767
 Alpha virt. eigenvalues --    0.87114   0.87591   0.88174   0.89196   0.89336
 Alpha virt. eigenvalues --    0.89738   0.90588   0.91229   0.92724   0.92916
 Alpha virt. eigenvalues --    0.93394   0.94259   0.94962   0.96670   0.97296
 Alpha virt. eigenvalues --    0.98117   0.98582   0.99120   0.99698   1.00397
 Alpha virt. eigenvalues --    1.00979   1.02263   1.03222   1.04679   1.05316
 Alpha virt. eigenvalues --    1.06746   1.07601   1.07843   1.08659   1.09730
 Alpha virt. eigenvalues --    1.10842   1.10898   1.11242   1.14292   1.15473
 Alpha virt. eigenvalues --    1.15824   1.16859   1.18404   1.19347   1.20962
 Alpha virt. eigenvalues --    1.21864   1.22636   1.24355   1.24572   1.26079
 Alpha virt. eigenvalues --    1.27572   1.27845   1.28916   1.29249   1.30162
 Alpha virt. eigenvalues --    1.30834   1.32380   1.32471   1.33621   1.34241
 Alpha virt. eigenvalues --    1.34828   1.37179   1.37746   1.38191   1.39062
 Alpha virt. eigenvalues --    1.40001   1.40612   1.42475   1.42857   1.43424
 Alpha virt. eigenvalues --    1.44810   1.45831   1.47169   1.48849   1.49803
 Alpha virt. eigenvalues --    1.51181   1.52231   1.53452   1.54313   1.57043
 Alpha virt. eigenvalues --    1.59032   1.59264   1.59575   1.60602   1.62582
 Alpha virt. eigenvalues --    1.62857   1.63569   1.64087   1.64898   1.65584
 Alpha virt. eigenvalues --    1.66497   1.67146   1.67771   1.68208   1.68969
 Alpha virt. eigenvalues --    1.69473   1.69590   1.70411   1.70505   1.70936
 Alpha virt. eigenvalues --    1.71966   1.72602   1.73341   1.73714   1.74476
 Alpha virt. eigenvalues --    1.75758   1.75919   1.76521   1.77233   1.78661
 Alpha virt. eigenvalues --    1.79295   1.79942   1.80255   1.81157   1.81811
 Alpha virt. eigenvalues --    1.82780   1.84029   1.84533   1.84831   1.85159
 Alpha virt. eigenvalues --    1.85640   1.86101   1.86710   1.87165   1.88224
 Alpha virt. eigenvalues --    1.88416   1.89489   1.89915   1.90408   1.90969
 Alpha virt. eigenvalues --    1.91344   1.93335   1.93967   1.94530   1.95288
 Alpha virt. eigenvalues --    1.95578   1.97861   1.98349   1.99235   1.99873
 Alpha virt. eigenvalues --    2.00588   2.02563   2.02806   2.04233   2.04480
 Alpha virt. eigenvalues --    2.05374   2.06655   2.07485   2.08057   2.09966
 Alpha virt. eigenvalues --    2.12011   2.12884   2.14587   2.16624   2.17313
 Alpha virt. eigenvalues --    2.18433   2.20374   2.21388   2.21762   2.22537
 Alpha virt. eigenvalues --    2.22869   2.23021   2.24079   2.25337   2.26231
 Alpha virt. eigenvalues --    2.26849   2.27723   2.29094   2.29663   2.30540
 Alpha virt. eigenvalues --    2.31345   2.32305   2.33054   2.34768   2.36802
 Alpha virt. eigenvalues --    2.37320   2.38427   2.39419   2.39520   2.41183
 Alpha virt. eigenvalues --    2.42506   2.43177   2.44271   2.46934   2.47917
 Alpha virt. eigenvalues --    2.48410   2.49156   2.50268   2.52353   2.53264
 Alpha virt. eigenvalues --    2.54343   2.55161   2.55746   2.57065   2.57878
 Alpha virt. eigenvalues --    2.58944   2.59565   2.60034   2.62506   2.63942
 Alpha virt. eigenvalues --    2.64971   2.66855   2.68317   2.69074   2.69505
 Alpha virt. eigenvalues --    2.70790   2.74244   2.75318   2.78974   2.81158
 Alpha virt. eigenvalues --    2.82630   2.84114   2.84478   2.87730   2.89567
 Alpha virt. eigenvalues --    2.91906   2.92867   2.94720   3.00564   3.01331
 Alpha virt. eigenvalues --    3.04464   3.06042   3.10819   3.31851   3.65362
 Alpha virt. eigenvalues --    3.77179   3.79723   3.87247   3.91697   3.93615
 Alpha virt. eigenvalues --    3.96640   4.00914   4.02529   4.04668   4.07428
 Alpha virt. eigenvalues --    4.07970   4.08874   4.10721   4.14949   4.17316
 Alpha virt. eigenvalues --    4.18809   4.21880   4.23501   4.25191   4.29772
 Alpha virt. eigenvalues --    4.34911   4.35786   4.38384   4.42830   4.45104
 Alpha virt. eigenvalues --    4.46997   4.53918   4.56904   4.61579   4.70780
          Condensed to atoms (all electrons):
 Mulliken charges:
               1
     1  N   -0.789203
     2  H    0.344388
     3  H    0.457033
     4  H    0.334819
     5  C   -0.050072
     6  H    0.189640
     7  C    0.666261
     8  C   -0.331849
     9  H    0.196702
    10  H    0.162200
    11  O   -0.605609
    12  C   -0.369841
    13  H    0.199482
    14  H    0.162180
    15  C    0.607264
    16  O   -0.607803
    17  O   -0.477404
    18  N   -0.557675
    19  H    0.357945
    20  C   -0.059142
    21  H    0.192923
    22  C    0.619598
    23  C   -0.399233
    24  H    0.176994
    25  H    0.117091
    26  O   -0.514224
    27  C    0.174340
    28  C   -0.237364
    29  H    0.085280
    30  C   -0.198480
    31  H    0.138136
    32  C   -0.208147
    33  H    0.167055
    34  C   -0.156967
    35  H    0.164361
    36  O   -0.645746
    37  C    0.387975
    38  N   -0.632122
    39  H    0.361208
    40  C   -0.013861
    41  H    0.209751
    42  C    0.581668
    43  C   -0.296336
    44  H    0.185498
    45  H    0.190478
    46  O   -0.467854
    47  C   -0.283297
    48  H    0.166117
    49  H    0.151562
    50  C   -0.314007
    51  H    0.173439
    52  H    0.211203
    53  C   -0.192863
    54  H    0.215657
    55  H    0.218339
    56  N   -0.761298
    57  H    0.419895
    58  H    0.429017
    59  H    0.439810
    60  O   -0.554265
    61  H    0.436971
    62  H    0.432381
 Sum of Mulliken charges =   1.00000
 Mulliken charges with hydrogens summed into heavy atoms:
               1
     1  N   -0.109996
     5  C    0.139568
     7  C    0.666261
     8  C    0.027053
    11  O   -0.605609
    12  C   -0.008178
    15  C    0.607264
    16  O   -0.150770
    17  O   -0.477404
    18  N   -0.199731
    20  C    0.133781
    22  C    0.619598
    23  C   -0.105148
    26  O   -0.514224
    27  C    0.174340
    28  C   -0.152083
    30  C   -0.060344
    32  C   -0.041092
    34  C    0.007394
    36  O   -0.208774
    37  C    0.387975
    38  N   -0.270913
    40  C    0.195890
    42  C    0.581668
    43  C    0.079640
    46  O   -0.467854
    47  C    0.034382
    50  C    0.070635
    53  C    0.241133
    56  N    0.527423
    60  O   -0.121883
 Electronic spatial extent (au):  <R**2>=          14588.3191
 Charge=              1.0000 electrons
 Dipole moment (field-independent basis, Debye):
    X=              8.5352    Y=              0.7071    Z=             -7.2087  Tot=             11.1945
 Quadrupole moment (field-independent basis, Debye-Ang):
   XX=           -178.3868   YY=           -140.1085   ZZ=           -126.0007
   XY=             -4.3009   XZ=            -25.9912   YZ=             -6.1217
 Traceless Quadrupole moment (field-independent basis, Debye-Ang):
   XX=            -30.2215   YY=              8.0569   ZZ=             22.1646
   XY=             -4.3009   XZ=            -25.9912   YZ=             -6.1217
 Octapole moment (field-independent basis, Debye-Ang**2):
  XXX=            183.1037  YYY=            213.6683  ZZZ=             50.5923  XYY=            200.6552
  XXY=            146.5312  XXZ=             23.6874  XZZ=             70.4527  YZZ=            -20.1552
  YYZ=             85.4292  XYZ=            -24.9969
 Hexadecapole moment (field-independent basis, Debye-Ang**3):
 XXXX=          -7505.3430 YYYY=          -7249.6242 ZZZZ=          -1779.1441 XXXY=          -2502.5092
 XXXZ=            172.2237 YYYX=          -1996.9219 YYYZ=            242.9827 ZZZX=            158.5184
 ZZZY=            667.1989 XXYY=          -2394.7503 XXZZ=          -1529.0898 YYZZ=          -1674.7109
 XXYZ=            119.3334 YYXZ=            -16.6301 ZZXY=           -755.8605
 N-N= 3.439788786277D+03 E-N=-1.041309748837D+04  KE= 1.512208817424D+03
 Unable to Open any file for archive entry.
 1\1\GINC-LAC-314\SP\RB3LYP\6-31G(d)\C20H31N4O7(1+)\KENGMITH\01-Jun-202
 2\0\\# B3LYP/6-31G* empiricaldispersion=gd3 guess=read geom=check nosy
 mm integral(ultrafinegrid)\\Candidate Structure: Conf:720 Charge calc 
 in gas phase\\1,1\N,0,0.7893376048,-3.7493135546,0.4447756173\H,0,1.27
 4526458,-4.5057865051,0.9194413863\H,0,-0.6344812938,-4.3916407991,-0.
 295929563\H,0,1.4242365207,-3.3487667134,-0.235406793\C,0,0.407212111,
 -2.70549415,1.4041650176\H,0,1.0954891127,-2.6747369726,2.2587098996\C
 ,0,0.5158555498,-1.3262637081,0.7204177682\C,0,-1.0443055248,-2.893513
 1434,1.938622694\H,0,-1.7170504391,-2.1809712577,1.4397671091\H,0,-1.0
 380597189,-2.6310824116,3.0029586329\O,0,1.0207568288,-1.2050138069,-0
 .4108430908\C,0,-1.7098051633,-4.2812447853,1.8092304533\H,0,-2.475983
 2677,-4.3879582385,2.5792986573\H,0,-0.9854412584,-5.0911152697,1.9623
 690462\C,0,-2.3868997089,-4.4777745039,0.4586457874\O,0,-1.573349318,-
 4.5513317331,-0.6010238474\O,0,-3.5889530527,-4.5500594498,0.334351049
 5\N,0,0.0246441873,-0.2883614906,1.4121483769\H,0,-0.2750757863,-0.420
 6635639,2.3635484268\C,0,-0.0479092959,1.065085344,0.8990677195\H,0,-0
 .5150859759,1.6730341107,1.6816255338\C,0,1.4224422556,1.5970575852,0.
 7605304332\C,0,-0.9216595357,1.2515877053,-0.4055324669\H,0,-1.3262729
 387,2.2671735176,-0.3680000333\H,0,-0.266596279,1.2237452194,-1.286302
 2258\O,0,2.3578010986,1.0424793279,1.3250180196\C,0,-2.0954972828,0.30
 10792684,-0.5513346331\C,0,-1.9553441229,-0.9528771389,-1.1717843285\H
 ,0,-0.9880733248,-1.3034636638,-1.5069987593\C,0,-3.3727052598,0.64831
 17852,-0.0861535105\H,0,-3.5305497791,1.6224999366,0.3719576233\C,0,-3
 .0295049953,-1.8311117802,-1.3043564877\H,0,-2.8798208761,-2.800521285
 4,-1.7680397463\C,0,-4.4567521423,-0.2258271783,-0.1947129784\H,0,-5.4
 374640289,0.0458589668,0.1815860479\O,0,-5.3292801202,-2.3364764007,-0
 .8669359121\C,0,-4.2892155145,-1.4852727302,-0.7897351319\N,0,1.574206
 3958,2.6921824572,-0.0115743035\H,0,0.7919598402,3.1991305766,-0.39851
 12183\C,0,2.8652094279,3.3416809936,-0.134306041\H,0,3.3238909118,3.44
 86901719,0.8545538257\C,0,2.6088668287,4.7210387274,-0.7193739343\C,0,
 3.8727292007,2.5576709351,-1.0269572315\H,0,4.7377753655,3.2092239493,
 -1.1749358175\H,0,4.2081125416,1.6923589405,-0.4467130066\O,0,1.564235
 3756,5.0697367102,-1.2282604406\C,0,3.3366973015,2.0963250325,-2.39758
 59569\H,0,4.1627294155,2.0492177904,-3.1141409247\H,0,2.6425873668,2.8
 640962042,-2.7791876909\C,0,2.6076458228,0.7423312228,-2.3473719179\H,
 0,3.326621208,-0.0438933903,-2.0826396108\H,0,1.8844584102,0.753260652
 6,-1.5425065616\C,0,1.8923952502,0.3465682714,-3.6314865361\H,0,1.3156
 682323,1.1783694276,-4.0471174242\H,0,2.5723485212,-0.0186767757,-4.40
 42005839\N,0,0.9052630852,-0.7659732915,-3.3019943849\H,0,0.6644379252
 ,-1.3535586317,-4.1031473697\H,0,0.0428944652,-0.3691421178,-2.8853474
 896\H,0,1.2415232208,-1.3465510762,-2.5229285697\O,0,3.7032610243,5.49
 35863854,-0.6379131089\H,0,-4.9213328493,-3.2970975438,-0.9250303114\H
 ,0,3.4906288991,6.3509570461,-1.0529784632\\Version=ES64L-G16RevC.01\H
 F=-1526.2844643\RMSD=2.137e-09\Dipole=3.4801295,0.6057255,-2.1379388\Q
 uadrupole=-22.4689278,5.990082,16.4788458,-3.1976047,-19.3238299,-4.55
 13046\PG=C01 [X(C20H31N4O7)]\\@
 The archive entry for this job was punched.


 TIME IS IN FACT THE HERO OF THE PLOT. THE TIME
 WITH WHICH WE HAVE TO DEAL IS OF THE ORDER OF TWO
 BILLION YEARS...GIVEN SO MUCH TIME, THE "IMPOSSIBLE"
 BECOMES POSSIBLE, THE POSSIBLE PROBABLE, THE PROBABLE
 VIRTUALLY CERTAIN.  ONE HAS ONLY TO WAIT, TIME
 ITSELF PERFORMS THE MIRACLES.
 "ORIGIN OF LIFE" LECTURES, GEORGE WALD, 1954
 Job cpu time:       0 days  0 hours  1 minutes 33.7 seconds.
 Elapsed time:       0 days  0 hours  0 minutes 24.1 seconds.
 File lengths (MBytes):  RWF=    264 Int=      0 D2E=      0 Chk=     40 Scr=     16
 Normal termination of Gaussian 16 at Wed Jun  1 23:44:10 2022.
