 Entering Gaussian System, Link 0=/opt/software/Gaussian/g16-AVX2-C.01/g16/g16
 Input=charge-conf-962.com
 Output=charge-conf-962.log
 Initial command:
 /opt/software/Gaussian/g16-AVX2-C.01/g16/l1.exe "/mnt/gs18/scratch/users/kengmith/Gau-22313.inp" -scrdir="/mnt/gs18/scratch/users/kengmith/"
 Entering Link 1 = /opt/software/Gaussian/g16-AVX2-C.01/g16/l1.exe PID=     22323.
  
 Copyright (c) 1988-2019, Gaussian, Inc.  All Rights Reserved.
  
 This is part of the Gaussian(R) 16 program.  It is based on
 the Gaussian(R) 09 system (copyright 2009, Gaussian, Inc.),
 the Gaussian(R) 03 system (copyright 2003, Gaussian, Inc.),
 the Gaussian(R) 98 system (copyright 1998, Gaussian, Inc.),
 the Gaussian(R) 94 system (copyright 1995, Gaussian, Inc.),
 the Gaussian 92(TM) system (copyright 1992, Gaussian, Inc.),
 the Gaussian 90(TM) system (copyright 1990, Gaussian, Inc.),
 the Gaussian 88(TM) system (copyright 1988, Gaussian, Inc.),
 the Gaussian 86(TM) system (copyright 1986, Carnegie Mellon
 University), and the Gaussian 82(TM) system (copyright 1983,
 Carnegie Mellon University). Gaussian is a federally registered
 trademark of Gaussian, Inc.
  
 This software contains proprietary and confidential information,
 including trade secrets, belonging to Gaussian, Inc.
  
 This software is provided under written license and may be
 used, copied, transmitted, or stored only in accord with that
 written license.
  
 The following legend is applicable only to US Government
 contracts under FAR:
  
                    RESTRICTED RIGHTS LEGEND
  
 Use, reproduction and disclosure by the US Government is
 subject to restrictions as set forth in subparagraphs (a)
 and (c) of the Commercial Computer Software - Restricted
 Rights clause in FAR 52.227-19.
  
 Gaussian, Inc.
 340 Quinnipiac St., Bldg. 40, Wallingford CT 06492
  
  
 ---------------------------------------------------------------
 Warning -- This program may not be used in any manner that
 competes with the business of Gaussian, Inc. or will provide
 assistance to any competitor of Gaussian, Inc.  The licensee
 of this program is prohibited from giving any competitor of
 Gaussian, Inc. access to this program.  By using this program,
 the user acknowledges that Gaussian, Inc. is engaged in the
 business of creating and licensing software in the field of
 computational chemistry and represents and warrants to the
 licensee that it is not a competitor of Gaussian, Inc. and that
 it will not use this program in any manner prohibited above.
 ---------------------------------------------------------------
  

 Cite this work as:
 Gaussian 16, Revision C.01,
 M. J. Frisch, G. W. Trucks, H. B. Schlegel, G. E. Scuseria, 
 M. A. Robb, J. R. Cheeseman, G. Scalmani, V. Barone, 
 G. A. Petersson, H. Nakatsuji, X. Li, M. Caricato, A. V. Marenich, 
 J. Bloino, B. G. Janesko, R. Gomperts, B. Mennucci, H. P. Hratchian, 
 J. V. Ortiz, A. F. Izmaylov, J. L. Sonnenberg, D. Williams-Young, 
 F. Ding, F. Lipparini, F. Egidi, J. Goings, B. Peng, A. Petrone, 
 T. Henderson, D. Ranasinghe, V. G. Zakrzewski, J. Gao, N. Rega, 
 G. Zheng, W. Liang, M. Hada, M. Ehara, K. Toyota, R. Fukuda, 
 J. Hasegawa, M. Ishida, T. Nakajima, Y. Honda, O. Kitao, H. Nakai, 
 T. Vreven, K. Throssell, J. A. Montgomery, Jr., J. E. Peralta, 
 F. Ogliaro, M. J. Bearpark, J. J. Heyd, E. N. Brothers, K. N. Kudin, 
 V. N. Staroverov, T. A. Keith, R. Kobayashi, J. Normand, 
 K. Raghavachari, A. P. Rendell, J. C. Burant, S. S. Iyengar, 
 J. Tomasi, M. Cossi, J. M. Millam, M. Klene, C. Adamo, R. Cammi, 
 J. W. Ochterski, R. L. Martin, K. Morokuma, O. Farkas, 
 J. B. Foresman, and D. J. Fox, Gaussian, Inc., Wallingford CT, 2019.
 
 ******************************************
 Gaussian 16:  ES64L-G16RevC.01  3-Jul-2019
                17-Jul-2022 
 ******************************************
 %mem=8gb
 %nproc=4
 Will use up to    4 processors via shared memory.
 %chk=conf-962.chk
 ----------------------------------------------------------------------
 # B3LYP/6-31G* empiricaldispersion=gd3bj guess=read geom=check nosymm 
 integral(ultrafinegrid)
 ----------------------------------------------------------------------
 1/29=2,38=1,172=1/1;
 2/12=2,15=1,40=1/2;
 3/5=1,6=6,7=1,11=2,14=-4,25=1,30=1,74=-5,75=-5,116=-2,124=41/1,2,3;
 4/5=1/1;
 5/5=2,38=6/2;
 6/7=2,8=2,9=2,10=2,28=1/1;
 99/5=1,9=1/99;
 ------------------------------------------------------
 Candidate Structure: Conf:962 Charge calc in gas phase
 ------------------------------------------------------
 Structure from the checkpoint file:  "conf-962.chk"
 Charge =  1 Multiplicity = 1
 Redundant internal coordinates found in file.  (old form).
 N,0,4.1927597826,1.6621575958,1.5264491249
 H,0,4.9813983786,1.9010064292,0.9203100506
 H,0,4.0865813431,0.6129460371,1.5243853381
 H,0,3.3367437869,2.1213768991,1.1318547269
 C,0,4.3986208196,2.2003447133,2.9131110587
 H,0,5.3779315364,1.8909823561,3.2735722326
 H,0,4.3374155705,3.2864669676,2.8660204648
 C,0,3.3361112115,1.5784201069,3.820220466
 O,0,3.3774938491,0.3755214824,4.0867965648
 N,0,2.3609301825,2.4070158936,4.2164103166
 H,0,2.4981886557,3.4121008805,4.1122819302
 C,0,1.2969504847,1.9446019972,5.0956016928
 H,0,1.6470573102,1.8636088691,6.1326916371
 H,0,0.967071884,0.9623133049,4.7597067859
 C,0,0.210055044,3.002718331,5.0117451395
 O,0,0.4526722286,4.1609172524,5.3767504241
 N,0,-0.9590813694,2.6340756138,4.4457580381
 H,0,-0.9453715509,1.7754216496,3.9020024163
 C,0,-1.9090221511,3.6609581798,4.0151675168
 H,0,-2.9073487594,3.2320926154,3.9366711776
 H,0,-1.9029097897,4.4636430637,4.7545999913
 C,0,-1.4788079222,4.1478846077,2.6276072585
 O,0,-2.1161669816,3.8635418529,1.6129839419
 N,0,-0.2838227723,4.7976056348,2.5973362481
 H,0,0.2080968929,4.9403368036,3.4752753368
 C,0,0.4429191826,4.984108145,1.3476769784
 H,0,-0.2269193449,5.416984781,0.5993975969
 H,0,1.2796251826,5.6586853318,1.5259702333
 C,0,1.0053957177,3.6451927908,0.8547558971
 O,0,2.2101848762,3.3690654532,0.9697839032
 N,0,0.0987855208,2.8062090464,0.3198635948
 H,0,-0.8822479792,3.0675914876,0.4378399844
 C,0,0.4305631601,1.4394778544,0.0036203352
 H,0,1.3219546948,1.4133758757,-0.6319966947
 H,0,-0.3956880844,1.0112498326,-0.5719864084
 C,0,0.6397064436,0.5764156431,1.2611619997
 O,0,0.1274137354,0.8574948375,2.3409431887
 N,0,1.400761269,-0.5268707842,1.0514911306
 H,0,1.8588928008,-0.6520412094,0.1586869106
 C,0,1.7119910131,-1.4847863382,2.0882159905
 H,0,1.272301451,-1.1177736035,3.0173764858
 H,0,1.2708405107,-2.4641771524,1.8635955416
 C,0,3.2242510539,-1.6274766471,2.2624456986
 O,0,4.0220089463,-1.0601710271,1.4958855156
 N,0,3.6034641461,-2.4251414652,3.2688956601
 H,0,2.9046002128,-2.687423315,3.9633585893
 C,0,4.9257596386,-2.3268966045,3.8553811362
 H,0,5.5093090452,-3.2387122023,3.675678937
 H,0,5.4528000883,-1.4859746587,3.4004666377
 C,0,4.7347758405,-2.1330457874,5.3652634219
 O,0,3.6659224695,-2.4028886496,5.8983825191
 N,0,5.8229457382,-1.6689305525,6.0380352671
 H,0,6.6889088527,-1.5458059952,5.5300292584
 C,0,5.8627025887,-1.5965704121,7.4909378128
 H,0,6.6917083011,-2.1890337036,7.8877880518
 H,0,4.9311257156,-2.0347309801,7.8587771001
 C,0,5.9911500162,-0.1903601725,8.0813406775
 O,0,6.3386407279,-0.0344080226,9.2433408002
 N,0,5.6716970847,0.8449812478,7.2600130138
 H,0,5.349507843,0.6910002707,6.3130951033
 C,0,5.6934168073,2.1996198198,7.7678342411
 H,0,6.7244342832,2.5708004836,7.8665524532
 H,0,5.255324399,2.2227547014,8.7711992315
 C,0,4.9490334108,3.0946891954,6.7924623775
 O,0,4.9564324565,2.8632639747,5.5804901554
 N,0,4.2975862,4.1593208845,7.3103411374
 H,0,4.2885566096,4.298922777,8.3110569574
 C,0,3.4332949264,4.998320243,6.4891518449
 H,0,3.2826241928,5.9448067281,7.0172945311
 H,0,2.4545259001,4.5414094686,6.3181486359
 C,0,4.0357632855,5.3225978032,5.1308264967
 O,0,3.4612446693,5.1560686802,4.0671164611
 O,0,5.2386021716,5.8978032991,5.2322345924
 H,0,5.5466621747,6.0993577395,4.3283569269
 Recover connectivity data from disk.
                           ----------------------------
                           !    Current Parameters    !
                           ! (Angstroms and Degrees)  !
 --------------------------                            --------------------------
 ! Name  Definition              Value                                          !
 --------------------------------------------------------------------------------
 ! R1    R(1,2)                  1.0229                                         !
 ! R2    R(1,3)                  1.0546                                         !
 ! R3    R(1,4)                  1.0485                                         !
 ! R4    R(1,5)                  1.5016                                         !
 ! R5    R(5,6)                  1.0884                                         !
 ! R6    R(5,7)                  1.0889                                         !
 ! R7    R(5,8)                  1.5292                                         !
 ! R8    R(8,9)                  1.2328                                         !
 ! R9    R(8,10)                 1.3396                                         !
 ! R10   R(10,11)                1.0197                                         !
 ! R11   R(10,12)                1.4556                                         !
 ! R12   R(12,13)                1.0976                                         !
 ! R13   R(12,14)                1.0893                                         !
 ! R14   R(12,15)                1.5192                                         !
 ! R15   R(15,16)                1.2384                                         !
 ! R16   R(15,17)                1.3502                                         !
 ! R17   R(17,18)                1.0164                                         !
 ! R18   R(17,19)                1.4637                                         !
 ! R19   R(19,20)                1.0894                                         !
 ! R20   R(19,21)                1.0914                                         !
 ! R21   R(19,22)                1.5322                                         !
 ! R22   R(22,23)                1.2315                                         !
 ! R23   R(22,24)                1.3605                                         !
 ! R24   R(24,25)                1.0164                                         !
 ! R25   R(24,26)                1.4576                                         !
 ! R26   R(26,27)                1.0936                                         !
 ! R27   R(26,28)                1.0895                                         !
 ! R28   R(26,29)                1.5336                                         !
 ! R29   R(29,30)                1.2414                                         !
 ! R30   R(29,31)                1.3461                                         !
 ! R31   R(31,32)                1.0221                                         !
 ! R32   R(31,33)                1.4415                                         !
 ! R33   R(33,34)                1.0951                                         !
 ! R34   R(33,35)                1.0943                                         !
 ! R35   R(33,36)                1.5395                                         !
 ! R36   R(36,37)                1.2278                                         !
 ! R37   R(36,38)                1.3566                                         !
 ! R38   R(38,39)                1.0113                                         !
 ! R39   R(38,40)                1.4454                                         !
 ! R40   R(40,41)                1.0915                                         !
 ! R41   R(40,42)                1.0974                                         !
 ! R42   R(40,43)                1.5289                                         !
 ! R43   R(43,44)                1.2433                                         !
 ! R44   R(43,45)                1.339                                          !
 ! R45   R(45,46)                1.0195                                         !
 ! R46   R(45,47)                1.4499                                         !
 ! R47   R(47,48)                1.0974                                         !
 ! R48   R(47,49)                1.0917                                         !
 ! R49   R(47,50)                1.5342                                         !
 ! R50   R(50,51)                1.2245                                         !
 ! R51   R(50,52)                1.3609                                         !
 ! R52   R(52,53)                1.0115                                         !
 ! R53   R(52,54)                1.4552                                         !
 ! R54   R(54,55)                1.0935                                         !
 ! R55   R(54,56)                1.0932                                         !
 ! R56   R(54,57)                1.5305                                         !
 ! R57   R(57,58)                1.2228                                         !
 ! R58   R(57,59)                1.3596                                         !
 ! R59   R(59,60)                1.012                                          !
 ! R60   R(59,61)                1.4469                                         !
 ! R61   R(61,62)                1.1002                                         !
 ! R62   R(61,63)                1.0951                                         !
 ! R63   R(61,64)                1.5188                                         !
 ! R64   R(64,65)                1.2339                                         !
 ! R65   R(64,66)                1.3513                                         !
 ! R66   R(66,67)                1.0104                                         !
 ! R67   R(66,68)                1.4578                                         !
 ! R68   R(68,69)                1.0943                                         !
 ! R69   R(68,70)                1.0936                                         !
 ! R70   R(68,71)                1.5209                                         !
 ! R71   R(71,72)                1.2204                                         !
 ! R72   R(71,73)                1.3371                                         !
 ! R73   R(73,74)                0.976                                          !
 ! A1    A(2,1,3)              107.985                                          !
 ! A2    A(2,1,4)              107.7075                                         !
 ! A3    A(2,1,5)              110.9656                                         !
 ! A4    A(3,1,4)              110.6596                                         !
 ! A5    A(3,1,5)              111.8509                                         !
 ! A6    A(4,1,5)              107.6068                                         !
 ! A7    A(1,5,6)              109.1051                                         !
 ! A8    A(1,5,7)              108.0508                                         !
 ! A9    A(1,5,8)              107.8639                                         !
 ! A10   A(6,5,7)              110.39                                           !
 ! A11   A(6,5,8)              108.2463                                         !
 ! A12   A(7,5,8)              113.0955                                         !
 ! A13   A(5,8,9)              120.1177                                         !
 ! A14   A(5,8,10)             115.4466                                         !
 ! A15   A(9,8,10)             124.3352                                         !
 ! A16   A(8,10,11)            118.7811                                         !
 ! A17   A(8,10,12)            120.9467                                         !
 ! A18   A(11,10,12)           118.24                                           !
 ! A19   A(10,12,13)           111.1611                                         !
 ! A20   A(10,12,14)           108.7584                                         !
 ! A21   A(10,12,15)           105.5659                                         !
 ! A22   A(13,12,14)           108.749                                          !
 ! A23   A(13,12,15)           109.3757                                         !
 ! A24   A(14,12,15)           113.2284                                         !
 ! A25   A(12,15,16)           119.6681                                         !
 ! A26   A(12,15,17)           116.9018                                         !
 ! A27   A(16,15,17)           123.2674                                         !
 ! A28   A(15,17,18)           116.3086                                         !
 ! A29   A(15,17,19)           119.5868                                         !
 ! A30   A(18,17,19)           116.3628                                         !
 ! A31   A(17,19,20)           109.863                                          !
 ! A32   A(17,19,21)           108.2431                                         !
 ! A33   A(17,19,22)           107.8878                                         !
 ! A34   A(20,19,21)           110.09                                           !
 ! A35   A(20,19,22)           108.4924                                         !
 ! A36   A(21,19,22)           112.2266                                         !
 ! A37   A(19,22,23)           121.8331                                         !
 ! A38   A(19,22,24)           114.7425                                         !
 ! A39   A(23,22,24)           123.1282                                         !
 ! A40   A(22,24,25)           118.2241                                         !
 ! A41   A(22,24,26)           121.205                                          !
 ! A42   A(25,24,26)           118.7676                                         !
 ! A43   A(24,26,27)           109.3828                                         !
 ! A44   A(24,26,28)           108.7741                                         !
 ! A45   A(24,26,29)           110.2863                                         !
 ! A46   A(27,26,28)           109.7118                                         !
 ! A47   A(27,26,29)           110.5052                                         !
 ! A48   A(28,26,29)           108.1494                                         !
 ! A49   A(26,29,30)           121.3568                                         !
 ! A50   A(26,29,31)           115.1405                                         !
 ! A51   A(30,29,31)           123.4941                                         !
 ! A52   A(29,31,32)           116.1806                                         !
 ! A53   A(29,31,33)           121.5399                                         !
 ! A54   A(32,31,33)           119.2548                                         !
 ! A55   A(31,33,34)           109.7105                                         !
 ! A56   A(31,33,35)           108.2188                                         !
 ! A57   A(31,33,36)           112.5561                                         !
 ! A58   A(34,33,35)           107.4562                                         !
 ! A59   A(34,33,36)           110.4978                                         !
 ! A60   A(35,33,36)           108.2326                                         !
 ! A61   A(33,36,37)           122.2338                                         !
 ! A62   A(33,36,38)           113.9471                                         !
 ! A63   A(37,36,38)           123.7931                                         !
 ! A64   A(36,38,39)           119.4234                                         !
 ! A65   A(36,38,40)           123.2921                                         !
 ! A66   A(39,38,40)           116.9782                                         !
 ! A67   A(38,40,41)           107.5173                                         !
 ! A68   A(38,40,42)           110.983                                          !
 ! A69   A(38,40,43)           110.8887                                         !
 ! A70   A(41,40,42)           108.2037                                         !
 ! A71   A(41,40,43)           109.4396                                         !
 ! A72   A(42,40,43)           109.7336                                         !
 ! A73   A(40,43,44)           121.4525                                         !
 ! A74   A(40,43,45)           114.9202                                         !
 ! A75   A(44,43,45)           123.6076                                         !
 ! A76   A(43,45,46)           118.105                                          !
 ! A77   A(43,45,47)           121.4637                                         !
 ! A78   A(46,45,47)           111.5341                                         !
 ! A79   A(45,47,48)           111.25                                           !
 ! A80   A(45,47,49)           108.9003                                         !
 ! A81   A(45,47,50)           107.0454                                         !
 ! A82   A(48,47,49)           108.3649                                         !
 ! A83   A(48,47,50)           109.4111                                         !
 ! A84   A(49,47,50)           111.8918                                         !
 ! A85   A(47,50,51)           120.6156                                         !
 ! A86   A(47,50,52)           115.4716                                         !
 ! A87   A(51,50,52)           123.9074                                         !
 ! A88   A(50,52,53)           118.5398                                         !
 ! A89   A(50,52,54)           122.1644                                         !
 ! A90   A(53,52,54)           118.1631                                         !
 ! A91   A(52,54,55)           110.861                                          !
 ! A92   A(52,54,56)           107.021                                          !
 ! A93   A(52,54,57)           115.665                                          !
 ! A94   A(55,54,56)           107.864                                          !
 ! A95   A(55,54,57)           107.1081                                         !
 ! A96   A(56,54,57)           108.0571                                         !
 ! A97   A(54,57,58)           120.5032                                         !
 ! A98   A(54,57,59)           116.5448                                         !
 ! A99   A(58,57,59)           122.935                                          !
 ! A100  A(57,59,60)           121.6123                                         !
 ! A101  A(57,59,61)           119.8286                                         !
 ! A102  A(60,59,61)           118.4011                                         !
 ! A103  A(59,61,62)           111.1875                                         !
 ! A104  A(59,61,63)           109.5945                                         !
 ! A105  A(59,61,64)           108.6035                                         !
 ! A106  A(62,61,63)           106.5917                                         !
 ! A107  A(62,61,64)           108.5476                                         !
 ! A108  A(63,61,64)           112.3277                                         !
 ! A109  A(61,64,65)           121.1537                                         !
 ! A110  A(61,64,66)           117.0313                                         !
 ! A111  A(65,64,66)           121.8093                                         !
 ! A112  A(64,66,67)           119.5189                                         !
 ! A113  A(64,66,68)           121.5574                                         !
 ! A114  A(67,66,68)           118.2332                                         !
 ! A115  A(66,68,69)           107.9112                                         !
 ! A116  A(66,68,70)           112.2243                                         !
 ! A117  A(66,68,71)           113.0129                                         !
 ! A118  A(69,68,70)           108.2766                                         !
 ! A119  A(69,68,71)           107.5278                                         !
 ! A120  A(70,68,71)           107.6953                                         !
 ! A121  A(68,71,72)           124.2549                                         !
 ! A122  A(68,71,73)           112.3536                                         !
 ! A123  A(72,71,73)           123.2501                                         !
 ! A124  A(71,73,74)           107.6103                                         !
 ! D1    D(2,1,5,6)            -51.5923                                         !
 ! D2    D(2,1,5,7)             68.4533                                         !
 ! D3    D(2,1,5,8)           -168.9648                                         !
 ! D4    D(3,1,5,6)             69.0655                                         !
 ! D5    D(3,1,5,7)           -170.8888                                         !
 ! D6    D(3,1,5,8)            -48.307                                          !
 ! D7    D(4,1,5,6)           -169.1945                                         !
 ! D8    D(4,1,5,7)            -49.1489                                         !
 ! D9    D(4,1,5,8)             73.433                                          !
 ! D10   D(1,5,8,9)             68.6782                                         !
 ! D11   D(1,5,8,10)          -107.8327                                         !
 ! D12   D(6,5,8,9)            -49.2484                                         !
 ! D13   D(6,5,8,10)           134.2407                                         !
 ! D14   D(7,5,8,9)           -171.8917                                         !
 ! D15   D(7,5,8,10)            11.5974                                         !
 ! D16   D(5,8,10,11)          -15.7278                                         !
 ! D17   D(5,8,10,12)         -179.2314                                         !
 ! D18   D(9,8,10,11)          167.9273                                         !
 ! D19   D(9,8,10,12)            4.4237                                         !
 ! D20   D(8,10,12,13)          76.6973                                         !
 ! D21   D(8,10,12,14)         -43.003                                          !
 ! D22   D(8,10,12,15)        -164.8049                                         !
 ! D23   D(11,10,12,13)        -86.8931                                         !
 ! D24   D(11,10,12,14)        153.4066                                         !
 ! D25   D(11,10,12,15)         31.6046                                         !
 ! D26   D(10,12,15,16)        -61.8333                                         !
 ! D27   D(10,12,15,17)        113.6809                                         !
 ! D28   D(13,12,15,16)         57.8495                                         !
 ! D29   D(13,12,15,17)       -126.6363                                         !
 ! D30   D(14,12,15,16)        179.2966                                         !
 ! D31   D(14,12,15,17)         -5.1891                                         !
 ! D32   D(12,15,17,18)        -15.8469                                         !
 ! D33   D(12,15,17,19)       -164.0975                                         !
 ! D34   D(16,15,17,18)        159.4911                                         !
 ! D35   D(16,15,17,19)         11.2405                                         !
 ! D36   D(15,17,19,20)       -158.9778                                         !
 ! D37   D(15,17,19,21)        -38.7373                                         !
 ! D38   D(15,17,19,22)         82.9247                                         !
 ! D39   D(18,17,19,20)         52.7882                                         !
 ! D40   D(18,17,19,21)        173.0287                                         !
 ! D41   D(18,17,19,22)        -65.3093                                         !
 ! D42   D(17,19,22,23)        108.3312                                         !
 ! D43   D(17,19,22,24)        -65.602                                          !
 ! D44   D(20,19,22,23)        -10.6429                                         !
 ! D45   D(20,19,22,24)        175.4239                                         !
 ! D46   D(21,19,22,23)       -132.5091                                         !
 ! D47   D(21,19,22,24)         53.5577                                         !
 ! D48   D(19,22,24,25)         -2.164                                          !
 ! D49   D(19,22,24,26)        162.3536                                         !
 ! D50   D(23,22,24,25)       -176.009                                          !
 ! D51   D(23,22,24,26)        -11.4913                                         !
 ! D52   D(22,24,26,27)         51.1908                                         !
 ! D53   D(22,24,26,28)        171.0083                                         !
 ! D54   D(22,24,26,29)        -70.5408                                         !
 ! D55   D(25,24,26,27)       -144.3735                                         !
 ! D56   D(25,24,26,28)        -24.556                                          !
 ! D57   D(25,24,26,29)         93.895                                          !
 ! D58   D(24,26,29,30)       -104.1329                                         !
 ! D59   D(24,26,29,31)         74.8319                                         !
 ! D60   D(27,26,29,30)        134.8028                                         !
 ! D61   D(27,26,29,31)        -46.2324                                         !
 ! D62   D(28,26,29,30)         14.6998                                         !
 ! D63   D(28,26,29,31)       -166.3353                                         !
 ! D64   D(26,29,31,32)        -10.0901                                         !
 ! D65   D(26,29,31,33)       -170.2596                                         !
 ! D66   D(30,29,31,32)        168.8499                                         !
 ! D67   D(30,29,31,33)          8.6804                                         !
 ! D68   D(29,31,33,34)        -53.3308                                         !
 ! D69   D(29,31,33,35)       -170.2917                                         !
 ! D70   D(29,31,33,36)         70.1449                                         !
 ! D71   D(32,31,33,34)        147.0918                                         !
 ! D72   D(32,31,33,35)         30.1309                                         !
 ! D73   D(32,31,33,36)        -89.4325                                         !
 ! D74   D(31,33,36,37)         24.5372                                         !
 ! D75   D(31,33,36,38)       -157.2567                                         !
 ! D76   D(34,33,36,37)        147.5734                                         !
 ! D77   D(34,33,36,38)        -34.2204                                         !
 ! D78   D(35,33,36,37)        -95.0182                                         !
 ! D79   D(35,33,36,38)         83.1879                                         !
 ! D80   D(33,36,38,39)          7.2725                                         !
 ! D81   D(33,36,38,40)       -179.2815                                         !
 ! D82   D(37,36,38,39)       -174.5534                                         !
 ! D83   D(37,36,38,40)         -1.1074                                         !
 ! D84   D(36,38,40,41)         -2.7087                                         !
 ! D85   D(36,38,40,42)        115.4493                                         !
 ! D86   D(36,38,40,43)       -122.3129                                         !
 ! D87   D(39,38,40,41)        170.8862                                         !
 ! D88   D(39,38,40,42)        -70.9558                                         !
 ! D89   D(39,38,40,43)         51.282                                          !
 ! D90   D(38,40,43,44)         -6.1045                                         !
 ! D91   D(38,40,43,45)        175.4535                                         !
 ! D92   D(41,40,43,44)       -124.5509                                         !
 ! D93   D(41,40,43,45)         57.0071                                         !
 ! D94   D(42,40,43,44)        116.8583                                         !
 ! D95   D(42,40,43,45)        -61.5837                                         !
 ! D96   D(40,43,45,46)        -14.392                                          !
 ! D97   D(40,43,45,47)       -158.9456                                         !
 ! D98   D(44,43,45,46)        167.2038                                         !
 ! D99   D(44,43,45,47)         22.6502                                         !
 ! D100  D(43,45,47,48)       -114.7884                                         !
 ! D101  D(43,45,47,49)          4.5826                                         !
 ! D102  D(43,45,47,50)        125.7262                                         !
 ! D103  D(46,45,47,48)         98.5748                                         !
 ! D104  D(46,45,47,49)       -142.0542                                         !
 ! D105  D(46,45,47,50)        -20.9106                                         !
 ! D106  D(45,47,50,51)         17.625                                          !
 ! D107  D(45,47,50,52)       -163.1863                                         !
 ! D108  D(48,47,50,51)       -103.037                                          !
 ! D109  D(48,47,50,52)         76.1517                                         !
 ! D110  D(49,47,50,51)        136.8562                                         !
 ! D111  D(49,47,50,52)        -43.955                                          !
 ! D112  D(47,50,52,53)         -4.2315                                         !
 ! D113  D(47,50,52,54)       -171.8362                                         !
 ! D114  D(51,50,52,53)        174.9272                                         !
 ! D115  D(51,50,52,54)          7.3225                                         !
 ! D116  D(50,52,54,55)        121.3239                                         !
 ! D117  D(50,52,54,56)          3.9382                                         !
 ! D118  D(50,52,54,57)       -116.5091                                         !
 ! D119  D(53,52,54,55)        -46.3254                                         !
 ! D120  D(53,52,54,56)       -163.7111                                         !
 ! D121  D(53,52,54,57)         75.8416                                         !
 ! D122  D(52,54,57,58)       -163.0823                                         !
 ! D123  D(52,54,57,59)         18.3731                                         !
 ! D124  D(55,54,57,58)        -38.9385                                         !
 ! D125  D(55,54,57,59)        142.5169                                         !
 ! D126  D(56,54,57,58)         77.0338                                         !
 ! D127  D(56,54,57,59)       -101.5109                                         !
 ! D128  D(54,57,59,60)          1.0913                                         !
 ! D129  D(54,57,59,61)        176.4492                                         !
 ! D130  D(58,57,59,60)       -177.4147                                         !
 ! D131  D(58,57,59,61)         -2.0567                                         !
 ! D132  D(57,59,61,62)         75.8857                                         !
 ! D133  D(57,59,61,63)        -41.6991                                         !
 ! D134  D(57,59,61,64)       -164.745                                          !
 ! D135  D(60,59,61,62)       -108.6081                                         !
 ! D136  D(60,59,61,63)        133.8071                                         !
 ! D137  D(60,59,61,64)         10.7612                                         !
 ! D138  D(59,61,64,65)        -32.3351                                         !
 ! D139  D(59,61,64,66)        148.515                                          !
 ! D140  D(62,61,64,65)         88.6741                                         !
 ! D141  D(62,61,64,66)        -90.4758                                         !
 ! D142  D(63,61,64,65)       -153.7191                                         !
 ! D143  D(63,61,64,66)         27.131                                          !
 ! D144  D(61,64,66,67)         -2.874                                          !
 ! D145  D(61,64,66,68)       -173.1813                                         !
 ! D146  D(65,64,66,67)        177.9821                                         !
 ! D147  D(65,64,66,68)          7.6748                                         !
 ! D148  D(64,66,68,69)       -162.1603                                         !
 ! D149  D(64,66,68,70)         78.6249                                         !
 ! D150  D(64,66,68,71)        -43.3995                                         !
 ! D151  D(67,66,68,69)         27.4121                                         !
 ! D152  D(67,66,68,70)        -91.8027                                         !
 ! D153  D(67,66,68,71)        146.1729                                         !
 ! D154  D(66,68,71,72)        128.3005                                         !
 ! D155  D(66,68,71,73)        -55.9082                                         !
 ! D156  D(69,68,71,72)       -112.7166                                         !
 ! D157  D(69,68,71,73)         63.0747                                         !
 ! D158  D(70,68,71,72)          3.769                                          !
 ! D159  D(70,68,71,73)        179.5603                                         !
 ! D160  D(68,71,73,74)       -178.3142                                         !
 ! D161  D(72,71,73,74)         -2.4738                                         !
 --------------------------------------------------------------------------------
 Symmetry turned off by external request.
 Stoichiometry    C20H33N10O11(1+)
 Framework group  C1[X(C20H33N10O11)]
 Deg. of freedom   216
 Full point group                 C1      NOp   1
                          Input orientation:                          
 ---------------------------------------------------------------------
 Center     Atomic      Atomic             Coordinates (Angstroms)
 Number     Number       Type             X           Y           Z
 ---------------------------------------------------------------------
      1          7           0        4.192760    1.662158    1.526449
      2          1           0        4.981398    1.901006    0.920310
      3          1           0        4.086581    0.612946    1.524385
      4          1           0        3.336744    2.121377    1.131855
      5          6           0        4.398621    2.200345    2.913111
      6          1           0        5.377932    1.890982    3.273572
      7          1           0        4.337416    3.286467    2.866020
      8          6           0        3.336111    1.578420    3.820220
      9          8           0        3.377494    0.375521    4.086797
     10          7           0        2.360930    2.407016    4.216410
     11          1           0        2.498189    3.412101    4.112282
     12          6           0        1.296950    1.944602    5.095602
     13          1           0        1.647057    1.863609    6.132692
     14          1           0        0.967072    0.962313    4.759707
     15          6           0        0.210055    3.002718    5.011745
     16          8           0        0.452672    4.160917    5.376750
     17          7           0       -0.959081    2.634076    4.445758
     18          1           0       -0.945372    1.775422    3.902002
     19          6           0       -1.909022    3.660958    4.015168
     20          1           0       -2.907349    3.232093    3.936671
     21          1           0       -1.902910    4.463643    4.754600
     22          6           0       -1.478808    4.147885    2.627607
     23          8           0       -2.116167    3.863542    1.612984
     24          7           0       -0.283823    4.797606    2.597336
     25          1           0        0.208097    4.940337    3.475275
     26          6           0        0.442919    4.984108    1.347677
     27          1           0       -0.226919    5.416985    0.599398
     28          1           0        1.279625    5.658685    1.525970
     29          6           0        1.005396    3.645193    0.854756
     30          8           0        2.210185    3.369065    0.969784
     31          7           0        0.098786    2.806209    0.319864
     32          1           0       -0.882248    3.067591    0.437840
     33          6           0        0.430563    1.439478    0.003620
     34          1           0        1.321955    1.413376   -0.631997
     35          1           0       -0.395688    1.011250   -0.571986
     36          6           0        0.639706    0.576416    1.261162
     37          8           0        0.127414    0.857495    2.340943
     38          7           0        1.400761   -0.526871    1.051491
     39          1           0        1.858893   -0.652041    0.158687
     40          6           0        1.711991   -1.484786    2.088216
     41          1           0        1.272301   -1.117774    3.017376
     42          1           0        1.270841   -2.464177    1.863596
     43          6           0        3.224251   -1.627477    2.262446
     44          8           0        4.022009   -1.060171    1.495886
     45          7           0        3.603464   -2.425141    3.268896
     46          1           0        2.904600   -2.687423    3.963359
     47          6           0        4.925760   -2.326897    3.855381
     48          1           0        5.509309   -3.238712    3.675679
     49          1           0        5.452800   -1.485975    3.400467
     50          6           0        4.734776   -2.133046    5.365263
     51          8           0        3.665922   -2.402889    5.898383
     52          7           0        5.822946   -1.668931    6.038035
     53          1           0        6.688909   -1.545806    5.530029
     54          6           0        5.862703   -1.596570    7.490938
     55          1           0        6.691708   -2.189034    7.887788
     56          1           0        4.931126   -2.034731    7.858777
     57          6           0        5.991150   -0.190360    8.081341
     58          8           0        6.338641   -0.034408    9.243341
     59          7           0        5.671697    0.844981    7.260013
     60          1           0        5.349508    0.691000    6.313095
     61          6           0        5.693417    2.199620    7.767834
     62          1           0        6.724434    2.570800    7.866552
     63          1           0        5.255324    2.222755    8.771199
     64          6           0        4.949033    3.094689    6.792462
     65          8           0        4.956432    2.863264    5.580490
     66          7           0        4.297586    4.159321    7.310341
     67          1           0        4.288557    4.298923    8.311057
     68          6           0        3.433295    4.998320    6.489152
     69          1           0        3.282624    5.944807    7.017295
     70          1           0        2.454526    4.541409    6.318149
     71          6           0        4.035763    5.322598    5.130826
     72          8           0        3.461245    5.156069    4.067116
     73          8           0        5.238602    5.897803    5.232235
     74          1           0        5.546662    6.099358    4.328357
 ---------------------------------------------------------------------
 Rotational constants (GHZ):           0.1142889           0.0721446           0.0543931
 Standard basis: 6-31G(d) (6D, 7F)
   681 basis functions,  1280 primitive gaussians,   681 cartesian basis functions
   155 alpha electrons      155 beta electrons
       nuclear repulsion energy      5647.1848805373 Hartrees.
 NAtoms=   74 NActive=   74 NUniq=   74 SFac= 1.00D+00 NAtFMM=   60 NAOKFM=T Big=T
 Integral buffers will be    131072 words long.
 Raffenetti 2 integral format.
 Two-electron integral symmetry is turned off.
 Nuclear repulsion after empirical dispersion term =     5647.0107736997 Hartrees.
 One-electron integrals computed using PRISM.
 NBasis=   681 RedAO= T EigKep=  2.20D-03  NBF=   681
 NBsUse=   681 1.00D-06 EigRej= -1.00D+00 NBFU=   681
 Initial guess from the checkpoint file:  "conf-962.chk"
 B after Tr=     0.000000    0.000000    0.000000
         Rot=    1.000000    0.000000    0.000000    0.000000 Ang=   0.00 deg.
 Requested convergence on RMS density matrix=1.00D-08 within 128 cycles.
 Requested convergence on MAX density matrix=1.00D-06.
 Requested convergence on             energy=1.00D-06.
 No special actions if energy rises.
 SCF Done:  E(RB3LYP) =  -2157.13534250     A.U. after    1 cycles
            NFock=  1  Conv=0.43D-08     -V/T= 2.0091

 **********************************************************************

            Population analysis using the SCF Density.

 **********************************************************************

 Alpha  occ. eigenvalues --  -19.30713 -19.25567 -19.24654 -19.24036 -19.23957
 Alpha  occ. eigenvalues --  -19.23571 -19.23089 -19.22887 -19.22319 -19.21935
 Alpha  occ. eigenvalues --  -19.19006 -14.54484 -14.48555 -14.48302 -14.47241
 Alpha  occ. eigenvalues --  -14.47051 -14.46836 -14.46813 -14.46696 -14.46407
 Alpha  occ. eigenvalues --  -14.44593 -10.43977 -10.41247 -10.40900 -10.40821
 Alpha  occ. eigenvalues --  -10.40551 -10.40325 -10.39962 -10.39261 -10.39219
 Alpha  occ. eigenvalues --  -10.36726 -10.35738 -10.34960 -10.34229 -10.34142
 Alpha  occ. eigenvalues --  -10.33431 -10.33255 -10.33145 -10.32761 -10.32610
 Alpha  occ. eigenvalues --  -10.31423  -1.22020  -1.16457  -1.15769  -1.15614
 Alpha  occ. eigenvalues --   -1.15357  -1.15157  -1.14667  -1.13969  -1.13829
 Alpha  occ. eigenvalues --   -1.12844  -1.11322  -1.09550  -1.04661  -1.04170
 Alpha  occ. eigenvalues --   -1.04162  -1.03701  -1.03575  -1.03369  -1.02784
 Alpha  occ. eigenvalues --   -1.02242  -1.00580  -0.88691  -0.87720  -0.87273
 Alpha  occ. eigenvalues --   -0.86405  -0.84923  -0.83553  -0.82127  -0.80783
 Alpha  occ. eigenvalues --   -0.79378  -0.78457  -0.73830  -0.71971  -0.70983
 Alpha  occ. eigenvalues --   -0.70616  -0.70225  -0.69936  -0.69295  -0.69091
 Alpha  occ. eigenvalues --   -0.68761  -0.68373  -0.68048  -0.67664  -0.66229
 Alpha  occ. eigenvalues --   -0.64917  -0.64726  -0.64217  -0.63342  -0.61816
 Alpha  occ. eigenvalues --   -0.61360  -0.60812  -0.60531  -0.60472  -0.59794
 Alpha  occ. eigenvalues --   -0.59434  -0.58939  -0.58589  -0.58428  -0.57786
 Alpha  occ. eigenvalues --   -0.57319  -0.57160  -0.57064  -0.56571  -0.56004
 Alpha  occ. eigenvalues --   -0.55663  -0.55541  -0.55178  -0.54688  -0.54465
 Alpha  occ. eigenvalues --   -0.53729  -0.53654  -0.52942  -0.52495  -0.52349
 Alpha  occ. eigenvalues --   -0.51987  -0.51415  -0.51343  -0.51039  -0.50917
 Alpha  occ. eigenvalues --   -0.50821  -0.50377  -0.49978  -0.49773  -0.49518
 Alpha  occ. eigenvalues --   -0.49362  -0.48987  -0.48666  -0.48060  -0.47761
 Alpha  occ. eigenvalues --   -0.47615  -0.47392  -0.46732  -0.46029  -0.43675
 Alpha  occ. eigenvalues --   -0.43039  -0.39793  -0.39635  -0.39440  -0.38878
 Alpha  occ. eigenvalues --   -0.38726  -0.38409  -0.38126  -0.38033  -0.37400
 Alpha  occ. eigenvalues --   -0.37107  -0.36783  -0.36611  -0.36436  -0.35972
 Alpha  occ. eigenvalues --   -0.35724  -0.35408  -0.34936  -0.33753  -0.32486
 Alpha virt. eigenvalues --   -0.11786  -0.10983  -0.10567  -0.10031  -0.09698
 Alpha virt. eigenvalues --   -0.09469  -0.08809  -0.07375  -0.07322  -0.05183
 Alpha virt. eigenvalues --   -0.04712  -0.03289  -0.02760  -0.02565  -0.02119
 Alpha virt. eigenvalues --   -0.01172   0.00191   0.00608   0.01433   0.01752
 Alpha virt. eigenvalues --    0.02782   0.02946   0.03107   0.03453   0.03854
 Alpha virt. eigenvalues --    0.04291   0.04434   0.04671   0.05041   0.05267
 Alpha virt. eigenvalues --    0.05588   0.05867   0.06320   0.06543   0.06800
 Alpha virt. eigenvalues --    0.07273   0.07424   0.07788   0.08281   0.08800
 Alpha virt. eigenvalues --    0.09123   0.09544   0.10091   0.10215   0.10432
 Alpha virt. eigenvalues --    0.10671   0.10908   0.11524   0.11698   0.12083
 Alpha virt. eigenvalues --    0.12385   0.12751   0.13280   0.13394   0.13875
 Alpha virt. eigenvalues --    0.14278   0.14739   0.15029   0.15797   0.16390
 Alpha virt. eigenvalues --    0.17127   0.18740   0.19464   0.19788   0.20552
 Alpha virt. eigenvalues --    0.21435   0.22534   0.23336   0.24093   0.24635
 Alpha virt. eigenvalues --    0.25516   0.26287   0.26861   0.27718   0.27964
 Alpha virt. eigenvalues --    0.28182   0.28793   0.29557   0.31026   0.31545
 Alpha virt. eigenvalues --    0.32008   0.32950   0.34707   0.35071   0.37240
 Alpha virt. eigenvalues --    0.39169   0.40124   0.41081   0.41154   0.41325
 Alpha virt. eigenvalues --    0.41633   0.42346   0.42639   0.43019   0.43088
 Alpha virt. eigenvalues --    0.43193   0.43970   0.44323   0.44815   0.44943
 Alpha virt. eigenvalues --    0.45437   0.45694   0.45961   0.46321   0.46703
 Alpha virt. eigenvalues --    0.47122   0.47358   0.47846   0.48471   0.48680
 Alpha virt. eigenvalues --    0.49384   0.49493   0.49985   0.50449   0.50991
 Alpha virt. eigenvalues --    0.51352   0.51909   0.52342   0.52884   0.53590
 Alpha virt. eigenvalues --    0.54000   0.54604   0.55092   0.55586   0.56051
 Alpha virt. eigenvalues --    0.56160   0.56705   0.56990   0.57212   0.57926
 Alpha virt. eigenvalues --    0.58176   0.58664   0.59046   0.59541   0.60184
 Alpha virt. eigenvalues --    0.60336   0.60704   0.61126   0.61602   0.62288
 Alpha virt. eigenvalues --    0.62654   0.62897   0.64074   0.65550   0.66184
 Alpha virt. eigenvalues --    0.66219   0.66864   0.67268   0.67988   0.68977
 Alpha virt. eigenvalues --    0.69173   0.69357   0.69895   0.70222   0.70457
 Alpha virt. eigenvalues --    0.71091   0.71473   0.72115   0.72237   0.72512
 Alpha virt. eigenvalues --    0.72799   0.73346   0.73736   0.73938   0.74215
 Alpha virt. eigenvalues --    0.74542   0.75513   0.76079   0.76206   0.76436
 Alpha virt. eigenvalues --    0.77151   0.77334   0.77516   0.77699   0.78343
 Alpha virt. eigenvalues --    0.78918   0.79112   0.79178   0.79688   0.80110
 Alpha virt. eigenvalues --    0.80439   0.80534   0.81014   0.81132   0.81894
 Alpha virt. eigenvalues --    0.82091   0.82917   0.83016   0.83430   0.83893
 Alpha virt. eigenvalues --    0.84585   0.84750   0.85035   0.85924   0.86256
 Alpha virt. eigenvalues --    0.86873   0.87612   0.88846   0.89570   0.89983
 Alpha virt. eigenvalues --    0.90377   0.91143   0.92392   0.93134   0.93364
 Alpha virt. eigenvalues --    0.94213   0.94487   0.94699   0.95419   0.96019
 Alpha virt. eigenvalues --    0.96253   0.97095   0.97937   0.98099   0.98890
 Alpha virt. eigenvalues --    0.99443   0.99644   1.00714   1.01004   1.02511
 Alpha virt. eigenvalues --    1.02969   1.04436   1.05032   1.05953   1.06158
 Alpha virt. eigenvalues --    1.07048   1.07435   1.07712   1.09499   1.09796
 Alpha virt. eigenvalues --    1.10341   1.11031   1.11695   1.12135   1.12222
 Alpha virt. eigenvalues --    1.13153   1.13904   1.15427   1.16233   1.16581
 Alpha virt. eigenvalues --    1.17629   1.18457   1.19838   1.20002   1.20614
 Alpha virt. eigenvalues --    1.21054   1.21759   1.22100   1.22669   1.23167
 Alpha virt. eigenvalues --    1.23779   1.23952   1.25184   1.26452   1.26995
 Alpha virt. eigenvalues --    1.27394   1.27657   1.28152   1.29258   1.30117
 Alpha virt. eigenvalues --    1.30872   1.31687   1.32363   1.33284   1.33999
 Alpha virt. eigenvalues --    1.34248   1.35080   1.35727   1.36126   1.36632
 Alpha virt. eigenvalues --    1.37169   1.37795   1.38088   1.39740   1.40270
 Alpha virt. eigenvalues --    1.41864   1.42684   1.43670   1.45089   1.45186
 Alpha virt. eigenvalues --    1.45884   1.46688   1.47250   1.47729   1.49032
 Alpha virt. eigenvalues --    1.49745   1.50531   1.51831   1.53900   1.55318
 Alpha virt. eigenvalues --    1.55462   1.56028   1.56885   1.57112   1.57790
 Alpha virt. eigenvalues --    1.58998   1.59670   1.61018   1.61265   1.62119
 Alpha virt. eigenvalues --    1.62774   1.63180   1.63590   1.64585   1.65023
 Alpha virt. eigenvalues --    1.65980   1.66179   1.66328   1.66900   1.66956
 Alpha virt. eigenvalues --    1.67859   1.68193   1.68584   1.69224   1.69595
 Alpha virt. eigenvalues --    1.70149   1.70418   1.70748   1.71388   1.71512
 Alpha virt. eigenvalues --    1.72065   1.73044   1.73304   1.73726   1.74216
 Alpha virt. eigenvalues --    1.74679   1.75323   1.75506   1.76164   1.76588
 Alpha virt. eigenvalues --    1.77275   1.77615   1.78092   1.78846   1.79628
 Alpha virt. eigenvalues --    1.80353   1.80682   1.81093   1.81196   1.81777
 Alpha virt. eigenvalues --    1.82597   1.83122   1.83534   1.83728   1.84529
 Alpha virt. eigenvalues --    1.84832   1.85007   1.85298   1.86381   1.87133
 Alpha virt. eigenvalues --    1.87268   1.87670   1.88237   1.89080   1.89176
 Alpha virt. eigenvalues --    1.90698   1.90962   1.91523   1.92150   1.92584
 Alpha virt. eigenvalues --    1.92795   1.92929   1.93939   1.94501   1.94861
 Alpha virt. eigenvalues --    1.95483   1.95834   1.96587   1.97044   1.97509
 Alpha virt. eigenvalues --    1.98266   1.98733   1.99424   1.99957   2.00579
 Alpha virt. eigenvalues --    2.01465   2.01555   2.02284   2.03692   2.04780
 Alpha virt. eigenvalues --    2.05240   2.06414   2.07933   2.11634   2.12333
 Alpha virt. eigenvalues --    2.12893   2.13652   2.13959   2.14261   2.15670
 Alpha virt. eigenvalues --    2.15940   2.17028   2.19764   2.20355   2.20650
 Alpha virt. eigenvalues --    2.21628   2.21911   2.22658   2.23341   2.23569
 Alpha virt. eigenvalues --    2.24380   2.25086   2.25536   2.26370   2.26716
 Alpha virt. eigenvalues --    2.27509   2.27956   2.28211   2.29190   2.30151
 Alpha virt. eigenvalues --    2.30867   2.31472   2.32187   2.32962   2.33391
 Alpha virt. eigenvalues --    2.33602   2.34514   2.35200   2.35861   2.36165
 Alpha virt. eigenvalues --    2.37423   2.38233   2.38872   2.39712   2.40350
 Alpha virt. eigenvalues --    2.41248   2.42199   2.44222   2.45314   2.47368
 Alpha virt. eigenvalues --    2.48018   2.48235   2.49462   2.50764   2.51303
 Alpha virt. eigenvalues --    2.52368   2.52785   2.53356   2.55316   2.56556
 Alpha virt. eigenvalues --    2.57265   2.57744   2.58069   2.59039   2.60349
 Alpha virt. eigenvalues --    2.60792   2.62038   2.63175   2.63302   2.63884
 Alpha virt. eigenvalues --    2.64633   2.66560   2.67020   2.68348   2.69270
 Alpha virt. eigenvalues --    2.73785   2.75968   2.76117   2.77408   2.78868
 Alpha virt. eigenvalues --    2.80813   2.81997   2.82699   2.84596   2.85761
 Alpha virt. eigenvalues --    2.87757   2.89197   2.90239   2.91252   2.91428
 Alpha virt. eigenvalues --    2.92183   2.92956   2.93841   2.94407   2.96937
 Alpha virt. eigenvalues --    2.97510   3.00018   3.01204   3.02021   3.04106
 Alpha virt. eigenvalues --    3.04946   3.07124   3.07566   3.07868   3.11088
 Alpha virt. eigenvalues --    3.76220   3.79892   3.82946   3.84040   3.86572
 Alpha virt. eigenvalues --    3.88197   3.90220   3.90826   3.92985   3.95673
 Alpha virt. eigenvalues --    3.97947   3.99612   4.01501   4.01852   4.02694
 Alpha virt. eigenvalues --    4.03950   4.06889   4.08540   4.11643   4.12724
 Alpha virt. eigenvalues --    4.12994   4.14322   4.16079   4.19032   4.21598
 Alpha virt. eigenvalues --    4.22459   4.23808   4.26037   4.28157   4.30549
 Alpha virt. eigenvalues --    4.34820   4.38284   4.40923   4.41903   4.43840
 Alpha virt. eigenvalues --    4.44869   4.47776   4.48226   4.50276   4.53013
 Alpha virt. eigenvalues --    4.54652
          Condensed to atoms (all electrons):
 Mulliken charges:
               1
     1  N   -0.813198
     2  H    0.392219
     3  H    0.449785
     4  H    0.431898
     5  C   -0.253913
     6  H    0.215460
     7  H    0.226021
     8  C    0.632029
     9  O   -0.554184
    10  N   -0.618682
    11  H    0.401502
    12  C   -0.187344
    13  H    0.188234
    14  H    0.202035
    15  C    0.566785
    16  O   -0.531032
    17  N   -0.564182
    18  H    0.384392
    19  C   -0.245259
    20  H    0.204982
    21  H    0.214535
    22  C    0.600218
    23  O   -0.524508
    24  N   -0.587324
    25  H    0.379032
    26  C   -0.236083
    27  H    0.208780
    28  H    0.200860
    29  C    0.612555
    30  O   -0.573453
    31  N   -0.557232
    32  H    0.399654
    33  C   -0.252794
    34  H    0.176357
    35  H    0.217199
    36  C    0.616295
    37  O   -0.534709
    38  N   -0.590371
    39  H    0.346629
    40  C   -0.241739
    41  H    0.231077
    42  H    0.207052
    43  C    0.646828
    44  O   -0.582386
    45  N   -0.559305
    46  H    0.367950
    47  C   -0.223340
    48  H    0.201980
    49  H    0.183511
    50  C    0.628602
    51  O   -0.508723
    52  N   -0.623373
    53  H    0.340825
    54  C   -0.231837
    55  H    0.200982
    56  H    0.232840
    57  C    0.599660
    58  O   -0.504676
    59  N   -0.620589
    60  H    0.355159
    61  C   -0.179908
    62  H    0.205156
    63  H    0.192053
    64  C    0.611843
    65  O   -0.556470
    66  N   -0.595962
    67  H    0.357051
    68  C   -0.223331
    69  H    0.203874
    70  H    0.234637
    71  C    0.615331
    72  O   -0.500930
    73  O   -0.530743
    74  H    0.423715
 Sum of Mulliken charges =   1.00000
 Mulliken charges with hydrogens summed into heavy atoms:
               1
     1  N    0.460704
     5  C    0.187568
     8  C    0.632029
     9  O   -0.554184
    10  N   -0.217179
    12  C    0.202925
    15  C    0.566785
    16  O   -0.531032
    17  N   -0.179790
    19  C    0.174258
    22  C    0.600218
    23  O   -0.524508
    24  N   -0.208292
    26  C    0.173557
    29  C    0.612555
    30  O   -0.573453
    31  N   -0.157579
    33  C    0.140762
    36  C    0.616295
    37  O   -0.534709
    38  N   -0.243742
    40  C    0.196389
    43  C    0.646828
    44  O   -0.582386
    45  N   -0.191355
    47  C    0.162151
    50  C    0.628602
    51  O   -0.508723
    52  N   -0.282548
    54  C    0.201984
    57  C    0.599660
    58  O   -0.504676
    59  N   -0.265430
    61  C    0.217301
    64  C    0.611843
    65  O   -0.556470
    66  N   -0.238911
    68  C    0.215181
    71  C    0.615331
    72  O   -0.500930
    73  O   -0.107029
 Electronic spatial extent (au):  <R**2>=          49835.4879
 Charge=              1.0000 electrons
 Dipole moment (field-independent basis, Debye):
    X=             16.1391    Y=              9.8671    Z=             12.9569  Tot=             22.9285
 Quadrupole moment (field-independent basis, Debye-Ang):
   XX=           -145.7121   YY=           -167.3739   ZZ=           -173.4626
   XY=             32.4090   XZ=             46.2801   YZ=             50.4988
 Traceless Quadrupole moment (field-independent basis, Debye-Ang):
   XX=             16.4708   YY=             -5.1910   ZZ=            -11.2797
   XY=             32.4090   XZ=             46.2801   YZ=             50.4988
 Octapole moment (field-independent basis, Debye-Ang**2):
  XXX=          -1380.7805  YYY=           -924.3038  ZZZ=          -2603.8826  XYY=           -375.9145
  XXY=           -268.9639  XXZ=           -674.2644  XZZ=           -499.9403  YZZ=            -18.8651
  YYZ=           -624.2191  XYZ=            145.8377
 Hexadecapole moment (field-independent basis, Debye-Ang**3):
 XXXX=         -15504.3344 YYYY=         -11138.3357 ZZZZ=         -31098.4595 XXXY=          -1176.2777
 XXXZ=          -8794.1394 YYYX=           -706.1683 YYYZ=          -3285.1137 ZZZX=         -10476.8792
 ZZZY=          -1524.5313 XXYY=          -3949.7666 XXZZ=          -7882.3989 YYZZ=          -5264.3892
 XXYZ=           -997.8381 YYXZ=          -2071.3094 ZZXY=            622.4373
 N-N= 5.647010773700D+03 E-N=-1.630275488363D+04  KE= 2.137671642813D+03
 Unable to Open any file for archive entry.
 1\1\GINC-LAC-317\SP\RB3LYP\6-31G(d)\C20H33N10O11(1+)\KENGMITH\17-Jul-2
 022\0\\# B3LYP/6-31G* empiricaldispersion=gd3bj guess=read geom=check 
 nosymm integral(ultrafinegrid)\\Candidate Structure: Conf:962 Charge c
 alc in gas phase\\1,1\N,0,4.1927597826,1.6621575958,1.5264491249\H,0,4
 .9813983786,1.9010064292,0.9203100506\H,0,4.0865813431,0.6129460371,1.
 5243853381\H,0,3.3367437869,2.1213768991,1.1318547269\C,0,4.3986208196
 ,2.2003447133,2.9131110587\H,0,5.3779315364,1.8909823561,3.2735722326\
 H,0,4.3374155705,3.2864669676,2.8660204648\C,0,3.3361112115,1.57842010
 69,3.820220466\O,0,3.3774938491,0.3755214824,4.0867965648\N,0,2.360930
 1825,2.4070158936,4.2164103166\H,0,2.4981886557,3.4121008805,4.1122819
 302\C,0,1.2969504847,1.9446019972,5.0956016928\H,0,1.6470573102,1.8636
 088691,6.1326916371\H,0,0.967071884,0.9623133049,4.7597067859\C,0,0.21
 0055044,3.002718331,5.0117451395\O,0,0.4526722286,4.1609172524,5.37675
 04241\N,0,-0.9590813694,2.6340756138,4.4457580381\H,0,-0.9453715509,1.
 7754216496,3.9020024163\C,0,-1.9090221511,3.6609581798,4.0151675168\H,
 0,-2.9073487594,3.2320926154,3.9366711776\H,0,-1.9029097897,4.46364306
 37,4.7545999913\C,0,-1.4788079222,4.1478846077,2.6276072585\O,0,-2.116
 1669816,3.8635418529,1.6129839419\N,0,-0.2838227723,4.7976056348,2.597
 3362481\H,0,0.2080968929,4.9403368036,3.4752753368\C,0,0.4429191826,4.
 984108145,1.3476769784\H,0,-0.2269193449,5.416984781,0.5993975969\H,0,
 1.2796251826,5.6586853318,1.5259702333\C,0,1.0053957177,3.6451927908,0
 .8547558971\O,0,2.2101848762,3.3690654532,0.9697839032\N,0,0.098785520
 8,2.8062090464,0.3198635948\H,0,-0.8822479792,3.0675914876,0.437839984
 4\C,0,0.4305631601,1.4394778544,0.0036203352\H,0,1.3219546948,1.413375
 8757,-0.6319966947\H,0,-0.3956880844,1.0112498326,-0.5719864084\C,0,0.
 6397064436,0.5764156431,1.2611619997\O,0,0.1274137354,0.8574948375,2.3
 409431887\N,0,1.400761269,-0.5268707842,1.0514911306\H,0,1.8588928008,
 -0.6520412094,0.1586869106\C,0,1.7119910131,-1.4847863382,2.0882159905
 \H,0,1.272301451,-1.1177736035,3.0173764858\H,0,1.2708405107,-2.464177
 1524,1.8635955416\C,0,3.2242510539,-1.6274766471,2.2624456986\O,0,4.02
 20089463,-1.0601710271,1.4958855156\N,0,3.6034641461,-2.4251414652,3.2
 688956601\H,0,2.9046002128,-2.687423315,3.9633585893\C,0,4.9257596386,
 -2.3268966045,3.8553811362\H,0,5.5093090452,-3.2387122023,3.675678937\
 H,0,5.4528000883,-1.4859746587,3.4004666377\C,0,4.7347758405,-2.133045
 7874,5.3652634219\O,0,3.6659224695,-2.4028886496,5.8983825191\N,0,5.82
 29457382,-1.6689305525,6.0380352671\H,0,6.6889088527,-1.5458059952,5.5
 300292584\C,0,5.8627025887,-1.5965704121,7.4909378128\H,0,6.6917083011
 ,-2.1890337036,7.8877880518\H,0,4.9311257156,-2.0347309801,7.858777100
 1\C,0,5.9911500162,-0.1903601725,8.0813406775\O,0,6.3386407279,-0.0344
 080226,9.2433408002\N,0,5.6716970847,0.8449812478,7.2600130138\H,0,5.3
 49507843,0.6910002707,6.3130951033\C,0,5.6934168073,2.1996198198,7.767
 8342411\H,0,6.7244342832,2.5708004836,7.8665524532\H,0,5.255324399,2.2
 227547014,8.7711992315\C,0,4.9490334108,3.0946891954,6.7924623775\O,0,
 4.9564324565,2.8632639747,5.5804901554\N,0,4.2975862,4.1593208845,7.31
 03411374\H,0,4.2885566096,4.298922777,8.3110569574\C,0,3.4332949264,4.
 998320243,6.4891518449\H,0,3.2826241928,5.9448067281,7.0172945311\H,0,
 2.4545259001,4.5414094686,6.3181486359\C,0,4.0357632855,5.3225978032,5
 .1308264967\O,0,3.4612446693,5.1560686802,4.0671164611\O,0,5.238602171
 6,5.8978032991,5.2322345924\H,0,5.5466621747,6.0993577395,4.3283569269
 \\Version=ES64L-G16RevC.01\HF=-2157.1353425\RMSD=4.280e-09\Dipole=1.20
 18565,0.5777232,-2.5314786\Quadrupole=12.2456159,-3.8594099,-8.386206,
 24.0953188,34.4081241,37.5446285\PG=C01 [X(C20H33N10O11)]\\@
 The archive entry for this job was punched.


 TELEVISION IS CALLED A MEDIUM BECAUSE IT ISN'T
 RARE, AND IT ISN'T WELL DONE.
 Job cpu time:       0 days  0 hours  2 minutes 55.7 seconds.
 Elapsed time:       0 days  0 hours  0 minutes 47.0 seconds.
 File lengths (MBytes):  RWF=    352 Int=      0 D2E=      0 Chk=     48 Scr=     16
 Normal termination of Gaussian 16 at Sun Jul 17 02:37:50 2022.
