 Entering Gaussian System, Link 0=/opt/software/Gaussian/g16-AVX2-C.01/g16/g16
 Input=charge-conf-252.com
 Output=charge-conf-252.log
 Initial command:
 /opt/software/Gaussian/g16-AVX2-C.01/g16/l1.exe "/mnt/gs18/scratch/users/kengmith/Gau-120911.inp" -scrdir="/mnt/gs18/scratch/users/kengmith/"
 Entering Link 1 = /opt/software/Gaussian/g16-AVX2-C.01/g16/l1.exe PID=    120921.
  
 Copyright (c) 1988-2019, Gaussian, Inc.  All Rights Reserved.
  
 This is part of the Gaussian(R) 16 program.  It is based on
 the Gaussian(R) 09 system (copyright 2009, Gaussian, Inc.),
 the Gaussian(R) 03 system (copyright 2003, Gaussian, Inc.),
 the Gaussian(R) 98 system (copyright 1998, Gaussian, Inc.),
 the Gaussian(R) 94 system (copyright 1995, Gaussian, Inc.),
 the Gaussian 92(TM) system (copyright 1992, Gaussian, Inc.),
 the Gaussian 90(TM) system (copyright 1990, Gaussian, Inc.),
 the Gaussian 88(TM) system (copyright 1988, Gaussian, Inc.),
 the Gaussian 86(TM) system (copyright 1986, Carnegie Mellon
 University), and the Gaussian 82(TM) system (copyright 1983,
 Carnegie Mellon University). Gaussian is a federally registered
 trademark of Gaussian, Inc.
  
 This software contains proprietary and confidential information,
 including trade secrets, belonging to Gaussian, Inc.
  
 This software is provided under written license and may be
 used, copied, transmitted, or stored only in accord with that
 written license.
  
 The following legend is applicable only to US Government
 contracts under FAR:
  
                    RESTRICTED RIGHTS LEGEND
  
 Use, reproduction and disclosure by the US Government is
 subject to restrictions as set forth in subparagraphs (a)
 and (c) of the Commercial Computer Software - Restricted
 Rights clause in FAR 52.227-19.
  
 Gaussian, Inc.
 340 Quinnipiac St., Bldg. 40, Wallingford CT 06492
  
  
 ---------------------------------------------------------------
 Warning -- This program may not be used in any manner that
 competes with the business of Gaussian, Inc. or will provide
 assistance to any competitor of Gaussian, Inc.  The licensee
 of this program is prohibited from giving any competitor of
 Gaussian, Inc. access to this program.  By using this program,
 the user acknowledges that Gaussian, Inc. is engaged in the
 business of creating and licensing software in the field of
 computational chemistry and represents and warrants to the
 licensee that it is not a competitor of Gaussian, Inc. and that
 it will not use this program in any manner prohibited above.
 ---------------------------------------------------------------
  

 Cite this work as:
 Gaussian 16, Revision C.01,
 M. J. Frisch, G. W. Trucks, H. B. Schlegel, G. E. Scuseria, 
 M. A. Robb, J. R. Cheeseman, G. Scalmani, V. Barone, 
 G. A. Petersson, H. Nakatsuji, X. Li, M. Caricato, A. V. Marenich, 
 J. Bloino, B. G. Janesko, R. Gomperts, B. Mennucci, H. P. Hratchian, 
 J. V. Ortiz, A. F. Izmaylov, J. L. Sonnenberg, D. Williams-Young, 
 F. Ding, F. Lipparini, F. Egidi, J. Goings, B. Peng, A. Petrone, 
 T. Henderson, D. Ranasinghe, V. G. Zakrzewski, J. Gao, N. Rega, 
 G. Zheng, W. Liang, M. Hada, M. Ehara, K. Toyota, R. Fukuda, 
 J. Hasegawa, M. Ishida, T. Nakajima, Y. Honda, O. Kitao, H. Nakai, 
 T. Vreven, K. Throssell, J. A. Montgomery, Jr., J. E. Peralta, 
 F. Ogliaro, M. J. Bearpark, J. J. Heyd, E. N. Brothers, K. N. Kudin, 
 V. N. Staroverov, T. A. Keith, R. Kobayashi, J. Normand, 
 K. Raghavachari, A. P. Rendell, J. C. Burant, S. S. Iyengar, 
 J. Tomasi, M. Cossi, J. M. Millam, M. Klene, C. Adamo, R. Cammi, 
 J. W. Ochterski, R. L. Martin, K. Morokuma, O. Farkas, 
 J. B. Foresman, and D. J. Fox, Gaussian, Inc., Wallingford CT, 2019.
 
 ******************************************
 Gaussian 16:  ES64L-G16RevC.01  3-Jul-2019
                27-May-2022 
 ******************************************
 %mem=8gb
 %nproc=4
 Will use up to    4 processors via shared memory.
 %chk=conf-252.chk
 -------------------------------------------------------------------
 # B3LYP/6-31G* guess=read geom=check nosymm integral(ultrafinegrid)
 -------------------------------------------------------------------
 1/29=2,38=1,172=1/1;
 2/12=2,15=1,40=1/2;
 3/5=1,6=6,7=1,11=2,14=-4,25=1,30=1,74=-5,75=-5,116=-2/1,2,3;
 4/5=1/1;
 5/5=2,38=6/2;
 6/7=2,8=2,9=2,10=2,28=1/1;
 99/5=1,9=1/99;
 ------------------------------------------------------
 Candidate Structure: Conf:252 Charge calc in gas phase
 ------------------------------------------------------
 Structure from the checkpoint file:  "conf-252.chk"
 Charge =  1 Multiplicity = 1
 Redundant internal coordinates found in file.  (old form).
 N,0,-6.0065692871,2.3890995164,2.8346829588
 H,0,-6.0768520935,2.1944516065,3.8371668332
 H,0,-6.7633325899,3.0279870988,2.5761755402
 H,0,-6.0837821271,1.4733704034,2.2733969357
 C,0,-4.6442458559,2.8606146103,2.4054236328
 H,0,-3.9942338788,2.9547182137,3.2771432886
 H,0,-4.728639357,3.8308552474,1.9132955483
 C,0,-4.1643751483,1.7485425159,1.4294276685
 O,0,-4.9534347033,0.8087981678,1.2376076115
 N,0,-2.9699265025,1.9168421415,0.8896329881
 H,0,-2.3242553605,2.6382028142,1.2295006803
 C,0,-2.2567514144,0.9405235745,0.05529365
 H,0,-2.6089269866,-0.0616284461,0.3155437002
 C,0,-0.7742007186,1.1226442786,0.4675195442
 C,0,-2.431253715,1.210228809,-1.4567257431
 H,0,-2.1026066565,2.2404134678,-1.6481151956
 H,0,-1.7287040836,0.5586094767,-1.9938007661
 O,0,-0.4337077692,2.1454457704,1.070895756
 C,0,-3.8452120402,0.9961778693,-2.034036149
 H,0,-4.5514081573,1.607103991,-1.4527913521
 C,0,-3.881352593,1.4956868953,-3.4871404506
 H,0,-3.190573329,0.9214425648,-4.1169883244
 H,0,-4.884643154,1.3853393427,-3.9123493953
 H,0,-3.5996647369,2.5528032031,-3.5589461589
 C,0,-4.2969320562,-0.4692871553,-1.9487025376
 H,0,-3.6020953302,-1.125627059,-2.4880828314
 H,0,-4.3733409446,-0.821271258,-0.9147718501
 H,0,-5.2850304834,-0.5927341012,-2.4051868875
 N,0,0.0520408905,0.1278543556,0.110354406
 H,0,-0.2721675218,-0.6274773032,-0.4890260882
 C,0,1.5114079055,0.1888086015,0.2098313819
 H,0,1.7884146022,1.2360898692,0.3690809226
 C,0,2.0069318709,-0.3286673387,-1.1577271188
 C,0,2.0520136283,-0.6754185234,1.3883601798
 H,0,1.810402494,-1.7204807796,1.1485249506
 O,0,1.3548096435,-1.189219358,-1.7497646393
 C,0,3.5767196592,-0.5474809587,1.5312009861
 H,0,3.8653282808,0.4903353713,1.7465318363
 H,0,3.9245419904,-1.1598686429,2.3695016645
 H,0,4.1180281386,-0.8733573575,0.6390182207
 C,0,1.3603232119,-0.3063851324,2.7087149536
 H,0,1.5340013393,0.7447926231,2.9669040315
 H,0,1.7555988161,-0.9245638382,3.5218181329
 H,0,0.279551511,-0.4701283385,2.6617624863
 N,0,3.1475274175,0.2181233184,-1.6429501537
 H,0,3.6600027881,0.8758308672,-1.0705623728
 C,0,3.7819334047,-0.2486502693,-2.8722325656
 H,0,3.2410839348,-1.1505924042,-3.1720549906
 C,0,5.2386053047,-0.6560513724,-2.6621493399
 C,0,3.7072234404,0.7849356349,-4.021447892
 H,0,4.2079864029,1.7109140293,-3.7037621244
 H,0,4.2951093108,0.3789941472,-4.8512304991
 O,0,5.8940117786,-1.2391335892,-3.4906405202
 C,0,2.2734988204,1.0942245559,-4.4692781848
 H,0,1.6975475037,1.4549045885,-3.6076580012
 H,0,1.7845316372,0.1639779222,-4.7906125423
 C,0,2.1922940941,2.1377562107,-5.5960247044
 H,0,1.1375740321,2.4145808821,-5.7394127767
 H,0,2.7079050141,3.0567163941,-5.2793763665
 C,0,2.7653173208,1.688858405,-6.9573714684
 H,0,2.6987236125,2.533646794,-7.6539990532
 H,0,3.8348809574,1.463239743,-6.8634368847
 N,0,2.1292033914,0.5376969056,-7.5985076919
 H,0,2.2389928188,-0.3025013188,-7.0342770401
 H,0,1.1271447525,0.6944429286,-7.6975262191
 O,0,5.7401241094,-0.2508531281,-1.4673510133
 H,0,6.6763221356,-0.5294113437,-1.4521771264
 Recover connectivity data from disk.
                           ----------------------------
                           !    Current Parameters    !
                           ! (Angstroms and Degrees)  !
 --------------------------                            --------------------------
 ! Name  Definition              Value                                          !
 --------------------------------------------------------------------------------
 ! R1    R(1,2)                  1.0236                                         !
 ! R2    R(1,3)                  1.0236                                         !
 ! R3    R(1,4)                  1.0768                                         !
 ! R4    R(1,5)                  1.5042                                         !
 ! R5    R(5,6)                  1.0915                                         !
 ! R6    R(5,7)                  1.0912                                         !
 ! R7    R(5,8)                  1.5555                                         !
 ! R8    R(8,9)                  1.242                                          !
 ! R9    R(8,10)                 1.3215                                         !
 ! R10   R(10,11)                1.026                                          !
 ! R11   R(10,12)                1.469                                          !
 ! R12   R(12,13)                1.0936                                         !
 ! R13   R(12,14)                1.5495                                         !
 ! R14   R(12,15)                1.5458                                         !
 ! R15   R(14,18)                1.2354                                         !
 ! R16   R(14,29)                1.3416                                         !
 ! R17   R(15,16)                1.0981                                         !
 ! R18   R(15,17)                1.0985                                         !
 ! R19   R(15,19)                1.5422                                         !
 ! R20   R(19,20)                1.0999                                         !
 ! R21   R(19,21)                1.537                                          !
 ! R22   R(19,25)                1.5359                                         !
 ! R23   R(21,22)                1.0971                                         !
 ! R24   R(21,23)                1.0952                                         !
 ! R25   R(21,24)                1.0964                                         !
 ! R26   R(25,26)                1.0975                                         !
 ! R27   R(25,27)                1.0949                                         !
 ! R28   R(25,28)                1.0954                                         !
 ! R29   R(29,30)                1.0173                                         !
 ! R30   R(29,31)                1.464                                          !
 ! R31   R(31,32)                1.0949                                         !
 ! R32   R(31,33)                1.5439                                         !
 ! R33   R(31,34)                1.5582                                         !
 ! R34   R(33,36)                1.2314                                         !
 ! R35   R(33,45)                1.3548                                         !
 ! R36   R(34,35)                1.0991                                         !
 ! R37   R(34,37)                1.5367                                         !
 ! R38   R(34,41)                1.5356                                         !
 ! R39   R(37,38)                1.0985                                         !
 ! R40   R(37,39)                1.0949                                         !
 ! R41   R(37,40)                1.0933                                         !
 ! R42   R(41,42)                1.0963                                         !
 ! R43   R(41,43)                1.0952                                         !
 ! R44   R(41,44)                1.0941                                         !
 ! R45   R(45,46)                1.0114                                         !
 ! R46   R(45,47)                1.46                                           !
 ! R47   R(47,48)                1.0936                                         !
 ! R48   R(47,49)                1.5271                                         !
 ! R49   R(47,50)                1.5474                                         !
 ! R50   R(49,53)                1.2066                                         !
 ! R51   R(49,66)                1.3577                                         !
 ! R52   R(50,51)                1.0996                                         !
 ! R53   R(50,52)                1.095                                          !
 ! R54   R(50,54)                1.5336                                         !
 ! R55   R(54,55)                1.0974                                         !
 ! R56   R(54,56)                1.099                                          !
 ! R57   R(54,57)                1.5379                                         !
 ! R58   R(57,58)                1.0998                                         !
 ! R59   R(57,59)                1.1003                                         !
 ! R60   R(57,60)                1.5437                                         !
 ! R61   R(60,61)                1.097                                          !
 ! R62   R(60,62)                1.0971                                         !
 ! R63   R(60,63)                1.4632                                         !
 ! R64   R(63,64)                1.018                                          !
 ! R65   R(63,65)                1.0191                                         !
 ! R66   R(66,67)                0.9769                                         !
 ! A1    A(2,1,3)              108.3769                                         !
 ! A2    A(2,1,4)              110.1113                                         !
 ! A3    A(2,1,5)              113.6584                                         !
 ! A4    A(3,1,4)              110.2514                                         !
 ! A5    A(3,1,5)              113.6959                                         !
 ! A6    A(4,1,5)              100.5309                                         !
 ! A7    A(1,5,6)              109.7848                                         !
 ! A8    A(1,5,7)              109.7179                                         !
 ! A9    A(1,5,8)              103.5539                                         !
 ! A10   A(6,5,7)              109.2448                                         !
 ! A11   A(6,5,8)              112.2746                                         !
 ! A12   A(7,5,8)              112.1214                                         !
 ! A13   A(5,8,9)              116.2228                                         !
 ! A14   A(5,8,10)             116.3646                                         !
 ! A15   A(9,8,10)             127.4095                                         !
 ! A16   A(8,10,11)            121.5344                                         !
 ! A17   A(8,10,12)            125.8848                                         !
 ! A18   A(11,10,12)           110.4804                                         !
 ! A19   A(10,12,13)           108.5132                                         !
 ! A20   A(10,12,14)           103.6086                                         !
 ! A21   A(10,12,15)           112.6312                                         !
 ! A22   A(13,12,14)           110.6398                                         !
 ! A23   A(13,12,15)           110.8731                                         !
 ! A24   A(14,12,15)           110.3484                                         !
 ! A25   A(12,14,18)           119.4032                                         !
 ! A26   A(12,14,29)           115.5483                                         !
 ! A27   A(18,14,29)           125.0437                                         !
 ! A28   A(12,15,16)           107.4802                                         !
 ! A29   A(12,15,17)           107.6109                                         !
 ! A30   A(12,15,19)           116.4525                                         !
 ! A31   A(16,15,17)           106.2528                                         !
 ! A32   A(16,15,19)           109.8375                                         !
 ! A33   A(17,15,19)           108.725                                          !
 ! A34   A(15,19,20)           108.2853                                         !
 ! A35   A(15,19,21)           109.2908                                         !
 ! A36   A(15,19,25)           112.4136                                         !
 ! A37   A(20,19,21)           107.698                                          !
 ! A38   A(20,19,25)           108.1663                                         !
 ! A39   A(21,19,25)           110.8367                                         !
 ! A40   A(19,21,22)           110.9686                                         !
 ! A41   A(19,21,23)           110.8448                                         !
 ! A42   A(19,21,24)           111.6687                                         !
 ! A43   A(22,21,23)           107.527                                          !
 ! A44   A(22,21,24)           107.7768                                         !
 ! A45   A(23,21,24)           107.8831                                         !
 ! A46   A(19,25,26)           110.9224                                         !
 ! A47   A(19,25,27)           112.3175                                         !
 ! A48   A(19,25,28)           110.4671                                         !
 ! A49   A(26,25,27)           108.4232                                         !
 ! A50   A(26,25,28)           107.3905                                         !
 ! A51   A(27,25,28)           107.1183                                         !
 ! A52   A(14,29,30)           120.7398                                         !
 ! A53   A(14,29,31)           124.3988                                         !
 ! A54   A(30,29,31)           112.8693                                         !
 ! A55   A(29,31,32)           107.5711                                         !
 ! A56   A(29,31,33)           104.229                                          !
 ! A57   A(29,31,34)           111.9707                                         !
 ! A58   A(32,31,33)           111.6061                                         !
 ! A59   A(32,31,34)           109.4333                                         !
 ! A60   A(33,31,34)           111.8823                                         !
 ! A61   A(31,33,36)           119.3501                                         !
 ! A62   A(31,33,45)           116.8849                                         !
 ! A63   A(36,33,45)           123.7605                                         !
 ! A64   A(31,34,35)           106.6214                                         !
 ! A65   A(31,34,37)           111.614                                          !
 ! A66   A(31,34,41)           111.147                                          !
 ! A67   A(35,34,37)           108.5147                                         !
 ! A68   A(35,34,41)           108.4884                                         !
 ! A69   A(37,34,41)           110.3035                                         !
 ! A70   A(34,37,38)           110.9497                                         !
 ! A71   A(34,37,39)           109.8649                                         !
 ! A72   A(34,37,40)           112.9914                                         !
 ! A73   A(38,37,39)           107.1498                                         !
 ! A74   A(38,37,40)           108.1493                                         !
 ! A75   A(39,37,40)           107.507                                          !
 ! A76   A(34,41,42)           111.1976                                         !
 ! A77   A(34,41,43)           109.8855                                         !
 ! A78   A(34,41,44)           111.8445                                         !
 ! A79   A(42,41,43)           108.0103                                         !
 ! A80   A(42,41,44)           108.0656                                         !
 ! A81   A(43,41,44)           107.6916                                         !
 ! A82   A(33,45,46)           119.1033                                         !
 ! A83   A(33,45,47)           122.573                                          !
 ! A84   A(46,45,47)           117.6629                                         !
 ! A85   A(45,47,48)           106.2381                                         !
 ! A86   A(45,47,49)           112.5792                                         !
 ! A87   A(45,47,50)           113.0034                                         !
 ! A88   A(48,47,49)           106.8249                                         !
 ! A89   A(48,47,50)           108.8685                                         !
 ! A90   A(49,47,50)           109.0512                                         !
 ! A91   A(47,49,53)           123.5446                                         !
 ! A92   A(47,49,66)           113.1918                                         !
 ! A93   A(53,49,66)           123.2181                                         !
 ! A94   A(47,50,51)           109.0214                                         !
 ! A95   A(47,50,52)           106.8131                                         !
 ! A96   A(47,50,54)           113.3732                                         !
 ! A97   A(51,50,52)           106.6565                                         !
 ! A98   A(51,50,54)           109.8946                                         !
 ! A99   A(52,50,54)           110.8194                                         !
 ! A100  A(50,54,55)           109.1284                                         !
 ! A101  A(50,54,56)           109.3078                                         !
 ! A102  A(50,54,57)           113.5887                                         !
 ! A103  A(55,54,56)           105.9191                                         !
 ! A104  A(55,54,57)           108.9368                                         !
 ! A105  A(56,54,57)           109.6732                                         !
 ! A106  A(54,57,58)           108.4782                                         !
 ! A107  A(54,57,59)           109.3375                                         !
 ! A108  A(54,57,60)           115.4156                                         !
 ! A109  A(58,57,59)           106.0633                                         !
 ! A110  A(58,57,60)           108.3118                                         !
 ! A111  A(59,57,60)           108.8267                                         !
 ! A112  A(57,60,61)           108.2726                                         !
 ! A113  A(57,60,62)           110.2527                                         !
 ! A114  A(57,60,63)           116.9887                                         !
 ! A115  A(61,60,62)           105.7784                                         !
 ! A116  A(61,60,63)           107.5312                                         !
 ! A117  A(62,60,63)           107.4306                                         !
 ! A118  A(60,63,64)           111.075                                          !
 ! A119  A(60,63,65)           110.4297                                         !
 ! A120  A(64,63,65)           106.6694                                         !
 ! A121  A(49,66,67)           106.4143                                         !
 ! D1    D(2,1,5,6)             -2.9685                                         !
 ! D2    D(2,1,5,7)           -123.0364                                         !
 ! D3    D(2,1,5,8)            117.1034                                         !
 ! D4    D(3,1,5,6)            121.6537                                         !
 ! D5    D(3,1,5,7)              1.5857                                         !
 ! D6    D(3,1,5,8)           -118.2745                                         !
 ! D7    D(4,1,5,6)           -120.5667                                         !
 ! D8    D(4,1,5,7)            119.3654                                         !
 ! D9    D(4,1,5,8)             -0.4949                                         !
 ! D10   D(1,5,8,9)              0.4042                                         !
 ! D11   D(1,5,8,10)           179.8051                                         !
 ! D12   D(6,5,8,9)            118.7641                                         !
 ! D13   D(6,5,8,10)           -61.8349                                         !
 ! D14   D(7,5,8,9)           -117.8007                                         !
 ! D15   D(7,5,8,10)            61.6002                                         !
 ! D16   D(5,8,10,11)           11.4033                                         !
 ! D17   D(5,8,10,12)          173.3228                                         !
 ! D18   D(9,8,10,11)         -169.2733                                         !
 ! D19   D(9,8,10,12)           -7.3538                                         !
 ! D20   D(8,10,12,13)         -25.905                                          !
 ! D21   D(8,10,12,14)        -143.5201                                         !
 ! D22   D(8,10,12,15)          97.2351                                         !
 ! D23   D(11,10,12,13)        137.6932                                         !
 ! D24   D(11,10,12,14)         20.0782                                         !
 ! D25   D(11,10,12,15)        -99.1666                                         !
 ! D26   D(10,12,14,18)        -17.0827                                         !
 ! D27   D(10,12,14,29)        163.677                                          !
 ! D28   D(13,12,14,18)       -133.205                                          !
 ! D29   D(13,12,14,29)         47.5548                                         !
 ! D30   D(15,12,14,18)        103.7175                                         !
 ! D31   D(15,12,14,29)        -75.5228                                         !
 ! D32   D(10,12,15,16)         55.8043                                         !
 ! D33   D(10,12,15,17)        169.8722                                         !
 ! D34   D(10,12,15,19)        -67.8427                                         !
 ! D35   D(13,12,15,16)        177.6173                                         !
 ! D36   D(13,12,15,17)        -68.3148                                         !
 ! D37   D(13,12,15,19)         53.9703                                         !
 ! D38   D(14,12,15,16)        -59.4412                                         !
 ! D39   D(14,12,15,17)         54.6266                                         !
 ! D40   D(14,12,15,19)        176.9118                                         !
 ! D41   D(12,14,29,30)          7.1842                                         !
 ! D42   D(12,14,29,31)        169.9627                                         !
 ! D43   D(18,14,29,30)       -172.0074                                         !
 ! D44   D(18,14,29,31)         -9.2288                                         !
 ! D45   D(12,15,19,20)         55.0259                                         !
 ! D46   D(12,15,19,21)        172.0824                                         !
 ! D47   D(12,15,19,25)        -64.4116                                         !
 ! D48   D(16,15,19,20)        -67.3968                                         !
 ! D49   D(16,15,19,21)         49.6597                                         !
 ! D50   D(16,15,19,25)        173.1656                                         !
 ! D51   D(17,15,19,20)        176.7258                                         !
 ! D52   D(17,15,19,21)        -66.2177                                         !
 ! D53   D(17,15,19,25)         57.2883                                         !
 ! D54   D(15,19,21,22)         62.4279                                         !
 ! D55   D(15,19,21,23)       -178.1644                                         !
 ! D56   D(15,19,21,24)        -57.843                                          !
 ! D57   D(20,19,21,22)        179.8549                                         !
 ! D58   D(20,19,21,23)        -60.7374                                         !
 ! D59   D(20,19,21,24)         59.584                                          !
 ! D60   D(25,19,21,22)        -62.0059                                         !
 ! D61   D(25,19,21,23)         57.4018                                         !
 ! D62   D(25,19,21,24)        177.7232                                         !
 ! D63   D(15,19,25,26)        -58.6195                                         !
 ! D64   D(15,19,25,27)         62.8921                                         !
 ! D65   D(15,19,25,28)       -177.5816                                         !
 ! D66   D(20,19,25,26)       -178.1264                                         !
 ! D67   D(20,19,25,27)        -56.6148                                         !
 ! D68   D(20,19,25,28)         62.9115                                         !
 ! D69   D(21,19,25,26)         64.0194                                         !
 ! D70   D(21,19,25,27)       -174.469                                          !
 ! D71   D(21,19,25,28)        -54.9426                                         !
 ! D72   D(14,29,31,32)        -14.1699                                         !
 ! D73   D(14,29,31,33)       -132.7749                                         !
 ! D74   D(14,29,31,34)        106.1                                            !
 ! D75   D(30,29,31,32)        149.798                                          !
 ! D76   D(30,29,31,33)         31.193                                          !
 ! D77   D(30,29,31,34)        -89.9321                                         !
 ! D78   D(29,31,33,36)        -32.8069                                         !
 ! D79   D(29,31,33,45)        146.4541                                         !
 ! D80   D(32,31,33,36)       -148.6183                                         !
 ! D81   D(32,31,33,45)         30.6427                                         !
 ! D82   D(34,31,33,36)         88.377                                          !
 ! D83   D(34,31,33,45)        -92.3619                                         !
 ! D84   D(29,31,34,35)         64.6432                                         !
 ! D85   D(29,31,34,37)       -177.0147                                         !
 ! D86   D(29,31,34,41)        -53.411                                          !
 ! D87   D(32,31,34,35)       -176.1784                                         !
 ! D88   D(32,31,34,37)        -57.8363                                         !
 ! D89   D(32,31,34,41)         65.7674                                         !
 ! D90   D(33,31,34,35)        -51.9504                                         !
 ! D91   D(33,31,34,37)         66.3918                                         !
 ! D92   D(33,31,34,41)       -170.0045                                         !
 ! D93   D(31,33,45,46)          4.7687                                         !
 ! D94   D(31,33,45,47)        175.2287                                         !
 ! D95   D(36,33,45,46)       -176.006                                          !
 ! D96   D(36,33,45,47)         -5.546                                          !
 ! D97   D(31,34,37,38)         61.3502                                         !
 ! D98   D(31,34,37,39)        179.6475                                         !
 ! D99   D(31,34,37,40)        -60.3026                                         !
 ! D100  D(35,34,37,38)        178.554                                          !
 ! D101  D(35,34,37,39)        -63.1487                                         !
 ! D102  D(35,34,37,40)         56.9013                                         !
 ! D103  D(41,34,37,38)        -62.7295                                         !
 ! D104  D(41,34,37,39)         55.5678                                         !
 ! D105  D(41,34,37,40)        175.6178                                         !
 ! D106  D(31,34,41,42)        -60.426                                          !
 ! D107  D(31,34,41,43)       -179.9596                                         !
 ! D108  D(31,34,41,44)         60.4918                                         !
 ! D109  D(35,34,41,42)       -177.3449                                         !
 ! D110  D(35,34,41,43)         63.1215                                         !
 ! D111  D(35,34,41,44)        -56.427                                          !
 ! D112  D(37,34,41,42)         63.9226                                         !
 ! D113  D(37,34,41,43)        -55.611                                          !
 ! D114  D(37,34,41,44)       -175.1596                                         !
 ! D115  D(33,45,47,48)         -7.7937                                         !
 ! D116  D(33,45,47,49)       -124.3843                                         !
 ! D117  D(33,45,47,50)        111.5192                                         !
 ! D118  D(46,45,47,48)        162.7962                                         !
 ! D119  D(46,45,47,49)         46.2057                                         !
 ! D120  D(46,45,47,50)        -77.8908                                         !
 ! D121  D(45,47,49,53)        169.42                                           !
 ! D122  D(45,47,49,66)        -12.9642                                         !
 ! D123  D(48,47,49,53)         53.1801                                         !
 ! D124  D(48,47,49,66)       -129.2041                                         !
 ! D125  D(50,47,49,53)        -64.3272                                         !
 ! D126  D(50,47,49,66)        113.2886                                         !
 ! D127  D(45,47,50,51)         59.477                                          !
 ! D128  D(45,47,50,52)        174.3683                                         !
 ! D129  D(45,47,50,54)        -63.2825                                         !
 ! D130  D(48,47,50,51)        177.2604                                         !
 ! D131  D(48,47,50,52)        -67.8483                                         !
 ! D132  D(48,47,50,54)         54.5009                                         !
 ! D133  D(49,47,50,51)        -66.5316                                         !
 ! D134  D(49,47,50,52)         48.3597                                         !
 ! D135  D(49,47,50,54)        170.7088                                         !
 ! D136  D(47,49,66,67)       -177.8216                                         !
 ! D137  D(53,49,66,67)         -0.1967                                         !
 ! D138  D(47,50,54,55)         57.3227                                         !
 ! D139  D(47,50,54,56)        -58.0892                                         !
 ! D140  D(47,50,54,57)        179.0756                                         !
 ! D141  D(51,50,54,55)        -64.9529                                         !
 ! D142  D(51,50,54,56)        179.6351                                         !
 ! D143  D(51,50,54,57)         56.8                                            !
 ! D144  D(52,50,54,55)        177.4192                                         !
 ! D145  D(52,50,54,56)         62.0073                                         !
 ! D146  D(52,50,54,57)        -60.8278                                         !
 ! D147  D(50,54,57,58)       -171.0297                                         !
 ! D148  D(50,54,57,59)        -55.787                                          !
 ! D149  D(50,54,57,60)         67.2649                                         !
 ! D150  D(55,54,57,58)        -49.1703                                         !
 ! D151  D(55,54,57,59)         66.0725                                         !
 ! D152  D(55,54,57,60)       -170.8756                                         !
 ! D153  D(56,54,57,58)         66.3364                                         !
 ! D154  D(56,54,57,59)       -178.4209                                         !
 ! D155  D(56,54,57,60)        -55.369                                          !
 ! D156  D(54,57,60,61)       -176.9365                                         !
 ! D157  D(54,57,60,62)        -61.6555                                         !
 ! D158  D(54,57,60,63)         61.4527                                         !
 ! D159  D(58,57,60,61)         61.2687                                         !
 ! D160  D(58,57,60,62)        176.5497                                         !
 ! D161  D(58,57,60,63)        -60.3421                                         !
 ! D162  D(59,57,60,61)        -53.6144                                         !
 ! D163  D(59,57,60,62)         61.6666                                         !
 ! D164  D(59,57,60,63)       -175.2252                                         !
 ! D165  D(57,60,63,64)        -63.4296                                         !
 ! D166  D(57,60,63,65)         54.7079                                         !
 ! D167  D(61,60,63,64)        174.5734                                         !
 ! D168  D(61,60,63,65)        -67.2892                                         !
 ! D169  D(62,60,63,64)         61.1159                                         !
 ! D170  D(62,60,63,65)        179.2533                                         !
 --------------------------------------------------------------------------------
 Symmetry turned off by external request.
 Stoichiometry    C19H38N5O5(1+)
 Framework group  C1[X(C19H38N5O5)]
 Deg. of freedom   195
 Full point group                 C1      NOp   1
                          Input orientation:                          
 ---------------------------------------------------------------------
 Center     Atomic      Atomic             Coordinates (Angstroms)
 Number     Number       Type             X           Y           Z
 ---------------------------------------------------------------------
      1          7           0       -6.006569    2.389100    2.834683
      2          1           0       -6.076852    2.194452    3.837167
      3          1           0       -6.763333    3.027987    2.576176
      4          1           0       -6.083782    1.473370    2.273397
      5          6           0       -4.644246    2.860615    2.405424
      6          1           0       -3.994234    2.954718    3.277143
      7          1           0       -4.728639    3.830855    1.913296
      8          6           0       -4.164375    1.748543    1.429428
      9          8           0       -4.953435    0.808798    1.237608
     10          7           0       -2.969927    1.916842    0.889633
     11          1           0       -2.324255    2.638203    1.229501
     12          6           0       -2.256751    0.940524    0.055294
     13          1           0       -2.608927   -0.061628    0.315544
     14          6           0       -0.774201    1.122644    0.467520
     15          6           0       -2.431254    1.210229   -1.456726
     16          1           0       -2.102607    2.240413   -1.648115
     17          1           0       -1.728704    0.558609   -1.993801
     18          8           0       -0.433708    2.145446    1.070896
     19          6           0       -3.845212    0.996178   -2.034036
     20          1           0       -4.551408    1.607104   -1.452791
     21          6           0       -3.881353    1.495687   -3.487140
     22          1           0       -3.190573    0.921443   -4.116988
     23          1           0       -4.884643    1.385339   -3.912349
     24          1           0       -3.599665    2.552803   -3.558946
     25          6           0       -4.296932   -0.469287   -1.948703
     26          1           0       -3.602095   -1.125627   -2.488083
     27          1           0       -4.373341   -0.821271   -0.914772
     28          1           0       -5.285030   -0.592734   -2.405187
     29          7           0        0.052041    0.127854    0.110354
     30          1           0       -0.272168   -0.627477   -0.489026
     31          6           0        1.511408    0.188809    0.209831
     32          1           0        1.788415    1.236090    0.369081
     33          6           0        2.006932   -0.328667   -1.157727
     34          6           0        2.052014   -0.675419    1.388360
     35          1           0        1.810402   -1.720481    1.148525
     36          8           0        1.354810   -1.189219   -1.749765
     37          6           0        3.576720   -0.547481    1.531201
     38          1           0        3.865328    0.490335    1.746532
     39          1           0        3.924542   -1.159869    2.369502
     40          1           0        4.118028   -0.873357    0.639018
     41          6           0        1.360323   -0.306385    2.708715
     42          1           0        1.534001    0.744793    2.966904
     43          1           0        1.755599   -0.924564    3.521818
     44          1           0        0.279552   -0.470128    2.661762
     45          7           0        3.147527    0.218123   -1.642950
     46          1           0        3.660003    0.875831   -1.070562
     47          6           0        3.781933   -0.248650   -2.872233
     48          1           0        3.241084   -1.150592   -3.172055
     49          6           0        5.238605   -0.656051   -2.662149
     50          6           0        3.707223    0.784936   -4.021448
     51          1           0        4.207986    1.710914   -3.703762
     52          1           0        4.295109    0.378994   -4.851230
     53          8           0        5.894012   -1.239134   -3.490641
     54          6           0        2.273499    1.094225   -4.469278
     55          1           0        1.697548    1.454905   -3.607658
     56          1           0        1.784532    0.163978   -4.790613
     57          6           0        2.192294    2.137756   -5.596025
     58          1           0        1.137574    2.414581   -5.739413
     59          1           0        2.707905    3.056716   -5.279376
     60          6           0        2.765317    1.688858   -6.957371
     61          1           0        2.698724    2.533647   -7.653999
     62          1           0        3.834881    1.463240   -6.863437
     63          7           0        2.129203    0.537697   -7.598508
     64          1           0        2.238993   -0.302501   -7.034277
     65          1           0        1.127145    0.694443   -7.697526
     66          8           0        5.740124   -0.250853   -1.467351
     67          1           0        6.676322   -0.529411   -1.452177
 ---------------------------------------------------------------------
 Rotational constants (GHZ):           0.1979755           0.0746217           0.0583226
 Standard basis: 6-31G(d) (6D, 7F)
   511 basis functions,   964 primitive gaussians,   511 cartesian basis functions
   113 alpha electrons      113 beta electrons
       nuclear repulsion energy      2979.3033559604 Hartrees.
 NAtoms=   67 NActive=   67 NUniq=   67 SFac= 1.00D+00 NAtFMM=   60 NAOKFM=T Big=T
 Integral buffers will be    131072 words long.
 Raffenetti 2 integral format.
 Two-electron integral symmetry is turned off.
 One-electron integrals computed using PRISM.
 NBasis=   511 RedAO= T EigKep=  2.08D-03  NBF=   511
 NBsUse=   511 1.00D-06 EigRej= -1.00D+00 NBFU=   511
 Initial guess from the checkpoint file:  "conf-252.chk"
 B after Tr=     0.000000    0.000000    0.000000
         Rot=    1.000000    0.000000    0.000000    0.000000 Ang=   0.00 deg.
 Requested convergence on RMS density matrix=1.00D-08 within 128 cycles.
 Requested convergence on MAX density matrix=1.00D-06.
 Requested convergence on             energy=1.00D-06.
 No special actions if energy rises.
 SCF Done:  E(RB3LYP) =  -1396.63220216     A.U. after    1 cycles
            NFock=  1  Conv=0.66D-08     -V/T= 2.0095

 **********************************************************************

            Population analysis using the SCF Density.

 **********************************************************************

 Alpha  occ. eigenvalues --  -19.28874 -19.27843 -19.22949 -19.21466 -19.20730
 Alpha  occ. eigenvalues --  -14.62299 -14.50877 -14.46422 -14.45367 -14.36178
 Alpha  occ. eigenvalues --  -10.45680 -10.42737 -10.39983 -10.39794 -10.37977
 Alpha  occ. eigenvalues --  -10.35585 -10.32638 -10.31841 -10.29369 -10.28523
 Alpha  occ. eigenvalues --  -10.28150 -10.26349 -10.25782 -10.25767 -10.25738
 Alpha  occ. eigenvalues --  -10.25354 -10.25333 -10.25105 -10.24079  -1.21277
 Alpha  occ. eigenvalues --   -1.18388  -1.15887  -1.14863  -1.12702  -1.09352
 Alpha  occ. eigenvalues --   -1.07572  -1.03033  -1.01661  -0.92978  -0.92948
 Alpha  occ. eigenvalues --   -0.90283  -0.89330  -0.87160  -0.85638  -0.82684
 Alpha  occ. eigenvalues --   -0.79824  -0.77147  -0.76672  -0.76293  -0.76221
 Alpha  occ. eigenvalues --   -0.75959  -0.75700  -0.72457  -0.70366  -0.69919
 Alpha  occ. eigenvalues --   -0.68547  -0.68167  -0.67814  -0.65928  -0.65581
 Alpha  occ. eigenvalues --   -0.64472  -0.63643  -0.62491  -0.61965  -0.60236
 Alpha  occ. eigenvalues --   -0.59244  -0.57781  -0.57458  -0.56323  -0.55926
 Alpha  occ. eigenvalues --   -0.54989  -0.54765  -0.54470  -0.54164  -0.53997
 Alpha  occ. eigenvalues --   -0.53218  -0.52620  -0.52061  -0.51729  -0.50969
 Alpha  occ. eigenvalues --   -0.50103  -0.49566  -0.49120  -0.48544  -0.48401
 Alpha  occ. eigenvalues --   -0.47849  -0.47430  -0.47030  -0.46914  -0.46724
 Alpha  occ. eigenvalues --   -0.45937  -0.45548  -0.45351  -0.43877  -0.43790
 Alpha  occ. eigenvalues --   -0.43254  -0.42851  -0.42492  -0.42047  -0.41937
 Alpha  occ. eigenvalues --   -0.41734  -0.41464  -0.40482  -0.40243  -0.39626
 Alpha  occ. eigenvalues --   -0.39358  -0.38347  -0.37110  -0.36667  -0.36088
 Alpha  occ. eigenvalues --   -0.34394  -0.33144  -0.28105
 Alpha virt. eigenvalues --   -0.13891  -0.13527  -0.08660  -0.08067  -0.06796
 Alpha virt. eigenvalues --   -0.06489  -0.06364  -0.02957  -0.02495  -0.01149
 Alpha virt. eigenvalues --   -0.00926   0.00462   0.01080   0.01268   0.01334
 Alpha virt. eigenvalues --    0.02801   0.02915   0.03285   0.03511   0.04756
 Alpha virt. eigenvalues --    0.04788   0.05349   0.05756   0.05986   0.06532
 Alpha virt. eigenvalues --    0.06824   0.06930   0.07535   0.07726   0.08010
 Alpha virt. eigenvalues --    0.08140   0.08896   0.09112   0.09367   0.09799
 Alpha virt. eigenvalues --    0.10085   0.10333   0.11017   0.11460   0.11653
 Alpha virt. eigenvalues --    0.11929   0.12331   0.12556   0.12792   0.13820
 Alpha virt. eigenvalues --    0.14083   0.14252   0.14512   0.15095   0.15333
 Alpha virt. eigenvalues --    0.15413   0.16304   0.16816   0.17453   0.17702
 Alpha virt. eigenvalues --    0.17951   0.18260   0.18476   0.18861   0.19583
 Alpha virt. eigenvalues --    0.20117   0.21561   0.23319   0.25438   0.26083
 Alpha virt. eigenvalues --    0.26969   0.27550   0.30478   0.32079   0.33354
 Alpha virt. eigenvalues --    0.33897   0.35908   0.37618   0.39746   0.40318
 Alpha virt. eigenvalues --    0.40752   0.41513   0.42520   0.42869   0.43092
 Alpha virt. eigenvalues --    0.43340   0.44026   0.45344   0.45449   0.46343
 Alpha virt. eigenvalues --    0.46899   0.47300   0.47585   0.48601   0.48922
 Alpha virt. eigenvalues --    0.49992   0.50445   0.50984   0.51762   0.52368
 Alpha virt. eigenvalues --    0.52888   0.53467   0.53771   0.54690   0.55380
 Alpha virt. eigenvalues --    0.55977   0.56366   0.56992   0.57797   0.58141
 Alpha virt. eigenvalues --    0.58628   0.59038   0.59439   0.60421   0.60714
 Alpha virt. eigenvalues --    0.61436   0.61787   0.62682   0.63085   0.63182
 Alpha virt. eigenvalues --    0.63629   0.63902   0.64528   0.64835   0.66093
 Alpha virt. eigenvalues --    0.66715   0.67493   0.67682   0.67831   0.68451
 Alpha virt. eigenvalues --    0.68873   0.69677   0.70076   0.70682   0.71143
 Alpha virt. eigenvalues --    0.72893   0.73676   0.73948   0.74302   0.74989
 Alpha virt. eigenvalues --    0.75239   0.75481   0.75659   0.76442   0.77050
 Alpha virt. eigenvalues --    0.77540   0.78100   0.78176   0.79199   0.79409
 Alpha virt. eigenvalues --    0.79670   0.80536   0.80723   0.80934   0.81184
 Alpha virt. eigenvalues --    0.81847   0.82127   0.82503   0.82902   0.83023
 Alpha virt. eigenvalues --    0.83808   0.83856   0.84176   0.84592   0.85392
 Alpha virt. eigenvalues --    0.85512   0.85978   0.86287   0.86709   0.86829
 Alpha virt. eigenvalues --    0.87077   0.87954   0.88493   0.89340   0.89773
 Alpha virt. eigenvalues --    0.90154   0.90679   0.90867   0.91243   0.91684
 Alpha virt. eigenvalues --    0.92047   0.92969   0.93579   0.95155   0.96307
 Alpha virt. eigenvalues --    0.96778   0.97157   0.97214   0.98669   0.99426
 Alpha virt. eigenvalues --    1.00028   1.01295   1.02123   1.03218   1.04054
 Alpha virt. eigenvalues --    1.05063   1.05725   1.06622   1.08645   1.09084
 Alpha virt. eigenvalues --    1.09795   1.12223   1.13235   1.14719   1.16627
 Alpha virt. eigenvalues --    1.18697   1.19964   1.20945   1.22295   1.24351
 Alpha virt. eigenvalues --    1.26493   1.26735   1.27040   1.30168   1.31065
 Alpha virt. eigenvalues --    1.33019   1.33788   1.34350   1.35529   1.35847
 Alpha virt. eigenvalues --    1.37704   1.38702   1.39629   1.40360   1.42432
 Alpha virt. eigenvalues --    1.42642   1.45263   1.45984   1.47023   1.47710
 Alpha virt. eigenvalues --    1.48758   1.49788   1.52170   1.53531   1.53903
 Alpha virt. eigenvalues --    1.55268   1.55991   1.56479   1.56916   1.58260
 Alpha virt. eigenvalues --    1.59537   1.60429   1.60910   1.61975   1.62606
 Alpha virt. eigenvalues --    1.63095   1.64720   1.65524   1.66108   1.66799
 Alpha virt. eigenvalues --    1.67740   1.68522   1.69345   1.69635   1.70132
 Alpha virt. eigenvalues --    1.70915   1.71202   1.71744   1.72818   1.73115
 Alpha virt. eigenvalues --    1.74691   1.75297   1.76118   1.76282   1.78071
 Alpha virt. eigenvalues --    1.78680   1.79521   1.80129   1.81287   1.82090
 Alpha virt. eigenvalues --    1.83048   1.83332   1.84307   1.84458   1.85261
 Alpha virt. eigenvalues --    1.86101   1.86281   1.86941   1.87147   1.88034
 Alpha virt. eigenvalues --    1.88779   1.89400   1.89781   1.90772   1.91073
 Alpha virt. eigenvalues --    1.92236   1.93117   1.93879   1.94934   1.95185
 Alpha virt. eigenvalues --    1.97555   1.98032   1.98162   1.99169   1.99577
 Alpha virt. eigenvalues --    2.00566   2.01050   2.01741   2.02113   2.02234
 Alpha virt. eigenvalues --    2.02968   2.04969   2.07084   2.08381   2.09524
 Alpha virt. eigenvalues --    2.10519   2.12541   2.13472   2.14065   2.14496
 Alpha virt. eigenvalues --    2.16012   2.16323   2.17533   2.17835   2.18503
 Alpha virt. eigenvalues --    2.19652   2.20429   2.20564   2.22543   2.23953
 Alpha virt. eigenvalues --    2.24854   2.25743   2.26650   2.27481   2.29363
 Alpha virt. eigenvalues --    2.30903   2.31384   2.32705   2.34459   2.34487
 Alpha virt. eigenvalues --    2.35486   2.36198   2.36489   2.39663   2.40654
 Alpha virt. eigenvalues --    2.41220   2.42440   2.42727   2.43760   2.44407
 Alpha virt. eigenvalues --    2.46001   2.46975   2.49281   2.51227   2.51840
 Alpha virt. eigenvalues --    2.53375   2.56499   2.57703   2.58667   2.60226
 Alpha virt. eigenvalues --    2.60998   2.62565   2.63430   2.63775   2.65271
 Alpha virt. eigenvalues --    2.65715   2.67696   2.68764   2.68807   2.72521
 Alpha virt. eigenvalues --    2.74221   2.75472   2.77392   2.78336   2.82762
 Alpha virt. eigenvalues --    2.85044   2.86100   2.89497   2.91256   2.93981
 Alpha virt. eigenvalues --    3.00178   3.04085   3.07896   3.10138   3.60893
 Alpha virt. eigenvalues --    3.73026   3.77853   3.90209   3.93038   3.95094
 Alpha virt. eigenvalues --    3.97891   4.02526   4.06541   4.08117   4.09834
 Alpha virt. eigenvalues --    4.10892   4.12512   4.13951   4.17147   4.20430
 Alpha virt. eigenvalues --    4.22601   4.23473   4.27931   4.31514   4.32642
 Alpha virt. eigenvalues --    4.35426   4.38569   4.43051   4.45080   4.46754
 Alpha virt. eigenvalues --    4.55544   4.58874   4.64341
          Condensed to atoms (all electrons):
 Mulliken charges:
               1
     1  N   -0.750971
     2  H    0.423608
     3  H    0.423468
     4  H    0.440894
     5  C   -0.278804
     6  H    0.249348
     7  H    0.249532
     8  C    0.637926
     9  O   -0.527628
    10  N   -0.586335
    11  H    0.373847
    12  C   -0.089486
    13  H    0.195466
    14  C    0.631395
    15  C   -0.261696
    16  H    0.152796
    17  H    0.164679
    18  O   -0.546115
    19  C   -0.071596
    20  H    0.115603
    21  C   -0.447612
    22  H    0.155367
    23  H    0.158841
    24  H    0.146076
    25  C   -0.460558
    26  H    0.152558
    27  H    0.155467
    28  H    0.159935
    29  N   -0.605782
    30  H    0.362289
    31  C   -0.063038
    32  H    0.174195
    33  C    0.624478
    34  C   -0.073284
    35  H    0.149550
    36  O   -0.537757
    37  C   -0.477982
    38  H    0.144407
    39  H    0.166231
    40  H    0.169758
    41  C   -0.445824
    42  H    0.157765
    43  H    0.159805
    44  H    0.137700
    45  N   -0.596569
    46  H    0.349656
    47  C   -0.070682
    48  H    0.218676
    49  C    0.594949
    50  C   -0.272215
    51  H    0.140969
    52  H    0.183691
    53  O   -0.440206
    54  C   -0.260288
    55  H    0.129439
    56  H    0.135128
    57  C   -0.265595
    58  H    0.124841
    59  H    0.129913
    60  C   -0.148562
    61  H    0.151719
    62  H    0.149795
    63  N   -0.700776
    64  H    0.298035
    65  H    0.292707
    66  O   -0.578941
    67  H    0.425801
 Sum of Mulliken charges =   1.00000
 Mulliken charges with hydrogens summed into heavy atoms:
               1
     1  N    0.536999
     5  C    0.220075
     8  C    0.637926
     9  O   -0.527628
    10  N   -0.212488
    12  C    0.105980
    14  C    0.631395
    15  C    0.055779
    18  O   -0.546115
    19  C    0.044007
    21  C    0.012673
    25  C    0.007402
    29  N   -0.243493
    31  C    0.111158
    33  C    0.624478
    34  C    0.076267
    36  O   -0.537757
    37  C    0.002413
    41  C    0.009445
    45  N   -0.246913
    47  C    0.147994
    49  C    0.594949
    50  C    0.052445
    53  O   -0.440206
    54  C    0.004279
    57  C   -0.010840
    60  C    0.152952
    63  N   -0.110034
    66  O   -0.153140
 Electronic spatial extent (au):  <R**2>=          19822.7373
 Charge=              1.0000 electrons
 Dipole moment (field-independent basis, Debye):
    X=            -17.9233    Y=             11.8147    Z=             10.6403  Tot=             23.9594
 Quadrupole moment (field-independent basis, Debye-Ang):
   XX=            -30.3595   YY=           -147.2976   ZZ=           -154.4233
   XY=            -54.0438   XZ=            -46.8798   YZ=             16.4265
 Traceless Quadrupole moment (field-independent basis, Debye-Ang):
   XX=             80.3339   YY=            -36.6041   ZZ=            -43.7299
   XY=            -54.0438   XZ=            -46.8798   YZ=             16.4265
 Octapole moment (field-independent basis, Debye-Ang**2):
  XXX=           -750.4328  YYY=           -252.8322  ZZZ=            994.4271  XYY=           -217.2687
  XXY=            272.2358  XXZ=            639.8665  XZZ=           -358.9158  YZZ=              6.3237
  YYZ=            300.5887  XYZ=           -201.7138
 Hexadecapole moment (field-independent basis, Debye-Ang**3):
 XXXX=          -7258.5888 YYYY=          -1758.9040 ZZZZ=         -12135.4651 XXXY=           -933.3564
 XXXZ=            355.4212 YYYX=            569.5420 YYYZ=            563.3914 ZZZX=           2621.9444
 ZZZY=            476.9606 XXYY=          -1511.4039 XXZZ=          -3092.7218 YYZZ=          -1798.3259
 XXYZ=            920.1746 YYXZ=            333.9557 ZZXY=            -21.1282
 N-N= 2.979303355960D+03 E-N=-9.188027373646D+03  KE= 1.383497902053D+03
 Unable to Open any file for archive entry.
 1\1\GINC-AMR-160\SP\RB3LYP\6-31G(d)\C19H38N5O5(1+)\KENGMITH\27-May-202
 2\0\\# B3LYP/6-31G* guess=read geom=check nosymm integral(ultrafinegri
 d)\\Candidate Structure: Conf:252 Charge calc in gas phase\\1,1\N,0,-6
 .0065692871,2.3890995164,2.8346829588\H,0,-6.0768520935,2.1944516065,3
 .8371668332\H,0,-6.7633325899,3.0279870988,2.5761755402\H,0,-6.0837821
 271,1.4733704034,2.2733969357\C,0,-4.6442458559,2.8606146103,2.4054236
 328\H,0,-3.9942338788,2.9547182137,3.2771432886\H,0,-4.728639357,3.830
 8552474,1.9132955483\C,0,-4.1643751483,1.7485425159,1.4294276685\O,0,-
 4.9534347033,0.8087981678,1.2376076115\N,0,-2.9699265025,1.9168421415,
 0.8896329881\H,0,-2.3242553605,2.6382028142,1.2295006803\C,0,-2.256751
 4144,0.9405235745,0.05529365\H,0,-2.6089269866,-0.0616284461,0.3155437
 002\C,0,-0.7742007186,1.1226442786,0.4675195442\C,0,-2.431253715,1.210
 228809,-1.4567257431\H,0,-2.1026066565,2.2404134678,-1.6481151956\H,0,
 -1.7287040836,0.5586094767,-1.9938007661\O,0,-0.4337077692,2.145445770
 4,1.070895756\C,0,-3.8452120402,0.9961778693,-2.034036149\H,0,-4.55140
 81573,1.607103991,-1.4527913521\C,0,-3.881352593,1.4956868953,-3.48714
 04506\H,0,-3.190573329,0.9214425648,-4.1169883244\H,0,-4.884643154,1.3
 853393427,-3.9123493953\H,0,-3.5996647369,2.5528032031,-3.5589461589\C
 ,0,-4.2969320562,-0.4692871553,-1.9487025376\H,0,-3.6020953302,-1.1256
 27059,-2.4880828314\H,0,-4.3733409446,-0.821271258,-0.9147718501\H,0,-
 5.2850304834,-0.5927341012,-2.4051868875\N,0,0.0520408905,0.1278543556
 ,0.110354406\H,0,-0.2721675218,-0.6274773032,-0.4890260882\C,0,1.51140
 79055,0.1888086015,0.2098313819\H,0,1.7884146022,1.2360898692,0.369080
 9226\C,0,2.0069318709,-0.3286673387,-1.1577271188\C,0,2.0520136283,-0.
 6754185234,1.3883601798\H,0,1.810402494,-1.7204807796,1.1485249506\O,0
 ,1.3548096435,-1.189219358,-1.7497646393\C,0,3.5767196592,-0.547480958
 7,1.5312009861\H,0,3.8653282808,0.4903353713,1.7465318363\H,0,3.924541
 9904,-1.1598686429,2.3695016645\H,0,4.1180281386,-0.8733573575,0.63901
 82207\C,0,1.3603232119,-0.3063851324,2.7087149536\H,0,1.5340013393,0.7
 447926231,2.9669040315\H,0,1.7555988161,-0.9245638382,3.5218181329\H,0
 ,0.279551511,-0.4701283385,2.6617624863\N,0,3.1475274175,0.2181233184,
 -1.6429501537\H,0,3.6600027881,0.8758308672,-1.0705623728\C,0,3.781933
 4047,-0.2486502693,-2.8722325656\H,0,3.2410839348,-1.1505924042,-3.172
 0549906\C,0,5.2386053047,-0.6560513724,-2.6621493399\C,0,3.7072234404,
 0.7849356349,-4.021447892\H,0,4.2079864029,1.7109140293,-3.7037621244\
 H,0,4.2951093108,0.3789941472,-4.8512304991\O,0,5.8940117786,-1.239133
 5892,-3.4906405202\C,0,2.2734988204,1.0942245559,-4.4692781848\H,0,1.6
 975475037,1.4549045885,-3.6076580012\H,0,1.7845316372,0.1639779222,-4.
 7906125423\C,0,2.1922940941,2.1377562107,-5.5960247044\H,0,1.137574032
 1,2.4145808821,-5.7394127767\H,0,2.7079050141,3.0567163941,-5.27937636
 65\C,0,2.7653173208,1.688858405,-6.9573714684\H,0,2.6987236125,2.53364
 6794,-7.6539990532\H,0,3.8348809574,1.463239743,-6.8634368847\N,0,2.12
 92033914,0.5376969056,-7.5985076919\H,0,2.2389928188,-0.3025013188,-7.
 0342770401\H,0,1.1271447525,0.6944429286,-7.6975262191\O,0,5.740124109
 4,-0.2508531281,-1.4673510133\H,0,6.6763221356,-0.5294113437,-1.452177
 1264\\Version=ES64L-G16RevC.01\HF=-1396.6322022\RMSD=6.590e-09\Dipole=
 -7.4888489,3.4079287,6.5745702\Quadrupole=59.7263169,-27.2142418,-32.5
 120751,-40.1802608,-34.8540185,12.2127323\PG=C01 [X(C19H38N5O5)]\\@
 The archive entry for this job was punched.


 SEEN ON A WALL AT THE UNIVERSITY OF ILLINOIS AT CHICAGO CIRCLE:

 TO DO IS TO BE  -- SOCRATES
 TO BE IS TO DO  -- SARTRE
 OO BE DO BE DO  -- SINATRA
 Job cpu time:       0 days  0 hours  0 minutes 57.0 seconds.
 Elapsed time:       0 days  0 hours  0 minutes 14.8 seconds.
 File lengths (MBytes):  RWF=    256 Int=      0 D2E=      0 Chk=     40 Scr=     16
 Normal termination of Gaussian 16 at Fri May 27 02:24:35 2022.
