 Entering Gaussian System, Link 0=/opt/software/Gaussian/g16-AVX2-C.01/g16/g16
 Input=charge-conf-885.com
 Output=charge-conf-885.log
 Initial command:
 /opt/software/Gaussian/g16-AVX2-C.01/g16/l1.exe "/mnt/gs18/scratch/users/kengmith/Gau-204232.inp" -scrdir="/mnt/gs18/scratch/users/kengmith/"
 Entering Link 1 = /opt/software/Gaussian/g16-AVX2-C.01/g16/l1.exe PID=    204242.
  
 Copyright (c) 1988-2019, Gaussian, Inc.  All Rights Reserved.
  
 This is part of the Gaussian(R) 16 program.  It is based on
 the Gaussian(R) 09 system (copyright 2009, Gaussian, Inc.),
 the Gaussian(R) 03 system (copyright 2003, Gaussian, Inc.),
 the Gaussian(R) 98 system (copyright 1998, Gaussian, Inc.),
 the Gaussian(R) 94 system (copyright 1995, Gaussian, Inc.),
 the Gaussian 92(TM) system (copyright 1992, Gaussian, Inc.),
 the Gaussian 90(TM) system (copyright 1990, Gaussian, Inc.),
 the Gaussian 88(TM) system (copyright 1988, Gaussian, Inc.),
 the Gaussian 86(TM) system (copyright 1986, Carnegie Mellon
 University), and the Gaussian 82(TM) system (copyright 1983,
 Carnegie Mellon University). Gaussian is a federally registered
 trademark of Gaussian, Inc.
  
 This software contains proprietary and confidential information,
 including trade secrets, belonging to Gaussian, Inc.
  
 This software is provided under written license and may be
 used, copied, transmitted, or stored only in accord with that
 written license.
  
 The following legend is applicable only to US Government
 contracts under FAR:
  
                    RESTRICTED RIGHTS LEGEND
  
 Use, reproduction and disclosure by the US Government is
 subject to restrictions as set forth in subparagraphs (a)
 and (c) of the Commercial Computer Software - Restricted
 Rights clause in FAR 52.227-19.
  
 Gaussian, Inc.
 340 Quinnipiac St., Bldg. 40, Wallingford CT 06492
  
  
 ---------------------------------------------------------------
 Warning -- This program may not be used in any manner that
 competes with the business of Gaussian, Inc. or will provide
 assistance to any competitor of Gaussian, Inc.  The licensee
 of this program is prohibited from giving any competitor of
 Gaussian, Inc. access to this program.  By using this program,
 the user acknowledges that Gaussian, Inc. is engaged in the
 business of creating and licensing software in the field of
 computational chemistry and represents and warrants to the
 licensee that it is not a competitor of Gaussian, Inc. and that
 it will not use this program in any manner prohibited above.
 ---------------------------------------------------------------
  

 Cite this work as:
 Gaussian 16, Revision C.01,
 M. J. Frisch, G. W. Trucks, H. B. Schlegel, G. E. Scuseria, 
 M. A. Robb, J. R. Cheeseman, G. Scalmani, V. Barone, 
 G. A. Petersson, H. Nakatsuji, X. Li, M. Caricato, A. V. Marenich, 
 J. Bloino, B. G. Janesko, R. Gomperts, B. Mennucci, H. P. Hratchian, 
 J. V. Ortiz, A. F. Izmaylov, J. L. Sonnenberg, D. Williams-Young, 
 F. Ding, F. Lipparini, F. Egidi, J. Goings, B. Peng, A. Petrone, 
 T. Henderson, D. Ranasinghe, V. G. Zakrzewski, J. Gao, N. Rega, 
 G. Zheng, W. Liang, M. Hada, M. Ehara, K. Toyota, R. Fukuda, 
 J. Hasegawa, M. Ishida, T. Nakajima, Y. Honda, O. Kitao, H. Nakai, 
 T. Vreven, K. Throssell, J. A. Montgomery, Jr., J. E. Peralta, 
 F. Ogliaro, M. J. Bearpark, J. J. Heyd, E. N. Brothers, K. N. Kudin, 
 V. N. Staroverov, T. A. Keith, R. Kobayashi, J. Normand, 
 K. Raghavachari, A. P. Rendell, J. C. Burant, S. S. Iyengar, 
 J. Tomasi, M. Cossi, J. M. Millam, M. Klene, C. Adamo, R. Cammi, 
 J. W. Ochterski, R. L. Martin, K. Morokuma, O. Farkas, 
 J. B. Foresman, and D. J. Fox, Gaussian, Inc., Wallingford CT, 2019.
 
 ******************************************
 Gaussian 16:  ES64L-G16RevC.01  3-Jul-2019
                 9-Jul-2022 
 ******************************************
 %mem=8gb
 %nproc=4
 Will use up to    4 processors via shared memory.
 %chk=conf-885.chk
 ----------------------------------------------------------------------
 # B3LYP/6-31G* empiricaldispersion=gd3 guess=read geom=check nosymm in
 tegral(ultrafinegrid)
 ----------------------------------------------------------------------
 1/29=2,38=1,172=1/1;
 2/12=2,15=1,40=1/2;
 3/5=1,6=6,7=1,11=2,14=-4,25=1,30=1,74=-5,75=-5,116=-2,124=31/1,2,3;
 4/5=1/1;
 5/5=2,38=6/2;
 6/7=2,8=2,9=2,10=2,28=1/1;
 99/5=1,9=1/99;
 ------------------------------------------------------
 Candidate Structure: Conf:885 Charge calc in gas phase
 ------------------------------------------------------
 Structure from the checkpoint file:  "conf-885.chk"
 Charge =  1 Multiplicity = 1
 Redundant internal coordinates found in file.  (old form).
 N,0,-4.2243639398,3.4695159845,0.3498980021
 H,0,-3.9816273075,2.9425628297,1.1893136163
 H,0,-5.1244937118,3.942317222,0.4043709478
 C,0,-4.0347759811,2.6686641212,-0.8630223856
 H,0,-4.9876013942,2.4003279691,-1.3439049799
 C,0,-3.289305661,1.3860449129,-0.4830728465
 C,0,-3.1610989908,3.4332136908,-1.9127256616
 H,0,-3.2452921781,2.9476528131,-2.8895852322
 H,0,-3.5901279123,4.4369945534,-1.9998061089
 O,0,-2.8670620381,1.2397006278,0.6983150866
 C,0,-1.6942044644,3.5418617839,-1.5316360336
 C,0,-1.3112093746,4.1311598376,-0.3154913346
 H,0,-2.0937903814,4.4395025558,0.3653963456
 C,0,-0.6989651558,3.1203653871,-2.4245140295
 H,0,-0.9812204052,2.6403555482,-3.3557532488
 C,0,0.0396889731,4.3252991161,-0.0192634327
 H,0,0.3217578642,4.8125932024,0.9079136803
 C,0,0.6521038824,3.3465626797,-2.1430485926
 H,0,1.407913425,3.0833485004,-2.8757661092
 C,0,1.0262621786,3.9558916723,-0.9415371919
 H,0,2.0705091802,4.1664104136,-0.7392864023
 N,0,-3.0784922634,0.4671586959,-1.4494343629
 C,0,-2.2820754574,-0.7636059915,-1.1861736026
 H,0,-2.3163565567,-0.9860390815,-0.1218800357
 C,0,-0.8560906784,-0.4734011434,-1.6244862456
 C,0,-2.9484699022,-1.8641170414,-2.0733981007
 H,0,-2.2310775891,-2.2143089716,-2.8150676773
 H,0,-3.2847132672,-2.7053595867,-1.4650274626
 O,0,-0.726474331,-0.4024617305,-2.976538791
 C,0,-4.1397522178,-1.1521092162,-2.7817070484
 H,0,-4.3032267969,-1.5326832808,-3.7916312034
 H,0,-5.0550999428,-1.2750384585,-2.1960941322
 C,0,-3.7337563475,0.3367196748,-2.7824832674
 H,0,-4.5827173084,1.0121711814,-2.8701490711
 H,0,-2.991684087,0.5402505545,-3.5576205684
 N,0,0.0791000605,-0.2727116303,-0.7592673843
 H,0,-0.2888475353,-0.1096387779,0.7882002029
 C,0,1.4341866487,0.1782746239,-1.2213426408
 H,0,1.3042684162,0.8841980551,-2.0487260564
 C,0,2.2017221559,-1.0242906116,-1.742810643
 C,0,2.2035931635,0.8567407545,-0.0827597689
 H,0,1.7275560482,1.8257051996,0.0768979366
 H,0,3.2183432637,1.0575032842,-0.4415952888
 O,0,3.1236036594,-1.6250103128,-1.2341865121
 C,0,2.2558080824,0.0287482693,1.2323987721
 H,0,1.7111521209,-0.9121282871,1.1013380864
 H,0,3.2888570095,-0.2544653478,1.4498045299
 C,0,1.6913500027,0.8061570859,2.4497847462
 H,0,2.3395378288,1.6632901665,2.6688622115
 H,0,1.7083920896,0.1554904969,3.3333958065
 C,0,0.2661266197,1.3503241262,2.2424050919
 H,0,-0.139521776,1.7640536592,3.1688006576
 H,0,0.2270496219,2.1218146486,1.4700091569
 N,0,-0.6646209109,0.2466755682,1.7596429108
 H,0,-1.6193911097,0.637947371,1.5027215245
 H,0,-0.7350608704,-0.5156423294,2.4458776405
 O,0,1.6563484039,-1.3863932776,-2.9949833821
 H,0,0.2118944869,-0.6861283345,-3.2651811824
 H,0,2.1131183185,-2.1855104962,-3.3772438249
 Recover connectivity data from disk.
                           ----------------------------
                           !    Current Parameters    !
                           ! (Angstroms and Degrees)  !
 --------------------------                            --------------------------
 ! Name  Definition              Value                                          !
 --------------------------------------------------------------------------------
 ! R1    R(1,2)                  1.0204                                         !
 ! R2    R(1,3)                  1.0182                                         !
 ! R3    R(1,4)                  1.4658                                         !
 ! R4    R(4,5)                  1.1005                                         !
 ! R5    R(4,6)                  1.5314                                         !
 ! R6    R(4,7)                  1.5652                                         !
 ! R7    R(6,10)                 1.2631                                         !
 ! R8    R(6,22)                 1.3501                                         !
 ! R9    R(7,8)                  1.0941                                         !
 ! R10   R(7,9)                  1.0951                                         !
 ! R11   R(7,11)                 1.5195                                         !
 ! R12   R(11,12)                1.4046                                         !
 ! R13   R(11,14)                1.4019                                         !
 ! R14   R(12,13)                1.0822                                         !
 ! R15   R(12,16)                1.3966                                         !
 ! R16   R(14,15)                1.085                                          !
 ! R17   R(14,18)                1.3985                                         !
 ! R18   R(16,17)                1.0847                                         !
 ! R19   R(16,20)                1.4001                                         !
 ! R20   R(18,19)                1.0851                                         !
 ! R21   R(18,20)                1.3982                                         !
 ! R22   R(20,21)                1.0843                                         !
 ! R23   R(22,23)                1.4894                                         !
 ! R24   R(22,33)                1.4911                                         !
 ! R25   R(23,24)                1.0878                                         !
 ! R26   R(23,25)                1.5198                                         !
 ! R27   R(23,26)                1.5628                                         !
 ! R28   R(25,29)                1.3601                                         !
 ! R29   R(25,36)                1.2898                                         !
 ! R30   R(26,27)                1.0897                                         !
 ! R31   R(26,28)                1.0913                                         !
 ! R32   R(26,30)                1.5581                                         !
 ! R33   R(30,31)                1.0916                                         !
 ! R34   R(30,32)                1.0936                                         !
 ! R35   R(30,33)                1.5432                                         !
 ! R36   R(33,34)                1.0884                                         !
 ! R37   R(33,35)                1.0922                                         !
 ! R38   R(36,37)                1.5989                                         !
 ! R39   R(36,38)                1.5011                                         !
 ! R40   R(38,39)                1.0953                                         !
 ! R41   R(38,40)                1.5189                                         !
 ! R42   R(38,41)                1.5325                                         !
 ! R43   R(40,44)                1.2122                                         !
 ! R44   R(40,57)                1.413                                          !
 ! R45   R(41,42)                1.0913                                         !
 ! R46   R(41,43)                1.0949                                         !
 ! R47   R(41,45)                1.555                                          !
 ! R48   R(45,46)                1.095                                          !
 ! R49   R(45,47)                1.093                                          !
 ! R50   R(45,48)                1.5508                                         !
 ! R51   R(48,49)                1.0967                                         !
 ! R52   R(48,50)                1.0975                                         !
 ! R53   R(48,51)                1.5396                                         !
 ! R54   R(51,52)                1.0927                                         !
 ! R55   R(51,53)                1.0924                                         !
 ! R56   R(51,54)                1.5223                                         !
 ! R57   R(54,55)                1.0633                                         !
 ! R58   R(54,56)                1.0281                                         !
 ! R59   R(57,58)                1.6278                                         !
 ! R60   R(57,59)                0.9967                                         !
 ! A1    A(2,1,3)              113.9591                                         !
 ! A2    A(2,1,4)              111.5802                                         !
 ! A3    A(3,1,4)              114.3506                                         !
 ! A4    A(1,4,5)              112.5084                                         !
 ! A5    A(1,4,6)              108.3768                                         !
 ! A6    A(1,4,7)              111.1177                                         !
 ! A7    A(5,4,6)              109.0054                                         !
 ! A8    A(5,4,7)              108.0195                                         !
 ! A9    A(6,4,7)              107.6856                                         !
 ! A10   A(4,6,10)             119.4609                                         !
 ! A11   A(4,6,22)             117.9355                                         !
 ! A12   A(10,6,22)            122.5772                                         !
 ! A13   A(4,7,8)              109.8191                                         !
 ! A14   A(4,7,9)              106.403                                          !
 ! A15   A(4,7,11)             113.9292                                         !
 ! A16   A(8,7,9)              107.7968                                         !
 ! A17   A(8,7,11)             109.2653                                         !
 ! A18   A(9,7,11)             109.4278                                         !
 ! A19   A(7,11,12)            120.6891                                         !
 ! A20   A(7,11,14)            120.2722                                         !
 ! A21   A(12,11,14)           118.9471                                         !
 ! A22   A(11,12,13)           117.8471                                         !
 ! A23   A(11,12,16)           120.3796                                         !
 ! A24   A(13,12,16)           121.7655                                         !
 ! A25   A(11,14,15)           119.667                                          !
 ! A26   A(11,14,18)           120.5989                                         !
 ! A27   A(15,14,18)           119.7098                                         !
 ! A28   A(12,16,17)           119.6883                                         !
 ! A29   A(12,16,20)           120.3443                                         !
 ! A30   A(17,16,20)           119.8887                                         !
 ! A31   A(14,18,19)           119.8536                                         !
 ! A32   A(14,18,20)           120.1305                                         !
 ! A33   A(19,18,20)           119.9734                                         !
 ! A34   A(16,20,18)           119.503                                          !
 ! A35   A(16,20,21)           120.2992                                         !
 ! A36   A(18,20,21)           120.1739                                         !
 ! A37   A(6,22,23)            121.2925                                         !
 ! A38   A(6,22,33)            129.112                                          !
 ! A39   A(23,22,33)           108.706                                          !
 ! A40   A(22,23,24)           108.9683                                         !
 ! A41   A(22,23,25)           107.0344                                         !
 ! A42   A(22,23,26)           104.6874                                         !
 ! A43   A(24,23,25)           110.5348                                         !
 ! A44   A(24,23,26)           113.4534                                         !
 ! A45   A(25,23,26)           111.7664                                         !
 ! A46   A(23,25,29)           112.7103                                         !
 ! A47   A(23,25,36)           121.1029                                         !
 ! A48   A(29,25,36)           126.1325                                         !
 ! A49   A(23,26,27)           109.3894                                         !
 ! A50   A(23,26,28)           110.9615                                         !
 ! A51   A(23,26,30)           105.2065                                         !
 ! A52   A(27,26,28)           109.546                                          !
 ! A53   A(27,26,30)           109.9256                                         !
 ! A54   A(28,26,30)           111.7227                                         !
 ! A55   A(26,30,31)           112.0718                                         !
 ! A56   A(26,30,32)           110.1908                                         !
 ! A57   A(26,30,33)           103.8833                                         !
 ! A58   A(31,30,32)           109.3237                                         !
 ! A59   A(31,30,33)           112.0431                                         !
 ! A60   A(32,30,33)           109.2038                                         !
 ! A61   A(22,33,30)           101.5112                                         !
 ! A62   A(22,33,34)           111.1301                                         !
 ! A63   A(22,33,35)           108.6384                                         !
 ! A64   A(30,33,34)           113.1757                                         !
 ! A65   A(30,33,35)           111.0318                                         !
 ! A66   A(34,33,35)           110.9246                                         !
 ! A67   A(25,36,37)           119.8846                                         !
 ! A68   A(25,36,38)           119.6583                                         !
 ! A69   A(37,36,38)           118.3608                                         !
 ! A70   A(36,38,39)           108.6075                                         !
 ! A71   A(36,38,40)           108.9041                                         !
 ! A72   A(36,38,41)           110.9489                                         !
 ! A73   A(39,38,40)           108.1105                                         !
 ! A74   A(39,38,41)           109.5983                                         !
 ! A75   A(40,38,41)           110.6014                                         !
 ! A76   A(38,40,44)           129.2408                                         !
 ! A77   A(38,40,57)           108.1855                                         !
 ! A78   A(44,40,57)           122.5732                                         !
 ! A79   A(38,41,42)           106.4254                                         !
 ! A80   A(38,41,43)           107.6371                                         !
 ! A81   A(38,41,45)           114.1725                                         !
 ! A82   A(42,41,43)           106.823                                          !
 ! A83   A(42,41,45)           111.327                                          !
 ! A84   A(43,41,45)           110.1029                                         !
 ! A85   A(41,45,46)           109.852                                          !
 ! A86   A(41,45,47)           109.7514                                         !
 ! A87   A(41,45,48)           112.6304                                         !
 ! A88   A(46,45,47)           105.7402                                         !
 ! A89   A(46,45,48)           110.0989                                         !
 ! A90   A(47,45,48)           108.5276                                         !
 ! A91   A(45,48,49)           109.4794                                         !
 ! A92   A(45,48,50)           109.2187                                         !
 ! A93   A(45,48,51)           114.103                                          !
 ! A94   A(49,48,50)           107.0586                                         !
 ! A95   A(49,48,51)           107.3247                                         !
 ! A96   A(50,48,51)           109.4131                                         !
 ! A97   A(48,51,52)           111.3026                                         !
 ! A98   A(48,51,53)           112.2081                                         !
 ! A99   A(48,51,54)           110.6377                                         !
 ! A100  A(52,51,53)           108.5892                                         !
 ! A101  A(52,51,54)           108.4451                                         !
 ! A102  A(53,51,54)           105.4213                                         !
 ! A103  A(51,54,55)           111.0288                                         !
 ! A104  A(51,54,56)           111.5786                                         !
 ! A105  A(55,54,56)           111.8756                                         !
 ! A106  A(40,57,58)           112.2934                                         !
 ! A107  A(40,57,59)           111.6215                                         !
 ! A108  A(58,57,59)           133.4659                                         !
 ! D1    D(2,1,4,5)            110.3469                                         !
 ! D2    D(2,1,4,6)            -10.258                                          !
 ! D3    D(2,1,4,7)           -128.3878                                         !
 ! D4    D(3,1,4,5)            -20.827                                          !
 ! D5    D(3,1,4,6)           -141.4319                                         !
 ! D6    D(3,1,4,7)            100.4383                                         !
 ! D7    D(1,4,6,10)            -5.4986                                         !
 ! D8    D(1,4,6,22)           176.3219                                         !
 ! D9    D(5,4,6,10)          -128.2552                                         !
 ! D10   D(5,4,6,22)            53.5653                                         !
 ! D11   D(7,4,6,10)           114.7935                                         !
 ! D12   D(7,4,6,22)           -63.386                                          !
 ! D13   D(1,4,7,8)           -165.3796                                         !
 ! D14   D(1,4,7,9)            -48.9716                                         !
 ! D15   D(1,4,7,11)            71.6898                                         !
 ! D16   D(5,4,7,8)            -41.5184                                         !
 ! D17   D(5,4,7,9)             74.8897                                         !
 ! D18   D(5,4,7,11)          -164.4489                                         !
 ! D19   D(6,4,7,8)             76.0734                                         !
 ! D20   D(6,4,7,9)           -167.5186                                         !
 ! D21   D(6,4,7,11)           -46.8572                                         !
 ! D22   D(4,6,22,23)          175.7861                                         !
 ! D23   D(4,6,22,33)          -16.2872                                         !
 ! D24   D(10,6,22,23)          -2.3328                                         !
 ! D25   D(10,6,22,33)         165.5939                                         !
 ! D26   D(4,7,11,12)          -56.7874                                         !
 ! D27   D(4,7,11,14)          126.7284                                         !
 ! D28   D(8,7,11,12)          179.9802                                         !
 ! D29   D(8,7,11,14)            3.4961                                         !
 ! D30   D(9,7,11,12)           62.1668                                         !
 ! D31   D(9,7,11,14)         -114.3174                                         !
 ! D32   D(7,11,12,13)           4.1643                                         !
 ! D33   D(7,11,12,16)        -174.8332                                         !
 ! D34   D(14,11,12,13)       -179.3055                                         !
 ! D35   D(14,11,12,16)          1.6969                                         !
 ! D36   D(7,11,14,15)          -5.0354                                         !
 ! D37   D(7,11,14,18)         173.1653                                         !
 ! D38   D(12,11,14,15)        178.4197                                         !
 ! D39   D(12,11,14,18)         -3.3797                                         !
 ! D40   D(11,12,16,17)        177.8885                                         !
 ! D41   D(11,12,16,20)          1.1191                                         !
 ! D42   D(13,12,16,17)         -1.069                                          !
 ! D43   D(13,12,16,20)       -177.8383                                         !
 ! D44   D(11,14,18,19)       -175.3782                                         !
 ! D45   D(11,14,18,20)          2.2507                                         !
 ! D46   D(15,14,18,19)          2.8217                                         !
 ! D47   D(15,14,18,20)       -179.5494                                         !
 ! D48   D(12,16,20,18)         -2.2737                                         !
 ! D49   D(12,16,20,21)        175.9549                                         !
 ! D50   D(17,16,20,18)       -179.0366                                         !
 ! D51   D(17,16,20,21)         -0.808                                          !
 ! D52   D(14,18,20,16)          0.5981                                         !
 ! D53   D(14,18,20,21)       -177.6328                                         !
 ! D54   D(19,18,20,16)        178.2241                                         !
 ! D55   D(19,18,20,21)         -0.0068                                         !
 ! D56   D(6,22,23,24)          24.581                                          !
 ! D57   D(6,22,23,25)         -94.973                                          !
 ! D58   D(6,22,23,26)         146.2601                                         !
 ! D59   D(33,22,23,24)       -145.5531                                         !
 ! D60   D(33,22,23,25)         94.8929                                         !
 ! D61   D(33,22,23,26)        -23.8739                                         !
 ! D62   D(6,22,33,30)        -130.0594                                         !
 ! D63   D(6,22,33,34)          -9.443                                          !
 ! D64   D(6,22,33,35)         112.8619                                         !
 ! D65   D(23,22,33,30)         39.0635                                         !
 ! D66   D(23,22,33,34)        159.6799                                         !
 ! D67   D(23,22,33,35)        -78.0152                                         !
 ! D68   D(22,23,25,29)        -71.4256                                         !
 ! D69   D(22,23,25,36)        106.0528                                         !
 ! D70   D(24,23,25,29)        170.0332                                         !
 ! D71   D(24,23,25,36)        -12.4884                                         !
 ! D72   D(26,23,25,29)         42.6457                                         !
 ! D73   D(26,23,25,36)       -139.8758                                         !
 ! D74   D(22,23,26,27)        116.9208                                         !
 ! D75   D(22,23,26,28)       -122.1056                                         !
 ! D76   D(22,23,26,30)         -1.1177                                         !
 ! D77   D(24,23,26,27)       -124.3938                                         !
 ! D78   D(24,23,26,28)         -3.4202                                         !
 ! D79   D(24,23,26,30)        117.5677                                         !
 ! D80   D(25,23,26,27)          1.4057                                         !
 ! D81   D(25,23,26,28)        122.3793                                         !
 ! D82   D(25,23,26,30)       -116.6328                                         !
 ! D83   D(23,25,36,37)         -9.1479                                         !
 ! D84   D(23,25,36,38)       -172.4232                                         !
 ! D85   D(29,25,36,37)        167.9718                                         !
 ! D86   D(29,25,36,38)          4.6965                                         !
 ! D87   D(23,26,30,31)        145.3956                                         !
 ! D88   D(23,26,30,32)        -92.6281                                         !
 ! D89   D(23,26,30,33)         24.2381                                         !
 ! D90   D(27,26,30,31)         27.7195                                         !
 ! D91   D(27,26,30,32)        149.6958                                         !
 ! D92   D(27,26,30,33)        -93.4381                                         !
 ! D93   D(28,26,30,31)        -94.1167                                         !
 ! D94   D(28,26,30,32)         27.8597                                         !
 ! D95   D(28,26,30,33)        144.7258                                         !
 ! D96   D(26,30,33,22)        -37.9328                                         !
 ! D97   D(26,30,33,34)       -157.1003                                         !
 ! D98   D(26,30,33,35)         77.3914                                         !
 ! D99   D(31,30,33,22)       -159.1096                                         !
 ! D100  D(31,30,33,34)         81.7229                                         !
 ! D101  D(31,30,33,35)        -43.7854                                         !
 ! D102  D(32,30,33,22)         79.6206                                         !
 ! D103  D(32,30,33,34)        -39.5469                                         !
 ! D104  D(32,30,33,35)       -165.0553                                         !
 ! D105  D(25,36,38,39)         37.8458                                         !
 ! D106  D(25,36,38,40)        -79.6701                                         !
 ! D107  D(25,36,38,41)        158.3679                                         !
 ! D108  D(37,36,38,39)       -125.6825                                         !
 ! D109  D(37,36,38,40)        116.8016                                         !
 ! D110  D(37,36,38,41)         -5.1604                                         !
 ! D111  D(36,38,40,44)       -106.1289                                         !
 ! D112  D(36,38,40,57)         73.6013                                         !
 ! D113  D(39,38,40,44)        136.0406                                         !
 ! D114  D(39,38,40,57)        -44.2291                                         !
 ! D115  D(41,38,40,44)         16.0435                                         !
 ! D116  D(41,38,40,57)       -164.2263                                         !
 ! D117  D(36,38,41,42)        -72.2457                                         !
 ! D118  D(36,38,41,43)        173.5283                                         !
 ! D119  D(36,38,41,45)         50.979                                          !
 ! D120  D(39,38,41,42)         47.6874                                         !
 ! D121  D(39,38,41,43)        -66.5386                                         !
 ! D122  D(39,38,41,45)        170.9121                                         !
 ! D123  D(40,38,41,42)        166.7883                                         !
 ! D124  D(40,38,41,43)         52.5623                                         !
 ! D125  D(40,38,41,45)        -69.987                                          !
 ! D126  D(38,40,57,58)        -14.6721                                         !
 ! D127  D(38,40,57,59)       -178.8846                                         !
 ! D128  D(44,40,57,58)        165.08                                           !
 ! D129  D(44,40,57,59)          0.8675                                         !
 ! D130  D(38,41,45,46)         -0.3888                                         !
 ! D131  D(38,41,45,47)        115.4655                                         !
 ! D132  D(38,41,45,48)       -123.5053                                         !
 ! D133  D(42,41,45,46)        120.1398                                         !
 ! D134  D(42,41,45,47)       -124.0059                                         !
 ! D135  D(42,41,45,48)         -2.9767                                         !
 ! D136  D(43,41,45,46)       -121.5824                                         !
 ! D137  D(43,41,45,47)         -5.7282                                         !
 ! D138  D(43,41,45,48)        115.301                                          !
 ! D139  D(41,45,48,49)        -65.8746                                         !
 ! D140  D(41,45,48,50)        177.2                                            !
 ! D141  D(41,45,48,51)         54.4091                                         !
 ! D142  D(46,45,48,49)        171.1468                                         !
 ! D143  D(46,45,48,50)         54.2213                                         !
 ! D144  D(46,45,48,51)        -68.5695                                         !
 ! D145  D(47,45,48,49)         55.8511                                         !
 ! D146  D(47,45,48,50)        -61.0744                                         !
 ! D147  D(47,45,48,51)        176.1348                                         !
 ! D148  D(45,48,51,52)        171.9753                                         !
 ! D149  D(45,48,51,53)        -66.1024                                         !
 ! D150  D(45,48,51,54)         51.3284                                         !
 ! D151  D(49,48,51,52)        -66.5422                                         !
 ! D152  D(49,48,51,53)         55.38                                           !
 ! D153  D(49,48,51,54)        172.8108                                         !
 ! D154  D(50,48,51,52)         49.2904                                         !
 ! D155  D(50,48,51,53)        171.2127                                         !
 ! D156  D(50,48,51,54)        -71.3565                                         !
 ! D157  D(48,51,54,55)       -173.1778                                         !
 ! D158  D(48,51,54,56)         61.2797                                         !
 ! D159  D(52,51,54,55)         64.4888                                         !
 ! D160  D(52,51,54,56)        -61.0537                                         !
 ! D161  D(53,51,54,55)        -51.6531                                         !
 ! D162  D(53,51,54,56)       -177.1957                                         !
 --------------------------------------------------------------------------------
 Symmetry turned off by external request.
 Stoichiometry    C20H31N4O4(1+)
 Framework group  C1[X(C20H31N4O4)]
 Deg. of freedom   171
 Full point group                 C1      NOp   1
                          Input orientation:                          
 ---------------------------------------------------------------------
 Center     Atomic      Atomic             Coordinates (Angstroms)
 Number     Number       Type             X           Y           Z
 ---------------------------------------------------------------------
      1          7           0       -4.224364    3.469516    0.349898
      2          1           0       -3.981627    2.942563    1.189314
      3          1           0       -5.124494    3.942317    0.404371
      4          6           0       -4.034776    2.668664   -0.863022
      5          1           0       -4.987601    2.400328   -1.343905
      6          6           0       -3.289306    1.386045   -0.483073
      7          6           0       -3.161099    3.433214   -1.912726
      8          1           0       -3.245292    2.947653   -2.889585
      9          1           0       -3.590128    4.436995   -1.999806
     10          8           0       -2.867062    1.239701    0.698315
     11          6           0       -1.694204    3.541862   -1.531636
     12          6           0       -1.311209    4.131160   -0.315491
     13          1           0       -2.093790    4.439503    0.365396
     14          6           0       -0.698965    3.120365   -2.424514
     15          1           0       -0.981220    2.640356   -3.355753
     16          6           0        0.039689    4.325299   -0.019263
     17          1           0        0.321758    4.812593    0.907914
     18          6           0        0.652104    3.346563   -2.143049
     19          1           0        1.407913    3.083349   -2.875766
     20          6           0        1.026262    3.955892   -0.941537
     21          1           0        2.070509    4.166410   -0.739286
     22          7           0       -3.078492    0.467159   -1.449434
     23          6           0       -2.282075   -0.763606   -1.186174
     24          1           0       -2.316357   -0.986039   -0.121880
     25          6           0       -0.856091   -0.473401   -1.624486
     26          6           0       -2.948470   -1.864117   -2.073398
     27          1           0       -2.231078   -2.214309   -2.815068
     28          1           0       -3.284713   -2.705360   -1.465027
     29          8           0       -0.726474   -0.402462   -2.976539
     30          6           0       -4.139752   -1.152109   -2.781707
     31          1           0       -4.303227   -1.532683   -3.791631
     32          1           0       -5.055100   -1.275038   -2.196094
     33          6           0       -3.733756    0.336720   -2.782483
     34          1           0       -4.582717    1.012171   -2.870149
     35          1           0       -2.991684    0.540251   -3.557621
     36          7           0        0.079100   -0.272712   -0.759267
     37          1           0       -0.288848   -0.109639    0.788200
     38          6           0        1.434187    0.178275   -1.221343
     39          1           0        1.304268    0.884198   -2.048726
     40          6           0        2.201722   -1.024291   -1.742811
     41          6           0        2.203593    0.856741   -0.082760
     42          1           0        1.727556    1.825705    0.076898
     43          1           0        3.218343    1.057503   -0.441595
     44          8           0        3.123604   -1.625010   -1.234187
     45          6           0        2.255808    0.028748    1.232399
     46          1           0        1.711152   -0.912128    1.101338
     47          1           0        3.288857   -0.254465    1.449805
     48          6           0        1.691350    0.806157    2.449785
     49          1           0        2.339538    1.663290    2.668862
     50          1           0        1.708392    0.155490    3.333396
     51          6           0        0.266127    1.350324    2.242405
     52          1           0       -0.139522    1.764054    3.168801
     53          1           0        0.227050    2.121815    1.470009
     54          7           0       -0.664621    0.246676    1.759643
     55          1           0       -1.619391    0.637947    1.502722
     56          1           0       -0.735061   -0.515642    2.445878
     57          8           0        1.656348   -1.386393   -2.994983
     58          1           0        0.211894   -0.686128   -3.265181
     59          1           0        2.113118   -2.185510   -3.377244
 ---------------------------------------------------------------------
 Rotational constants (GHZ):           0.2270127           0.1708028           0.1368008
 Standard basis: 6-31G(d) (6D, 7F)
   482 basis functions,   908 primitive gaussians,   482 cartesian basis functions
   105 alpha electrons      105 beta electrons
       nuclear repulsion energy      3036.3456262243 Hartrees.
 NAtoms=   59 NActive=   59 NUniq=   59 SFac= 1.00D+00 NAtFMM=   60 NAOKFM=F Big=F
 Integral buffers will be    131072 words long.
 Raffenetti 2 integral format.
 Two-electron integral symmetry is turned off.
 Nuclear repulsion after empirical dispersion term =     3036.2590790171 Hartrees.
 One-electron integrals computed using PRISM.
 NBasis=   482 RedAO= T EigKep=  4.64D-04  NBF=   482
 NBsUse=   482 1.00D-06 EigRej= -1.00D+00 NBFU=   482
 Initial guess from the checkpoint file:  "conf-885.chk"
 B after Tr=     0.000000    0.000000    0.000000
         Rot=    1.000000    0.000000    0.000000    0.000000 Ang=   0.00 deg.
 Requested convergence on RMS density matrix=1.00D-08 within 128 cycles.
 Requested convergence on MAX density matrix=1.00D-06.
 Requested convergence on             energy=1.00D-06.
 No special actions if energy rises.
 SCF Done:  E(RB3LYP) =  -1300.59728874     A.U. after   13 cycles
            NFock= 13  Conv=0.47D-08     -V/T= 2.0098

 **********************************************************************

            Population analysis using the SCF Density.

 **********************************************************************

 Alpha  occ. eigenvalues --  -19.33623 -19.30765 -19.27855 -19.25117 -14.52020
 Alpha  occ. eigenvalues --  -14.49777 -14.47130 -14.40678 -10.45511 -10.42761
 Alpha  occ. eigenvalues --  -10.41763 -10.36493 -10.36058 -10.35107 -10.34235
 Alpha  occ. eigenvalues --  -10.33721 -10.30764 -10.30529 -10.30325 -10.29880
 Alpha  occ. eigenvalues --  -10.29562 -10.28976 -10.28925 -10.28497 -10.28372
 Alpha  occ. eigenvalues --  -10.28350 -10.28193 -10.27393  -1.22438  -1.19175
 Alpha  occ. eigenvalues --   -1.15848  -1.14563  -1.07433  -1.06842  -1.04188
 Alpha  occ. eigenvalues --   -0.98180  -0.94585  -0.92830  -0.91256  -0.89098
 Alpha  occ. eigenvalues --   -0.87293  -0.86435  -0.83585  -0.82448  -0.81855
 Alpha  occ. eigenvalues --   -0.78844  -0.77348  -0.75366  -0.72802  -0.71816
 Alpha  occ. eigenvalues --   -0.70978  -0.69752  -0.69517  -0.68355  -0.68031
 Alpha  occ. eigenvalues --   -0.67210  -0.66727  -0.64164  -0.63226  -0.62675
 Alpha  occ. eigenvalues --   -0.62027  -0.61246  -0.59719  -0.59511  -0.58407
 Alpha  occ. eigenvalues --   -0.57743  -0.57702  -0.57023  -0.55869  -0.55520
 Alpha  occ. eigenvalues --   -0.55211  -0.55130  -0.54540  -0.54154  -0.53734
 Alpha  occ. eigenvalues --   -0.53120  -0.52623  -0.51331  -0.51082  -0.50827
 Alpha  occ. eigenvalues --   -0.50302  -0.49903  -0.49497  -0.48763  -0.47873
 Alpha  occ. eigenvalues --   -0.47547  -0.47159  -0.46943  -0.46299  -0.46046
 Alpha  occ. eigenvalues --   -0.45518  -0.45211  -0.44705  -0.44487  -0.44282
 Alpha  occ. eigenvalues --   -0.43362  -0.43003  -0.42290  -0.40880  -0.39458
 Alpha  occ. eigenvalues --   -0.38733  -0.37642  -0.34363  -0.33803  -0.32093
 Alpha virt. eigenvalues --   -0.14379  -0.12627  -0.10579  -0.09864  -0.09502
 Alpha virt. eigenvalues --   -0.06166  -0.05542  -0.02965  -0.02324  -0.00728
 Alpha virt. eigenvalues --   -0.00412   0.00032   0.00971   0.01354   0.01610
 Alpha virt. eigenvalues --    0.01981   0.02236   0.02617   0.02693   0.03371
 Alpha virt. eigenvalues --    0.04237   0.04394   0.04948   0.05067   0.05464
 Alpha virt. eigenvalues --    0.05657   0.05957   0.06364   0.06912   0.07348
 Alpha virt. eigenvalues --    0.07892   0.08205   0.08388   0.08751   0.08919
 Alpha virt. eigenvalues --    0.09761   0.09973   0.10410   0.10892   0.11421
 Alpha virt. eigenvalues --    0.11873   0.12171   0.13070   0.13521   0.13839
 Alpha virt. eigenvalues --    0.14251   0.14660   0.15217   0.16229   0.16334
 Alpha virt. eigenvalues --    0.17220   0.17779   0.18647   0.19819   0.20765
 Alpha virt. eigenvalues --    0.21565   0.22000   0.22711   0.23428   0.23907
 Alpha virt. eigenvalues --    0.25217   0.26228   0.30013   0.31695   0.32576
 Alpha virt. eigenvalues --    0.36475   0.37236   0.37918   0.38747   0.39432
 Alpha virt. eigenvalues --    0.40042   0.40610   0.41285   0.42097   0.42462
 Alpha virt. eigenvalues --    0.43031   0.43344   0.44404   0.44896   0.45645
 Alpha virt. eigenvalues --    0.46285   0.46885   0.47125   0.47885   0.48494
 Alpha virt. eigenvalues --    0.49242   0.49629   0.49714   0.50419   0.50854
 Alpha virt. eigenvalues --    0.51264   0.51645   0.51983   0.52246   0.52710
 Alpha virt. eigenvalues --    0.52923   0.53468   0.53952   0.54532   0.55551
 Alpha virt. eigenvalues --    0.56261   0.57054   0.57625   0.57997   0.59313
 Alpha virt. eigenvalues --    0.59546   0.59886   0.61171   0.62054   0.63002
 Alpha virt. eigenvalues --    0.63704   0.65023   0.65555   0.66759   0.67458
 Alpha virt. eigenvalues --    0.68267   0.69138   0.69717   0.70057   0.70344
 Alpha virt. eigenvalues --    0.70981   0.71390   0.71754   0.72129   0.73149
 Alpha virt. eigenvalues --    0.73345   0.73848   0.74776   0.75192   0.75391
 Alpha virt. eigenvalues --    0.75826   0.76057   0.76356   0.76569   0.77435
 Alpha virt. eigenvalues --    0.77976   0.78138   0.78604   0.79327   0.80027
 Alpha virt. eigenvalues --    0.80162   0.81230   0.81969   0.82265   0.82511
 Alpha virt. eigenvalues --    0.82845   0.83692   0.84135   0.84479   0.84914
 Alpha virt. eigenvalues --    0.85539   0.86271   0.86802   0.86976   0.87465
 Alpha virt. eigenvalues --    0.87627   0.88382   0.89390   0.90584   0.91375
 Alpha virt. eigenvalues --    0.91904   0.92645   0.93637   0.94395   0.94716
 Alpha virt. eigenvalues --    0.96273   0.98104   0.99380   0.99802   1.00295
 Alpha virt. eigenvalues --    1.01619   1.01879   1.02769   1.03721   1.05522
 Alpha virt. eigenvalues --    1.08582   1.09029   1.09675   1.11026   1.12431
 Alpha virt. eigenvalues --    1.12794   1.13708   1.14361   1.15947   1.16944
 Alpha virt. eigenvalues --    1.17833   1.19325   1.20453   1.22035   1.24663
 Alpha virt. eigenvalues --    1.26248   1.26917   1.27315   1.28468   1.29359
 Alpha virt. eigenvalues --    1.31041   1.32277   1.33879   1.34113   1.35543
 Alpha virt. eigenvalues --    1.37010   1.38317   1.39111   1.39480   1.40081
 Alpha virt. eigenvalues --    1.40937   1.42203   1.42754   1.43195   1.44318
 Alpha virt. eigenvalues --    1.44896   1.46861   1.47896   1.48903   1.49610
 Alpha virt. eigenvalues --    1.51308   1.51990   1.53139   1.54199   1.56009
 Alpha virt. eigenvalues --    1.56634   1.57663   1.58991   1.60685   1.61895
 Alpha virt. eigenvalues --    1.62411   1.63361   1.64320   1.64765   1.65936
 Alpha virt. eigenvalues --    1.66989   1.67185   1.67959   1.69027   1.70141
 Alpha virt. eigenvalues --    1.71774   1.72719   1.72991   1.73706   1.73784
 Alpha virt. eigenvalues --    1.74745   1.75656   1.76150   1.76927   1.78896
 Alpha virt. eigenvalues --    1.79423   1.79949   1.80943   1.81143   1.82040
 Alpha virt. eigenvalues --    1.82216   1.83228   1.84049   1.84200   1.85352
 Alpha virt. eigenvalues --    1.86608   1.86851   1.88298   1.88498   1.89584
 Alpha virt. eigenvalues --    1.90201   1.91501   1.92161   1.93182   1.94564
 Alpha virt. eigenvalues --    1.95897   1.96601   1.96838   1.97179   1.98278
 Alpha virt. eigenvalues --    1.98821   1.99839   2.00659   2.01353   2.03004
 Alpha virt. eigenvalues --    2.04488   2.05550   2.06758   2.07161   2.08164
 Alpha virt. eigenvalues --    2.08470   2.09185   2.11435   2.12407   2.13801
 Alpha virt. eigenvalues --    2.14419   2.16376   2.18747   2.19479   2.20050
 Alpha virt. eigenvalues --    2.21130   2.21979   2.22480   2.24000   2.24142
 Alpha virt. eigenvalues --    2.25056   2.25804   2.26791   2.28017   2.28996
 Alpha virt. eigenvalues --    2.29967   2.31193   2.32527   2.34211   2.34398
 Alpha virt. eigenvalues --    2.35678   2.36153   2.38195   2.39284   2.39575
 Alpha virt. eigenvalues --    2.41259   2.42260   2.44352   2.45335   2.46736
 Alpha virt. eigenvalues --    2.47168   2.49336   2.50226   2.50937   2.52312
 Alpha virt. eigenvalues --    2.52708   2.53972   2.55445   2.56169   2.57131
 Alpha virt. eigenvalues --    2.58078   2.59345   2.61180   2.63758   2.64527
 Alpha virt. eigenvalues --    2.65413   2.66011   2.67274   2.68883   2.69079
 Alpha virt. eigenvalues --    2.70409   2.71813   2.75610   2.78799   2.82639
 Alpha virt. eigenvalues --    2.85234   2.89058   2.90803   2.93593   2.96590
 Alpha virt. eigenvalues --    2.97104   3.01375   3.06909   3.31557   3.75304
 Alpha virt. eigenvalues --    3.77969   3.83746   3.90325   3.95030   4.01313
 Alpha virt. eigenvalues --    4.03975   4.05279   4.08255   4.09326   4.11607
 Alpha virt. eigenvalues --    4.12546   4.15623   4.20353   4.23081   4.24944
 Alpha virt. eigenvalues --    4.27273   4.32266   4.35594   4.38095   4.39164
 Alpha virt. eigenvalues --    4.40349   4.45545   4.49128   4.51658   4.57232
 Alpha virt. eigenvalues --    4.61459   4.66432
          Condensed to atoms (all electrons):
 Mulliken charges:
               1
     1  N   -0.751047
     2  H    0.337762
     3  H    0.323788
     4  C   -0.058678
     5  H    0.157993
     6  C    0.628572
     7  C   -0.328751
     8  H    0.147163
     9  H    0.187955
    10  O   -0.599001
    11  C    0.122468
    12  C   -0.164017
    13  H    0.182350
    14  C   -0.189887
    15  H    0.135921
    16  C   -0.152615
    17  H    0.146831
    18  C   -0.145534
    19  H    0.143114
    20  C   -0.144864
    21  H    0.148856
    22  N   -0.422804
    23  C   -0.052253
    24  H    0.170135
    25  C    0.620105
    26  C   -0.308958
    27  H    0.181136
    28  H    0.178858
    29  O   -0.633047
    30  C   -0.285311
    31  H    0.180445
    32  H    0.171942
    33  C   -0.163856
    34  H    0.186802
    35  H    0.198344
    36  N   -0.547117
    37  H    0.439269
    38  C   -0.093456
    39  H    0.189009
    40  C    0.640180
    41  C   -0.308362
    42  H    0.176686
    43  H    0.177488
    44  O   -0.406282
    45  C   -0.282619
    46  H    0.147913
    47  H    0.186118
    48  C   -0.288553
    49  H    0.178374
    50  H    0.160869
    51  C   -0.194603
    52  H    0.195125
    53  H    0.212005
    54  N   -0.824141
    55  H    0.447284
    56  H    0.370883
    57  O   -0.645820
    58  H    0.474447
    59  H    0.445383
 Sum of Mulliken charges =   1.00000
 Mulliken charges with hydrogens summed into heavy atoms:
               1
     1  N   -0.089498
     4  C    0.099315
     6  C    0.628572
     7  C    0.006367
    10  O   -0.599001
    11  C    0.122468
    12  C    0.018334
    14  C   -0.053966
    16  C   -0.005783
    18  C   -0.002420
    20  C    0.003992
    22  N   -0.422804
    23  C    0.117882
    25  C    0.620105
    26  C    0.051036
    29  O   -0.158599
    30  C    0.067076
    33  C    0.221290
    36  N   -0.547117
    38  C    0.095554
    40  C    0.640180
    41  C    0.045811
    44  O   -0.406282
    45  C    0.051412
    48  C    0.050690
    51  C    0.212526
    54  N    0.433295
    57  O   -0.200437
 Electronic spatial extent (au):  <R**2>=          10938.9718
 Charge=              1.0000 electrons
 Dipole moment (field-independent basis, Debye):
    X=             -5.5335    Y=              0.9950    Z=             -3.0207  Tot=              6.3823
 Quadrupole moment (field-independent basis, Debye-Ang):
   XX=           -121.6518   YY=           -147.8956   ZZ=           -125.6026
   XY=             -3.6285   XZ=              7.6883   YZ=              9.5500
 Traceless Quadrupole moment (field-independent basis, Debye-Ang):
   XX=             10.0649   YY=            -16.1789   ZZ=              6.1140
   XY=             -3.6285   XZ=              7.6883   YZ=              9.5500
 Octapole moment (field-independent basis, Debye-Ang**2):
  XXX=            228.9801  YYY=           -526.1198  ZZZ=            370.4910  XYY=            103.0248
  XXY=            -98.6411  XXZ=             68.8793  XZZ=            127.0232  YZZ=           -196.4166
  YYZ=            128.4002  XYZ=             17.7241
 Hexadecapole moment (field-independent basis, Debye-Ang**3):
 XXXX=          -5077.9737 YYYY=          -4956.9767 ZZZZ=          -3003.7937 XXXY=            498.4188
 XXXZ=           -532.0653 YYYX=            708.3815 YYYZ=            310.1907 ZZZX=           -781.6813
 ZZZY=            297.2052 XXYY=          -1505.2844 XXZZ=          -1299.7597 YYZZ=          -1265.7687
 XXYZ=             61.2251 YYXZ=           -261.6605 ZZXY=            197.8354
 N-N= 3.036259079017D+03 E-N=-9.074071836075D+03  KE= 1.287971371212D+03
 Unable to Open any file for archive entry.
 1\1\GINC-NVF-017\SP\RB3LYP\6-31G(d)\C20H31N4O4(1+)\KENGMITH\09-Jul-202
 2\0\\# B3LYP/6-31G* empiricaldispersion=gd3 guess=read geom=check nosy
 mm integral(ultrafinegrid)\\Candidate Structure: Conf:885 Charge calc 
 in gas phase\\1,1\N,0,-4.2243639398,3.4695159845,0.3498980021\H,0,-3.9
 816273075,2.9425628297,1.1893136163\H,0,-5.1244937118,3.942317222,0.40
 43709478\C,0,-4.0347759811,2.6686641212,-0.8630223856\H,0,-4.987601394
 2,2.4003279691,-1.3439049799\C,0,-3.289305661,1.3860449129,-0.48307284
 65\C,0,-3.1610989908,3.4332136908,-1.9127256616\H,0,-3.2452921781,2.94
 76528131,-2.8895852322\H,0,-3.5901279123,4.4369945534,-1.9998061089\O,
 0,-2.8670620381,1.2397006278,0.6983150866\C,0,-1.6942044644,3.54186178
 39,-1.5316360336\C,0,-1.3112093746,4.1311598376,-0.3154913346\H,0,-2.0
 937903814,4.4395025558,0.3653963456\C,0,-0.6989651558,3.1203653871,-2.
 4245140295\H,0,-0.9812204052,2.6403555482,-3.3557532488\C,0,0.03968897
 31,4.3252991161,-0.0192634327\H,0,0.3217578642,4.8125932024,0.90791368
 03\C,0,0.6521038824,3.3465626797,-2.1430485926\H,0,1.407913425,3.08334
 85004,-2.8757661092\C,0,1.0262621786,3.9558916723,-0.9415371919\H,0,2.
 0705091802,4.1664104136,-0.7392864023\N,0,-3.0784922634,0.4671586959,-
 1.4494343629\C,0,-2.2820754574,-0.7636059915,-1.1861736026\H,0,-2.3163
 565567,-0.9860390815,-0.1218800357\C,0,-0.8560906784,-0.4734011434,-1.
 6244862456\C,0,-2.9484699022,-1.8641170414,-2.0733981007\H,0,-2.231077
 5891,-2.2143089716,-2.8150676773\H,0,-3.2847132672,-2.7053595867,-1.46
 50274626\O,0,-0.726474331,-0.4024617305,-2.976538791\C,0,-4.1397522178
 ,-1.1521092162,-2.7817070484\H,0,-4.3032267969,-1.5326832808,-3.791631
 2034\H,0,-5.0550999428,-1.2750384585,-2.1960941322\C,0,-3.7337563475,0
 .3367196748,-2.7824832674\H,0,-4.5827173084,1.0121711814,-2.8701490711
 \H,0,-2.991684087,0.5402505545,-3.5576205684\N,0,0.0791000605,-0.27271
 16303,-0.7592673843\H,0,-0.2888475353,-0.1096387779,0.7882002029\C,0,1
 .4341866487,0.1782746239,-1.2213426408\H,0,1.3042684162,0.8841980551,-
 2.0487260564\C,0,2.2017221559,-1.0242906116,-1.742810643\C,0,2.2035931
 635,0.8567407545,-0.0827597689\H,0,1.7275560482,1.8257051996,0.0768979
 366\H,0,3.2183432637,1.0575032842,-0.4415952888\O,0,3.1236036594,-1.62
 50103128,-1.2341865121\C,0,2.2558080824,0.0287482693,1.2323987721\H,0,
 1.7111521209,-0.9121282871,1.1013380864\H,0,3.2888570095,-0.2544653478
 ,1.4498045299\C,0,1.6913500027,0.8061570859,2.4497847462\H,0,2.3395378
 288,1.6632901665,2.6688622115\H,0,1.7083920896,0.1554904969,3.33339580
 65\C,0,0.2661266197,1.3503241262,2.2424050919\H,0,-0.139521776,1.76405
 36592,3.1688006576\H,0,0.2270496219,2.1218146486,1.4700091569\N,0,-0.6
 646209109,0.2466755682,1.7596429108\H,0,-1.6193911097,0.637947371,1.50
 27215245\H,0,-0.7350608704,-0.5156423294,2.4458776405\O,0,1.6563484039
 ,-1.3863932776,-2.9949833821\H,0,0.2118944869,-0.6861283345,-3.2651811
 824\H,0,2.1131183185,-2.1855104962,-3.3772438249\\Version=ES64L-G16Rev
 C.01\HF=-1300.5972887\RMSD=4.670e-09\Dipole=-0.6195628,-1.5180609,0.42
 60065\Quadrupole=7.4830103,-12.0286484,4.5456381,-2.6977026,5.7160398,
 7.1001965\PG=C01 [X(C20H31N4O4)]\\@
 The archive entry for this job was punched.


 A MUSTACHE HAIR ACROSS A CHIP IS LIKE A REDWOOD
 TREE FALLING THROUGH A HOUSING PROJECT.
 - AN IBM MANAGER IN EAST FISHKILL, NEW YORK
   AS QUOTED IN "FROM SANDS TO CIRCUITS", IBM INNOVATION JANUARY 1985.
 Job cpu time:       0 days  0 hours 12 minutes  1.0 seconds.
 Elapsed time:       0 days  0 hours  3 minutes  1.2 seconds.
 File lengths (MBytes):  RWF=    240 Int=      0 D2E=      0 Chk=     32 Scr=     16
 Normal termination of Gaussian 16 at Sat Jul  9 03:34:17 2022.
