 Entering Gaussian System, Link 0=/opt/software/Gaussian/g16-AVX2-C.01/g16/g16
 Input=charge-conf-18.com
 Output=charge-conf-18.log
 Initial command:
 /opt/software/Gaussian/g16-AVX2-C.01/g16/l1.exe "/mnt/gs18/scratch/users/kengmith/Gau-10828.inp" -scrdir="/mnt/gs18/scratch/users/kengmith/"
 Entering Link 1 = /opt/software/Gaussian/g16-AVX2-C.01/g16/l1.exe PID=     10839.
  
 Copyright (c) 1988-2019, Gaussian, Inc.  All Rights Reserved.
  
 This is part of the Gaussian(R) 16 program.  It is based on
 the Gaussian(R) 09 system (copyright 2009, Gaussian, Inc.),
 the Gaussian(R) 03 system (copyright 2003, Gaussian, Inc.),
 the Gaussian(R) 98 system (copyright 1998, Gaussian, Inc.),
 the Gaussian(R) 94 system (copyright 1995, Gaussian, Inc.),
 the Gaussian 92(TM) system (copyright 1992, Gaussian, Inc.),
 the Gaussian 90(TM) system (copyright 1990, Gaussian, Inc.),
 the Gaussian 88(TM) system (copyright 1988, Gaussian, Inc.),
 the Gaussian 86(TM) system (copyright 1986, Carnegie Mellon
 University), and the Gaussian 82(TM) system (copyright 1983,
 Carnegie Mellon University). Gaussian is a federally registered
 trademark of Gaussian, Inc.
  
 This software contains proprietary and confidential information,
 including trade secrets, belonging to Gaussian, Inc.
  
 This software is provided under written license and may be
 used, copied, transmitted, or stored only in accord with that
 written license.
  
 The following legend is applicable only to US Government
 contracts under FAR:
  
                    RESTRICTED RIGHTS LEGEND
  
 Use, reproduction and disclosure by the US Government is
 subject to restrictions as set forth in subparagraphs (a)
 and (c) of the Commercial Computer Software - Restricted
 Rights clause in FAR 52.227-19.
  
 Gaussian, Inc.
 340 Quinnipiac St., Bldg. 40, Wallingford CT 06492
  
  
 ---------------------------------------------------------------
 Warning -- This program may not be used in any manner that
 competes with the business of Gaussian, Inc. or will provide
 assistance to any competitor of Gaussian, Inc.  The licensee
 of this program is prohibited from giving any competitor of
 Gaussian, Inc. access to this program.  By using this program,
 the user acknowledges that Gaussian, Inc. is engaged in the
 business of creating and licensing software in the field of
 computational chemistry and represents and warrants to the
 licensee that it is not a competitor of Gaussian, Inc. and that
 it will not use this program in any manner prohibited above.
 ---------------------------------------------------------------
  

 Cite this work as:
 Gaussian 16, Revision C.01,
 M. J. Frisch, G. W. Trucks, H. B. Schlegel, G. E. Scuseria, 
 M. A. Robb, J. R. Cheeseman, G. Scalmani, V. Barone, 
 G. A. Petersson, H. Nakatsuji, X. Li, M. Caricato, A. V. Marenich, 
 J. Bloino, B. G. Janesko, R. Gomperts, B. Mennucci, H. P. Hratchian, 
 J. V. Ortiz, A. F. Izmaylov, J. L. Sonnenberg, D. Williams-Young, 
 F. Ding, F. Lipparini, F. Egidi, J. Goings, B. Peng, A. Petrone, 
 T. Henderson, D. Ranasinghe, V. G. Zakrzewski, J. Gao, N. Rega, 
 G. Zheng, W. Liang, M. Hada, M. Ehara, K. Toyota, R. Fukuda, 
 J. Hasegawa, M. Ishida, T. Nakajima, Y. Honda, O. Kitao, H. Nakai, 
 T. Vreven, K. Throssell, J. A. Montgomery, Jr., J. E. Peralta, 
 F. Ogliaro, M. J. Bearpark, J. J. Heyd, E. N. Brothers, K. N. Kudin, 
 V. N. Staroverov, T. A. Keith, R. Kobayashi, J. Normand, 
 K. Raghavachari, A. P. Rendell, J. C. Burant, S. S. Iyengar, 
 J. Tomasi, M. Cossi, J. M. Millam, M. Klene, C. Adamo, R. Cammi, 
 J. W. Ochterski, R. L. Martin, K. Morokuma, O. Farkas, 
 J. B. Foresman, and D. J. Fox, Gaussian, Inc., Wallingford CT, 2019.
 
 ******************************************
 Gaussian 16:  ES64L-G16RevC.01  3-Jul-2019
                23-Jun-2022 
 ******************************************
 %mem=8gb
 %nproc=4
 Will use up to    4 processors via shared memory.
 %chk=conf-18.chk
 ----------------------------------------------------------------------
 # B3LYP/6-31G* empiricaldispersion=gd3bj guess=read geom=check nosymm 
 integral(ultrafinegrid)
 ----------------------------------------------------------------------
 1/29=2,38=1,172=1/1;
 2/12=2,15=1,40=1/2;
 3/5=1,6=6,7=1,11=2,14=-4,25=1,30=1,74=-5,75=-5,116=-2,124=41/1,2,3;
 4/5=1/1;
 5/5=2,38=6/2;
 6/7=2,8=2,9=2,10=2,28=1/1;
 99/5=1,9=1/99;
 -----------------------------------------------------
 Candidate Structure: Conf:18 Charge calc in gas phase
 -----------------------------------------------------
 Structure from the checkpoint file:  "conf-18.chk"
 Charge =  1 Multiplicity = 1
 Redundant internal coordinates found in file.  (old form).
 N,0,-1.3828888337,0.0565608005,-4.3287548559
 H,0,-2.0695180157,-0.653414616,-4.5983516896
 H,0,-1.8552818979,0.7642006851,-3.6952866986
 H,0,-1.0138890273,0.4997370136,-5.1744471976
 C,0,-0.2813484797,-0.4807836154,-3.4313181361
 H,0,-0.2401372061,-1.5653718249,-3.5536662065
 C,0,-0.7661184323,-0.0472876678,-2.0277298126
 C,0,1.062146905,0.1842120531,-3.7924394713
 H,0,1.082093888,1.2111347647,-3.4123454889
 H,0,1.1362301271,0.2350227249,-4.8884982021
 O,0,-1.6262906017,0.8449070416,-1.9729552361
 C,0,2.2924506223,-0.5591312658,-3.2638330914
 H,0,2.2132996595,-0.7410501657,-2.1875892581
 H,0,2.4284834193,-1.5134583597,-3.7799464723
 C,0,3.565475533,0.3019943157,-3.4291603123
 O,0,3.4671784389,1.4884623844,-2.9454694407
 O,0,4.5577643359,-0.2082398829,-3.9714797067
 N,0,-0.1889111689,-0.6325892717,-0.9793901043
 H,0,0.609441752,-1.2411533653,-1.1418485602
 C,0,-0.1621107323,-0.0192230129,0.3560664459
 H,0,-0.8086711887,0.8581609015,0.3185627071
 C,0,1.3087962437,0.3828164359,0.5533913958
 C,0,-0.6224869479,-0.9969558208,1.4452883279
 H,0,-0.552816507,-0.4750231984,2.409237207
 H,0,0.0948650744,-1.8263997634,1.4872834904
 O,0,2.2029342051,-0.339037793,0.1090365471
 C,0,-2.0474705645,-1.5437098957,1.257634029
 H,0,-2.0718647288,-2.0845132703,0.3004846732
 C,0,-2.3643549784,-2.5441370255,2.3760949222
 H,0,-2.3640797634,-2.0484601833,3.3546611334
 H,0,-3.3530878183,-2.9918240243,2.2310309513
 H,0,-1.6280075872,-3.3550240875,2.4107914013
 C,0,-3.0981353999,-0.4267454039,1.2038023168
 H,0,-3.0593576672,0.1891759016,2.1115023589
 H,0,-2.9632635968,0.2309910491,0.3385195435
 H,0,-4.1055581458,-0.8514292032,1.139294584
 N,0,1.5384869197,1.5422940168,1.1959333607
 H,0,0.7897332916,2.0985442972,1.5916614881
 C,0,2.8848603878,2.0808528952,1.3114058746
 H,0,3.5763781879,1.2483220522,1.4670023303
 C,0,2.8895492784,2.9977637631,2.520789141
 C,0,3.2828130192,2.8462586362,0.0218460544
 H,0,2.8057075857,3.8358644673,0.0371857198
 H,0,2.874278833,2.2944261873,-0.8302627577
 O,0,1.8870693477,3.4402981331,3.0388942808
 C,0,4.7933049585,2.9639018814,-0.1963771375
 H,0,5.3041188123,3.3184475174,0.7055381909
 H,0,5.1835748152,1.9662368162,-0.4279667463
 C,0,5.0966792155,3.9077000182,-1.3685760841
 H,0,4.9391403035,4.9511543484,-1.0804563603
 H,0,4.4254964057,3.704372789,-2.2059726223
 N,0,6.4771737583,3.8034537016,-1.856219858
 H,0,7.1905281655,4.2230031838,-1.2749057261
 N,0,6.0189543754,1.9951222033,-3.2313042023
 H,0,6.2886750124,1.1921845847,-3.7915986849
 H,0,4.9653687514,1.9507124061,-3.0355365216
 N,0,8.2266033294,2.6238519655,-2.8285409764
 H,0,8.5272004045,2.0015001048,-3.5659727571
 H,0,8.8356165607,3.415775129,-2.6748370555
 C,0,6.8851456082,2.7904019554,-2.6539306754
 O,0,4.1362186463,3.3038770015,2.9246632156
 H,0,4.0475420719,3.9203435109,3.677519786
 Recover connectivity data from disk.
                           ----------------------------
                           !    Current Parameters    !
                           ! (Angstroms and Degrees)  !
 --------------------------                            --------------------------
 ! Name  Definition              Value                                          !
 --------------------------------------------------------------------------------
 ! R1    R(1,2)                  1.0238                                         !
 ! R2    R(1,3)                  1.0608                                         !
 ! R3    R(1,4)                  1.0236                                         !
 ! R4    R(1,5)                  1.5191                                         !
 ! R5    R(5,6)                  1.0922                                         !
 ! R6    R(5,7)                  1.5469                                         !
 ! R7    R(5,8)                  1.5419                                         !
 ! R8    R(7,11)                 1.2405                                         !
 ! R9    R(7,18)                 1.3322                                         !
 ! R10   R(8,9)                  1.0952                                         !
 ! R11   R(8,10)                 1.0997                                         !
 ! R12   R(8,12)                 1.5315                                         !
 ! R13   R(12,13)                1.0944                                         !
 ! R14   R(12,14)                1.0934                                         !
 ! R15   R(12,15)                1.5458                                         !
 ! R16   R(15,16)                1.285                                          !
 ! R17   R(15,17)                1.2406                                         !
 ! R18   R(18,19)                1.0169                                         !
 ! R19   R(18,20)                1.4698                                         !
 ! R20   R(20,21)                1.0905                                         !
 ! R21   R(20,22)                1.5376                                         !
 ! R22   R(20,23)                1.5344                                         !
 ! R23   R(22,26)                1.2321                                         !
 ! R24   R(22,37)                1.3454                                         !
 ! R25   R(23,24)                1.0984                                         !
 ! R26   R(23,25)                1.0974                                         !
 ! R27   R(23,27)                1.5378                                         !
 ! R28   R(27,28)                1.0996                                         !
 ! R29   R(27,29)                1.5337                                         !
 ! R30   R(27,33)                1.5344                                         !
 ! R31   R(29,30)                1.0969                                         !
 ! R32   R(29,31)                1.095                                          !
 ! R33   R(29,32)                1.0959                                         !
 ! R34   R(33,34)                1.0976                                         !
 ! R35   R(33,35)                1.0952                                         !
 ! R36   R(33,36)                1.0952                                         !
 ! R37   R(37,38)                1.0132                                         !
 ! R38   R(37,39)                1.4547                                         !
 ! R39   R(39,40)                1.0934                                         !
 ! R40   R(39,41)                1.5177                                         !
 ! R41   R(39,42)                1.5515                                         !
 ! R42   R(41,45)                1.2121                                         !
 ! R43   R(41,61)                1.3457                                         !
 ! R44   R(42,43)                1.0987                                         !
 ! R45   R(42,44)                1.0943                                         !
 ! R46   R(42,46)                1.5307                                         !
 ! R47   R(46,47)                1.0955                                         !
 ! R48   R(46,48)                1.096                                          !
 ! R49   R(46,49)                1.5352                                         !
 ! R50   R(49,50)                1.0939                                         !
 ! R51   R(49,51)                1.0923                                         !
 ! R52   R(49,52)                1.4678                                         !
 ! R53   R(52,53)                1.0113                                         !
 ! R54   R(52,60)                1.3524                                         !
 ! R55   R(54,55)                1.0156                                         !
 ! R56   R(54,56)                1.0725                                         !
 ! R57   R(54,60)                1.31                                           !
 ! R58   R(57,58)                1.0107                                         !
 ! R59   R(57,59)                1.0108                                         !
 ! R60   R(57,60)                1.363                                          !
 ! R61   R(61,62)                0.9771                                         !
 ! A1    A(2,1,3)              108.7355                                         !
 ! A2    A(2,1,4)              108.932                                          !
 ! A3    A(2,1,5)              113.3653                                         !
 ! A4    A(3,1,4)              111.4139                                         !
 ! A5    A(3,1,5)              101.8943                                         !
 ! A6    A(4,1,5)              112.3242                                         !
 ! A7    A(1,5,6)              108.2063                                         !
 ! A8    A(1,5,7)              102.1032                                         !
 ! A9    A(1,5,8)              109.9319                                         !
 ! A10   A(6,5,7)              113.0619                                         !
 ! A11   A(6,5,8)              111.6625                                         !
 ! A12   A(7,5,8)              111.3883                                         !
 ! A13   A(5,7,11)             117.3161                                         !
 ! A14   A(5,7,18)             117.072                                          !
 ! A15   A(11,7,18)            125.5677                                         !
 ! A16   A(5,8,9)              109.8145                                         !
 ! A17   A(5,8,10)             108.182                                          !
 ! A18   A(5,8,12)             114.1903                                         !
 ! A19   A(9,8,10)             107.5386                                         !
 ! A20   A(9,8,12)             108.7044                                         !
 ! A21   A(10,8,12)            108.198                                          !
 ! A22   A(8,12,13)            111.2236                                         !
 ! A23   A(8,12,14)            111.139                                          !
 ! A24   A(8,12,15)            110.7484                                         !
 ! A25   A(13,12,14)           109.1537                                         !
 ! A26   A(13,12,15)           104.9127                                         !
 ! A27   A(14,12,15)           109.467                                          !
 ! A28   A(12,15,16)           114.2736                                         !
 ! A29   A(12,15,17)           118.4471                                         !
 ! A30   A(16,15,17)           127.2617                                         !
 ! A31   A(7,18,19)            118.5132                                         !
 ! A32   A(7,18,20)            122.6524                                         !
 ! A33   A(19,18,20)           112.3691                                         !
 ! A34   A(18,20,21)           107.0788                                         !
 ! A35   A(18,20,22)           104.0732                                         !
 ! A36   A(18,20,23)           111.9377                                         !
 ! A37   A(21,20,22)           111.1753                                         !
 ! A38   A(21,20,23)           111.0508                                         !
 ! A39   A(22,20,23)           111.2567                                         !
 ! A40   A(20,22,26)           119.6546                                         !
 ! A41   A(20,22,37)           116.7415                                         !
 ! A42   A(26,22,37)           123.5925                                         !
 ! A43   A(20,23,24)           107.5276                                         !
 ! A44   A(20,23,25)           108.2192                                         !
 ! A45   A(20,23,27)           114.7066                                         !
 ! A46   A(24,23,25)           106.5051                                         !
 ! A47   A(24,23,27)           109.5617                                         !
 ! A48   A(25,23,27)           109.9786                                         !
 ! A49   A(23,27,28)           107.5559                                         !
 ! A50   A(23,27,29)           109.5357                                         !
 ! A51   A(23,27,33)           112.3322                                         !
 ! A52   A(28,27,29)           108.0218                                         !
 ! A53   A(28,27,33)           108.1966                                         !
 ! A54   A(29,27,33)           111.0354                                         !
 ! A55   A(27,29,30)           110.8396                                         !
 ! A56   A(27,29,31)           110.8938                                         !
 ! A57   A(27,29,32)           111.5259                                         !
 ! A58   A(30,29,31)           107.6469                                         !
 ! A59   A(30,29,32)           107.8151                                         !
 ! A60   A(31,29,32)           107.9618                                         !
 ! A61   A(27,33,34)           110.8103                                         !
 ! A62   A(27,33,35)           112.3685                                         !
 ! A63   A(27,33,36)           110.4663                                         !
 ! A64   A(34,33,35)           108.1799                                         !
 ! A65   A(34,33,36)           107.3858                                         !
 ! A66   A(35,33,36)           107.4348                                         !
 ! A67   A(22,37,38)           122.2421                                         !
 ! A68   A(22,37,39)           120.9973                                         !
 ! A69   A(38,37,39)           116.7246                                         !
 ! A70   A(37,39,40)           108.3464                                         !
 ! A71   A(37,39,41)           106.8452                                         !
 ! A72   A(37,39,42)           110.736                                          !
 ! A73   A(40,39,41)           110.1611                                         !
 ! A74   A(40,39,42)           109.3714                                         !
 ! A75   A(41,39,42)           111.3144                                         !
 ! A76   A(39,41,45)           123.9607                                         !
 ! A77   A(39,41,61)           112.2989                                         !
 ! A78   A(45,41,61)           123.6995                                         !
 ! A79   A(39,42,43)           108.7448                                         !
 ! A80   A(39,42,44)           107.6184                                         !
 ! A81   A(39,42,46)           114.1745                                         !
 ! A82   A(43,42,44)           107.6352                                         !
 ! A83   A(43,42,46)           111.1783                                         !
 ! A84   A(44,42,46)           107.2261                                         !
 ! A85   A(42,46,47)           111.5698                                         !
 ! A86   A(42,46,48)           108.1521                                         !
 ! A87   A(42,46,49)           110.555                                          !
 ! A88   A(47,46,48)           107.6093                                         !
 ! A89   A(47,46,49)           109.7259                                         !
 ! A90   A(48,46,49)           109.1412                                         !
 ! A91   A(46,49,50)           110.907                                          !
 ! A92   A(46,49,51)           110.4572                                         !
 ! A93   A(46,49,52)           113.3201                                         !
 ! A94   A(50,49,51)           106.9176                                         !
 ! A95   A(50,49,52)           106.8999                                         !
 ! A96   A(51,49,52)           108.0597                                         !
 ! A97   A(49,52,53)           116.2937                                         !
 ! A98   A(49,52,60)           122.2001                                         !
 ! A99   A(53,52,60)           115.9127                                         !
 ! A100  A(55,54,56)           109.1993                                         !
 ! A101  A(55,54,60)           123.1973                                         !
 ! A102  A(56,54,60)           126.4568                                         !
 ! A103  A(58,57,59)           114.4688                                         !
 ! A104  A(58,57,60)           117.4799                                         !
 ! A105  A(59,57,60)           118.5409                                         !
 ! A106  A(52,60,54)           121.0139                                         !
 ! A107  A(52,60,57)           117.6448                                         !
 ! A108  A(54,60,57)           121.3404                                         !
 ! A109  A(41,61,62)           106.8989                                         !
 ! D1    D(2,1,5,6)             20.5214                                         !
 ! D2    D(2,1,5,7)            -98.9688                                         !
 ! D3    D(2,1,5,8)            142.7042                                         !
 ! D4    D(3,1,5,6)            137.1732                                         !
 ! D5    D(3,1,5,7)             17.683                                          !
 ! D6    D(3,1,5,8)           -100.644                                          !
 ! D7    D(4,1,5,6)           -103.4972                                         !
 ! D8    D(4,1,5,7)            137.0126                                         !
 ! D9    D(4,1,5,8)             18.6856                                         !
 ! D10   D(1,5,7,11)           -17.7561                                         !
 ! D11   D(1,5,7,18)           164.5255                                         !
 ! D12   D(6,5,7,11)          -133.7704                                         !
 ! D13   D(6,5,7,18)            48.5111                                         !
 ! D14   D(8,5,7,11)            99.5296                                         !
 ! D15   D(8,5,7,18)           -78.1888                                         !
 ! D16   D(1,5,8,9)             74.9939                                         !
 ! D17   D(1,5,8,10)           -42.1021                                         !
 ! D18   D(1,5,8,12)          -162.6259                                         !
 ! D19   D(6,5,8,9)           -164.8978                                         !
 ! D20   D(6,5,8,10)            78.0061                                         !
 ! D21   D(6,5,8,12)           -42.5177                                         !
 ! D22   D(7,5,8,9)            -37.4361                                         !
 ! D23   D(7,5,8,10)          -154.5321                                         !
 ! D24   D(7,5,8,12)            84.9441                                         !
 ! D25   D(5,7,18,19)            7.3906                                         !
 ! D26   D(5,7,18,20)          156.9921                                         !
 ! D27   D(11,7,18,19)        -170.1172                                         !
 ! D28   D(11,7,18,20)         -20.5157                                         !
 ! D29   D(5,8,12,13)          -52.8624                                         !
 ! D30   D(5,8,12,14)           68.9759                                         !
 ! D31   D(5,8,12,15)         -169.1156                                         !
 ! D32   D(9,8,12,13)           70.1223                                         !
 ! D33   D(9,8,12,14)         -168.0393                                         !
 ! D34   D(9,8,12,15)          -46.1308                                         !
 ! D35   D(10,8,12,13)        -173.3773                                         !
 ! D36   D(10,8,12,14)         -51.5389                                         !
 ! D37   D(10,8,12,15)          70.3696                                         !
 ! D38   D(8,12,15,16)          51.9606                                         !
 ! D39   D(8,12,15,17)        -129.4553                                         !
 ! D40   D(13,12,15,16)        -68.1385                                         !
 ! D41   D(13,12,15,17)        110.4456                                         !
 ! D42   D(14,12,15,16)        174.844                                          !
 ! D43   D(14,12,15,17)         -6.5719                                         !
 ! D44   D(7,18,20,21)           8.5529                                         !
 ! D45   D(7,18,20,22)        -109.2609                                         !
 ! D46   D(7,18,20,23)         130.4802                                         !
 ! D47   D(19,18,20,21)        159.8142                                         !
 ! D48   D(19,18,20,22)         42.0003                                         !
 ! D49   D(19,18,20,23)        -78.2586                                         !
 ! D50   D(18,20,22,26)        -36.3107                                         !
 ! D51   D(18,20,22,37)        142.5051                                         !
 ! D52   D(21,20,22,26)       -151.2596                                         !
 ! D53   D(21,20,22,37)         27.5563                                         !
 ! D54   D(23,20,22,26)         84.4061                                         !
 ! D55   D(23,20,22,37)        -96.7781                                         !
 ! D56   D(18,20,23,24)        178.7361                                         !
 ! D57   D(18,20,23,25)         64.0521                                         !
 ! D58   D(18,20,23,27)        -59.1359                                         !
 ! D59   D(21,20,23,24)        -61.6423                                         !
 ! D60   D(21,20,23,25)       -176.3264                                         !
 ! D61   D(21,20,23,27)         60.4857                                         !
 ! D62   D(22,20,23,24)         62.7623                                         !
 ! D63   D(22,20,23,25)        -51.9217                                         !
 ! D64   D(22,20,23,27)       -175.1096                                         !
 ! D65   D(20,22,37,38)          4.1924                                         !
 ! D66   D(20,22,37,39)       -173.5554                                         !
 ! D67   D(26,22,37,38)       -177.043                                          !
 ! D68   D(26,22,37,39)          5.2092                                         !
 ! D69   D(20,23,27,28)         60.696                                          !
 ! D70   D(20,23,27,29)        177.8619                                         !
 ! D71   D(20,23,27,33)        -58.2544                                         !
 ! D72   D(24,23,27,28)       -178.2863                                         !
 ! D73   D(24,23,27,29)        -61.1204                                         !
 ! D74   D(24,23,27,33)         62.7633                                         !
 ! D75   D(25,23,27,28)        -61.5434                                         !
 ! D76   D(25,23,27,29)         55.6225                                         !
 ! D77   D(25,23,27,33)        179.5062                                         !
 ! D78   D(23,27,29,30)         63.8109                                         !
 ! D79   D(23,27,29,31)       -176.6832                                         !
 ! D80   D(23,27,29,32)        -56.3248                                         !
 ! D81   D(28,27,29,30)       -179.3163                                         !
 ! D82   D(28,27,29,31)        -59.8105                                         !
 ! D83   D(28,27,29,32)         60.548                                          !
 ! D84   D(33,27,29,30)        -60.8297                                         !
 ! D85   D(33,27,29,31)         58.6761                                         !
 ! D86   D(33,27,29,32)        179.0346                                         !
 ! D87   D(23,27,33,34)        -57.2178                                         !
 ! D88   D(23,27,33,35)         63.9365                                         !
 ! D89   D(23,27,33,36)       -176.1021                                         !
 ! D90   D(28,27,33,34)       -175.7918                                         !
 ! D91   D(28,27,33,35)        -54.6374                                         !
 ! D92   D(28,27,33,36)         65.324                                          !
 ! D93   D(29,27,33,34)         65.8272                                         !
 ! D94   D(29,27,33,35)       -173.0185                                         !
 ! D95   D(29,27,33,36)        -53.0571                                         !
 ! D96   D(22,37,39,40)        -37.8589                                         !
 ! D97   D(22,37,39,41)       -156.5314                                         !
 ! D98   D(22,37,39,42)         82.0884                                         !
 ! D99   D(38,37,39,40)        144.2738                                         !
 ! D100  D(38,37,39,41)         25.6013                                         !
 ! D101  D(38,37,39,42)        -95.7789                                         !
 ! D102  D(37,39,41,45)        -17.2184                                         !
 ! D103  D(37,39,41,61)        165.0371                                         !
 ! D104  D(40,39,41,45)       -134.7027                                         !
 ! D105  D(40,39,41,61)         47.5528                                         !
 ! D106  D(42,39,41,45)        103.7946                                         !
 ! D107  D(42,39,41,61)        -73.9499                                         !
 ! D108  D(37,39,42,43)         78.199                                          !
 ! D109  D(37,39,42,44)        -38.1244                                         !
 ! D110  D(37,39,42,46)       -157.0151                                         !
 ! D111  D(40,39,42,43)       -162.469                                          !
 ! D112  D(40,39,42,44)         81.2075                                         !
 ! D113  D(40,39,42,46)        -37.6832                                         !
 ! D114  D(41,39,42,43)        -40.5075                                         !
 ! D115  D(41,39,42,44)       -156.8309                                         !
 ! D116  D(41,39,42,46)         84.2784                                         !
 ! D117  D(39,41,61,62)        177.769                                          !
 ! D118  D(45,41,61,62)          0.0176                                         !
 ! D119  D(39,42,46,47)        -49.0912                                         !
 ! D120  D(39,42,46,48)         69.0699                                         !
 ! D121  D(39,42,46,49)       -171.4927                                         !
 ! D122  D(43,42,46,47)         74.3908                                         !
 ! D123  D(43,42,46,48)       -167.4482                                         !
 ! D124  D(43,42,46,49)        -48.0108                                         !
 ! D125  D(44,42,46,47)       -168.2039                                         !
 ! D126  D(44,42,46,48)        -50.0429                                         !
 ! D127  D(44,42,46,49)         69.3945                                         !
 ! D128  D(42,46,49,50)         74.6431                                         !
 ! D129  D(42,46,49,51)        -43.7146                                         !
 ! D130  D(42,46,49,52)       -165.122                                          !
 ! D131  D(47,46,49,50)        -48.8311                                         !
 ! D132  D(47,46,49,51)       -167.1887                                         !
 ! D133  D(47,46,49,52)         71.4039                                         !
 ! D134  D(48,46,49,50)       -166.5183                                         !
 ! D135  D(48,46,49,51)         75.1241                                         !
 ! D136  D(48,46,49,52)        -46.2833                                         !
 ! D137  D(46,49,52,53)        -74.5141                                         !
 ! D138  D(46,49,52,60)         78.0067                                         !
 ! D139  D(50,49,52,53)         47.9729                                         !
 ! D140  D(50,49,52,60)       -159.5062                                         !
 ! D141  D(51,49,52,53)        162.7418                                         !
 ! D142  D(51,49,52,60)        -44.7374                                         !
 ! D143  D(49,52,60,54)         12.9055                                         !
 ! D144  D(49,52,60,57)       -166.7559                                         !
 ! D145  D(53,52,60,54)        165.5233                                         !
 ! D146  D(53,52,60,57)        -14.1382                                         !
 ! D147  D(55,54,60,52)       -176.2745                                         !
 ! D148  D(55,54,60,57)          3.3743                                         !
 ! D149  D(56,54,60,52)         -9.8601                                         !
 ! D150  D(56,54,60,57)        169.7887                                         !
 ! D151  D(58,57,60,52)       -167.4896                                         !
 ! D152  D(58,57,60,54)         12.8502                                         !
 ! D153  D(59,57,60,52)        -22.9673                                         !
 ! D154  D(59,57,60,54)        157.3724                                         !
 --------------------------------------------------------------------------------
 Symmetry turned off by external request.
 Stoichiometry    C17H33N6O6(1+)
 Framework group  C1[X(C17H33N6O6)]
 Deg. of freedom   180
 Full point group                 C1      NOp   1
                          Input orientation:                          
 ---------------------------------------------------------------------
 Center     Atomic      Atomic             Coordinates (Angstroms)
 Number     Number       Type             X           Y           Z
 ---------------------------------------------------------------------
      1          7           0       -1.382889    0.056561   -4.328755
      2          1           0       -2.069518   -0.653415   -4.598352
      3          1           0       -1.855282    0.764201   -3.695287
      4          1           0       -1.013889    0.499737   -5.174447
      5          6           0       -0.281348   -0.480784   -3.431318
      6          1           0       -0.240137   -1.565372   -3.553666
      7          6           0       -0.766118   -0.047288   -2.027730
      8          6           0        1.062147    0.184212   -3.792439
      9          1           0        1.082094    1.211135   -3.412345
     10          1           0        1.136230    0.235023   -4.888498
     11          8           0       -1.626291    0.844907   -1.972955
     12          6           0        2.292451   -0.559131   -3.263833
     13          1           0        2.213300   -0.741050   -2.187589
     14          1           0        2.428483   -1.513458   -3.779946
     15          6           0        3.565476    0.301994   -3.429160
     16          8           0        3.467178    1.488462   -2.945469
     17          8           0        4.557764   -0.208240   -3.971480
     18          7           0       -0.188911   -0.632589   -0.979390
     19          1           0        0.609442   -1.241153   -1.141849
     20          6           0       -0.162111   -0.019223    0.356066
     21          1           0       -0.808671    0.858161    0.318563
     22          6           0        1.308796    0.382816    0.553391
     23          6           0       -0.622487   -0.996956    1.445288
     24          1           0       -0.552817   -0.475023    2.409237
     25          1           0        0.094865   -1.826400    1.487283
     26          8           0        2.202934   -0.339038    0.109037
     27          6           0       -2.047471   -1.543710    1.257634
     28          1           0       -2.071865   -2.084513    0.300485
     29          6           0       -2.364355   -2.544137    2.376095
     30          1           0       -2.364080   -2.048460    3.354661
     31          1           0       -3.353088   -2.991824    2.231031
     32          1           0       -1.628008   -3.355024    2.410791
     33          6           0       -3.098135   -0.426745    1.203802
     34          1           0       -3.059358    0.189176    2.111502
     35          1           0       -2.963264    0.230991    0.338520
     36          1           0       -4.105558   -0.851429    1.139295
     37          7           0        1.538487    1.542294    1.195933
     38          1           0        0.789733    2.098544    1.591661
     39          6           0        2.884860    2.080853    1.311406
     40          1           0        3.576378    1.248322    1.467002
     41          6           0        2.889549    2.997764    2.520789
     42          6           0        3.282813    2.846259    0.021846
     43          1           0        2.805708    3.835864    0.037186
     44          1           0        2.874279    2.294426   -0.830263
     45          8           0        1.887069    3.440298    3.038894
     46          6           0        4.793305    2.963902   -0.196377
     47          1           0        5.304119    3.318448    0.705538
     48          1           0        5.183575    1.966237   -0.427967
     49          6           0        5.096679    3.907700   -1.368576
     50          1           0        4.939140    4.951154   -1.080456
     51          1           0        4.425496    3.704373   -2.205973
     52          7           0        6.477174    3.803454   -1.856220
     53          1           0        7.190528    4.223003   -1.274906
     54          7           0        6.018954    1.995122   -3.231304
     55          1           0        6.288675    1.192185   -3.791599
     56          1           0        4.965369    1.950712   -3.035537
     57          7           0        8.226603    2.623852   -2.828541
     58          1           0        8.527200    2.001500   -3.565973
     59          1           0        8.835617    3.415775   -2.674837
     60          6           0        6.885146    2.790402   -2.653931
     61          8           0        4.136219    3.303877    2.924663
     62          1           0        4.047542    3.920344    3.677520
 ---------------------------------------------------------------------
 Rotational constants (GHZ):           0.1930326           0.0999159           0.0731915
 Standard basis: 6-31G(d) (6D, 7F)
   501 basis functions,   944 primitive gaussians,   501 cartesian basis functions
   112 alpha electrons      112 beta electrons
       nuclear repulsion energy      3081.8546304711 Hartrees.
 NAtoms=   62 NActive=   62 NUniq=   62 SFac= 1.00D+00 NAtFMM=   60 NAOKFM=T Big=T
 Integral buffers will be    131072 words long.
 Raffenetti 2 integral format.
 Two-electron integral symmetry is turned off.
 Nuclear repulsion after empirical dispersion term =     3081.7315539399 Hartrees.
 One-electron integrals computed using PRISM.
 NBasis=   501 RedAO= T EigKep=  1.92D-03  NBF=   501
 NBsUse=   501 1.00D-06 EigRej= -1.00D+00 NBFU=   501
 Initial guess from the checkpoint file:  "conf-18.chk"
 B after Tr=     0.000000    0.000000    0.000000
         Rot=    1.000000    0.000000    0.000000    0.000000 Ang=   0.00 deg.
 Requested convergence on RMS density matrix=1.00D-08 within 128 cycles.
 Requested convergence on MAX density matrix=1.00D-06.
 Requested convergence on             energy=1.00D-06.
 No special actions if energy rises.
 SCF Done:  E(RB3LYP) =  -1447.52737553     A.U. after    2 cycles
            NFock=  2  Conv=0.92D-08     -V/T= 2.0093

 **********************************************************************

            Population analysis using the SCF Density.

 **********************************************************************

 Alpha  occ. eigenvalues --  -19.29326 -19.26453 -19.23628 -19.21520 -19.16346
 Alpha  occ. eigenvalues --  -19.15143 -14.59336 -14.49046 -14.47716 -14.47705
 Alpha  occ. eigenvalues --  -14.46051 -14.44003 -10.43095 -10.43025 -10.41628
 Alpha  occ. eigenvalues --  -10.39660 -10.38694 -10.33956 -10.33869 -10.33156
 Alpha  occ. eigenvalues --  -10.32062 -10.31429 -10.27898 -10.27597 -10.27469
 Alpha  occ. eigenvalues --  -10.27225 -10.26646 -10.24888 -10.24569  -1.20281
 Alpha  occ. eigenvalues --   -1.18859  -1.13873  -1.13130  -1.11820  -1.11336
 Alpha  occ. eigenvalues --   -1.09020  -1.05811  -1.02632  -1.01693  -1.00178
 Alpha  occ. eigenvalues --   -0.98866  -0.92798  -0.90253  -0.89189  -0.85703
 Alpha  occ. eigenvalues --   -0.84160  -0.82326  -0.78213  -0.76073  -0.75622
 Alpha  occ. eigenvalues --   -0.74632  -0.73518  -0.73409  -0.72529  -0.70807
 Alpha  occ. eigenvalues --   -0.69941  -0.69434  -0.68744  -0.67904  -0.66310
 Alpha  occ. eigenvalues --   -0.65951  -0.63814  -0.62650  -0.61214  -0.60866
 Alpha  occ. eigenvalues --   -0.58911  -0.58459  -0.58212  -0.57598  -0.57463
 Alpha  occ. eigenvalues --   -0.56954  -0.56057  -0.55671  -0.55218  -0.54891
 Alpha  occ. eigenvalues --   -0.53834  -0.53441  -0.53043  -0.52547  -0.52446
 Alpha  occ. eigenvalues --   -0.51431  -0.50819  -0.50085  -0.49405  -0.49179
 Alpha  occ. eigenvalues --   -0.48482  -0.47894  -0.47733  -0.47307  -0.46901
 Alpha  occ. eigenvalues --   -0.46467  -0.45872  -0.45687  -0.44513  -0.44368
 Alpha  occ. eigenvalues --   -0.43703  -0.42422  -0.42276  -0.41206  -0.41162
 Alpha  occ. eigenvalues --   -0.41025  -0.40752  -0.40350  -0.39071  -0.38073
 Alpha  occ. eigenvalues --   -0.37397  -0.36363  -0.35282  -0.34843  -0.31646
 Alpha  occ. eigenvalues --   -0.31287  -0.29395
 Alpha virt. eigenvalues --   -0.11871  -0.10344  -0.08553  -0.07555  -0.07325
 Alpha virt. eigenvalues --   -0.05897  -0.04624  -0.03498  -0.01710  -0.01321
 Alpha virt. eigenvalues --   -0.01024  -0.00472   0.00061   0.00797   0.01384
 Alpha virt. eigenvalues --    0.01664   0.02286   0.02814   0.03726   0.04523
 Alpha virt. eigenvalues --    0.04645   0.05095   0.05244   0.05992   0.06528
 Alpha virt. eigenvalues --    0.06847   0.07244   0.07564   0.07696   0.07908
 Alpha virt. eigenvalues --    0.08330   0.08932   0.09498   0.09787   0.10177
 Alpha virt. eigenvalues --    0.10600   0.10706   0.11093   0.11640   0.12793
 Alpha virt. eigenvalues --    0.13146   0.13887   0.14067   0.14832   0.15229
 Alpha virt. eigenvalues --    0.16007   0.16400   0.16560   0.17551   0.18054
 Alpha virt. eigenvalues --    0.18452   0.18796   0.19107   0.19352   0.19408
 Alpha virt. eigenvalues --    0.20363   0.22834   0.23578   0.26821   0.28410
 Alpha virt. eigenvalues --    0.28668   0.29314   0.30813   0.32243   0.33757
 Alpha virt. eigenvalues --    0.35473   0.38449   0.39226   0.40094   0.40407
 Alpha virt. eigenvalues --    0.41219   0.42154   0.42951   0.43128   0.43359
 Alpha virt. eigenvalues --    0.44052   0.44476   0.45208   0.45239   0.46432
 Alpha virt. eigenvalues --    0.46663   0.47015   0.47545   0.47966   0.49293
 Alpha virt. eigenvalues --    0.49768   0.50196   0.50811   0.51848   0.52458
 Alpha virt. eigenvalues --    0.52849   0.54083   0.54791   0.55175   0.55678
 Alpha virt. eigenvalues --    0.55857   0.56132   0.56901   0.57391   0.58547
 Alpha virt. eigenvalues --    0.58665   0.59244   0.60364   0.60464   0.60590
 Alpha virt. eigenvalues --    0.61210   0.61770   0.63142   0.63464   0.64324
 Alpha virt. eigenvalues --    0.65000   0.65393   0.65913   0.66054   0.66887
 Alpha virt. eigenvalues --    0.67466   0.68089   0.69396   0.70144   0.70362
 Alpha virt. eigenvalues --    0.71490   0.72166   0.72248   0.72741   0.73090
 Alpha virt. eigenvalues --    0.73449   0.73579   0.74918   0.75722   0.76135
 Alpha virt. eigenvalues --    0.76477   0.76692   0.76916   0.77216   0.77708
 Alpha virt. eigenvalues --    0.78063   0.78725   0.79075   0.79488   0.79622
 Alpha virt. eigenvalues --    0.80105   0.80642   0.80931   0.81461   0.81806
 Alpha virt. eigenvalues --    0.82768   0.82885   0.83552   0.83972   0.84171
 Alpha virt. eigenvalues --    0.84506   0.85057   0.85225   0.85593   0.85931
 Alpha virt. eigenvalues --    0.87156   0.87421   0.88204   0.88627   0.89976
 Alpha virt. eigenvalues --    0.90582   0.91485   0.91568   0.92625   0.92948
 Alpha virt. eigenvalues --    0.93647   0.94439   0.94848   0.95595   0.96974
 Alpha virt. eigenvalues --    0.97068   0.98649   0.99937   1.00380   1.01403
 Alpha virt. eigenvalues --    1.02251   1.03559   1.04549   1.05363   1.05799
 Alpha virt. eigenvalues --    1.07264   1.09116   1.10474   1.11244   1.13411
 Alpha virt. eigenvalues --    1.15077   1.16155   1.16819   1.18605   1.19569
 Alpha virt. eigenvalues --    1.20645   1.21030   1.22167   1.24527   1.24928
 Alpha virt. eigenvalues --    1.25810   1.26383   1.27659   1.29484   1.30368
 Alpha virt. eigenvalues --    1.30907   1.32556   1.34303   1.35560   1.36577
 Alpha virt. eigenvalues --    1.37196   1.37845   1.39157   1.40436   1.41807
 Alpha virt. eigenvalues --    1.42001   1.43265   1.44303   1.44832   1.46676
 Alpha virt. eigenvalues --    1.48341   1.49349   1.50576   1.51291   1.53123
 Alpha virt. eigenvalues --    1.54376   1.55259   1.56246   1.57400   1.58120
 Alpha virt. eigenvalues --    1.58771   1.60084   1.60460   1.61168   1.62578
 Alpha virt. eigenvalues --    1.63357   1.63898   1.64573   1.65264   1.66020
 Alpha virt. eigenvalues --    1.67474   1.68327   1.69269   1.69865   1.70058
 Alpha virt. eigenvalues --    1.70791   1.71659   1.72009   1.72198   1.73096
 Alpha virt. eigenvalues --    1.73952   1.74759   1.75230   1.76571   1.77866
 Alpha virt. eigenvalues --    1.78357   1.79236   1.79727   1.80337   1.80555
 Alpha virt. eigenvalues --    1.80817   1.82009   1.82181   1.83246   1.84400
 Alpha virt. eigenvalues --    1.85045   1.85833   1.86491   1.87283   1.87779
 Alpha virt. eigenvalues --    1.88148   1.89420   1.89703   1.90603   1.91252
 Alpha virt. eigenvalues --    1.92246   1.92647   1.93171   1.94082   1.94599
 Alpha virt. eigenvalues --    1.95266   1.96754   1.97215   1.97544   1.99415
 Alpha virt. eigenvalues --    1.99927   2.00061   2.01642   2.02311   2.02798
 Alpha virt. eigenvalues --    2.03960   2.05603   2.05775   2.08888   2.09502
 Alpha virt. eigenvalues --    2.10144   2.11297   2.13554   2.14934   2.16145
 Alpha virt. eigenvalues --    2.17051   2.17520   2.18575   2.19836   2.20213
 Alpha virt. eigenvalues --    2.21244   2.23144   2.23855   2.24454   2.25543
 Alpha virt. eigenvalues --    2.26868   2.27444   2.29292   2.30358   2.31585
 Alpha virt. eigenvalues --    2.31696   2.32390   2.34830   2.36281   2.36859
 Alpha virt. eigenvalues --    2.38797   2.39892   2.40021   2.41220   2.42825
 Alpha virt. eigenvalues --    2.43769   2.44523   2.45358   2.45893   2.47807
 Alpha virt. eigenvalues --    2.49325   2.49812   2.51066   2.52048   2.52741
 Alpha virt. eigenvalues --    2.54335   2.57451   2.57508   2.59759   2.60928
 Alpha virt. eigenvalues --    2.61371   2.61512   2.63644   2.65270   2.66480
 Alpha virt. eigenvalues --    2.69255   2.69957   2.70457   2.74371   2.75010
 Alpha virt. eigenvalues --    2.77618   2.78487   2.80779   2.84699   2.87304
 Alpha virt. eigenvalues --    2.89386   2.89708   2.92279   2.94495   2.95046
 Alpha virt. eigenvalues --    3.00755   3.01489   3.03524   3.09730   3.10578
 Alpha virt. eigenvalues --    3.64184   3.69774   3.79943   3.86871   3.88922
 Alpha virt. eigenvalues --    3.93256   3.96467   4.00738   4.01778   4.03136
 Alpha virt. eigenvalues --    4.07940   4.09502   4.12706   4.15197   4.18307
 Alpha virt. eigenvalues --    4.21138   4.22226   4.24197   4.24484   4.30992
 Alpha virt. eigenvalues --    4.32456   4.34344   4.37138   4.44437   4.46675
 Alpha virt. eigenvalues --    4.49229   4.52868   4.58029   4.60381
          Condensed to atoms (all electrons):
 Mulliken charges:
               1
     1  N   -0.753459
     2  H    0.414162
     3  H    0.430883
     4  H    0.412308
     5  C   -0.111569
     6  H    0.210762
     7  C    0.645927
     8  C   -0.303079
     9  H    0.203770
    10  H    0.161216
    11  O   -0.539368
    12  C   -0.379886
    13  H    0.190001
    14  H    0.159792
    15  C    0.601487
    16  O   -0.637504
    17  O   -0.566854
    18  N   -0.569197
    19  H    0.367589
    20  C   -0.107422
    21  H    0.193539
    22  C    0.648025
    23  C   -0.265042
    24  H    0.156350
    25  H    0.159800
    26  O   -0.534193
    27  C   -0.069763
    28  H    0.121927
    29  C   -0.445778
    30  H    0.152302
    31  H    0.156229
    32  H    0.149686
    33  C   -0.469057
    34  H    0.148529
    35  H    0.156528
    36  H    0.157887
    37  N   -0.616334
    38  H    0.358121
    39  C   -0.034617
    40  H    0.207611
    41  C    0.586309
    42  C   -0.302219
    43  H    0.143472
    44  H    0.216359
    45  O   -0.460637
    46  C   -0.274015
    47  H    0.160124
    48  H    0.170999
    49  C   -0.184205
    50  H    0.171003
    51  H    0.210913
    52  N   -0.596857
    53  H    0.345088
    54  N   -0.799932
    55  H    0.367134
    56  H    0.456029
    57  N   -0.760375
    58  H    0.367990
    59  H    0.359565
    60  C    0.794719
    61  O   -0.559859
    62  H    0.427082
 Sum of Mulliken charges =   1.00000
 Mulliken charges with hydrogens summed into heavy atoms:
               1
     1  N    0.503894
     5  C    0.099193
     7  C    0.645927
     8  C    0.061907
    11  O   -0.539368
    12  C   -0.030092
    15  C    0.601487
    16  O   -0.637504
    17  O   -0.566854
    18  N   -0.201608
    20  C    0.086117
    22  C    0.648025
    23  C    0.051108
    26  O   -0.534193
    27  C    0.052165
    29  C    0.012440
    33  C   -0.006113
    37  N   -0.258214
    39  C    0.172993
    41  C    0.586309
    42  C    0.057612
    45  O   -0.460637
    46  C    0.057108
    49  C    0.197711
    52  N   -0.251770
    54  N    0.023231
    57  N   -0.032819
    60  C    0.794719
    61  O   -0.132776
 Electronic spatial extent (au):  <R**2>=          19419.5138
 Charge=              1.0000 electrons
 Dipole moment (field-independent basis, Debye):
    X=              9.3383    Y=              7.3485    Z=            -11.4962  Tot=             16.5338
 Quadrupole moment (field-independent basis, Debye-Ang):
   XX=            -41.1926   YY=           -133.7429   ZZ=           -101.0281
   XY=             74.0051   XZ=              1.8122   YZ=             -4.7028
 Traceless Quadrupole moment (field-independent basis, Debye-Ang):
   XX=             50.7953   YY=            -41.7551   ZZ=             -9.0402
   XY=             74.0051   XZ=              1.8122   YZ=             -4.7028
 Octapole moment (field-independent basis, Debye-Ang**2):
  XXX=             55.8546  YYY=           -370.6005  ZZZ=            154.4853  XYY=            -92.4450
  XXY=            343.4317  XXZ=           -144.5077  XZZ=           -345.9448  YZZ=           -120.3368
  YYZ=            122.4335  XYZ=            -87.5089
 Hexadecapole moment (field-independent basis, Debye-Ang**3):
 XXXX=          -4119.4181 YYYY=          -3882.9060 ZZZZ=          -4771.3526 XXXY=            977.5119
 XXXZ=           -960.0503 YYYX=          -2059.9827 YYYZ=            325.4590 ZZZX=           2343.2082
 ZZZY=            332.2795 XXYY=          -1178.9583 XXZZ=          -2130.0638 YYZZ=          -1602.5444
 XXYZ=           -775.7606 YYXZ=            476.7823 ZZXY=           -511.9568
 N-N= 3.081731553940D+03 E-N=-9.516617611706D+03  KE= 1.434175373796D+03
 Unable to Open any file for archive entry.
 1\1\GINC-LAC-315\SP\RB3LYP\6-31G(d)\C17H33N6O6(1+)\KENGMITH\23-Jun-202
 2\0\\# B3LYP/6-31G* empiricaldispersion=gd3bj guess=read geom=check no
 symm integral(ultrafinegrid)\\Candidate Structure: Conf:18 Charge calc
  in gas phase\\1,1\N,0,-1.3828888337,0.0565608005,-4.3287548559\H,0,-2
 .0695180157,-0.653414616,-4.5983516896\H,0,-1.8552818979,0.7642006851,
 -3.6952866986\H,0,-1.0138890273,0.4997370136,-5.1744471976\C,0,-0.2813
 484797,-0.4807836154,-3.4313181361\H,0,-0.2401372061,-1.5653718249,-3.
 5536662065\C,0,-0.7661184323,-0.0472876678,-2.0277298126\C,0,1.0621469
 05,0.1842120531,-3.7924394713\H,0,1.082093888,1.2111347647,-3.41234548
 89\H,0,1.1362301271,0.2350227249,-4.8884982021\O,0,-1.6262906017,0.844
 9070416,-1.9729552361\C,0,2.2924506223,-0.5591312658,-3.2638330914\H,0
 ,2.2132996595,-0.7410501657,-2.1875892581\H,0,2.4284834193,-1.51345835
 97,-3.7799464723\C,0,3.565475533,0.3019943157,-3.4291603123\O,0,3.4671
 784389,1.4884623844,-2.9454694407\O,0,4.5577643359,-0.2082398829,-3.97
 14797067\N,0,-0.1889111689,-0.6325892717,-0.9793901043\H,0,0.609441752
 ,-1.2411533653,-1.1418485602\C,0,-0.1621107323,-0.0192230129,0.3560664
 459\H,0,-0.8086711887,0.8581609015,0.3185627071\C,0,1.3087962437,0.382
 8164359,0.5533913958\C,0,-0.6224869479,-0.9969558208,1.4452883279\H,0,
 -0.552816507,-0.4750231984,2.409237207\H,0,0.0948650744,-1.8263997634,
 1.4872834904\O,0,2.2029342051,-0.339037793,0.1090365471\C,0,-2.0474705
 645,-1.5437098957,1.257634029\H,0,-2.0718647288,-2.0845132703,0.300484
 6732\C,0,-2.3643549784,-2.5441370255,2.3760949222\H,0,-2.3640797634,-2
 .0484601833,3.3546611334\H,0,-3.3530878183,-2.9918240243,2.2310309513\
 H,0,-1.6280075872,-3.3550240875,2.4107914013\C,0,-3.0981353999,-0.4267
 454039,1.2038023168\H,0,-3.0593576672,0.1891759016,2.1115023589\H,0,-2
 .9632635968,0.2309910491,0.3385195435\H,0,-4.1055581458,-0.8514292032,
 1.139294584\N,0,1.5384869197,1.5422940168,1.1959333607\H,0,0.789733291
 6,2.0985442972,1.5916614881\C,0,2.8848603878,2.0808528952,1.3114058746
 \H,0,3.5763781879,1.2483220522,1.4670023303\C,0,2.8895492784,2.9977637
 631,2.520789141\C,0,3.2828130192,2.8462586362,0.0218460544\H,0,2.80570
 75857,3.8358644673,0.0371857198\H,0,2.874278833,2.2944261873,-0.830262
 7577\O,0,1.8870693477,3.4402981331,3.0388942808\C,0,4.7933049585,2.963
 9018814,-0.1963771375\H,0,5.3041188123,3.3184475174,0.7055381909\H,0,5
 .1835748152,1.9662368162,-0.4279667463\C,0,5.0966792155,3.9077000182,-
 1.3685760841\H,0,4.9391403035,4.9511543484,-1.0804563603\H,0,4.4254964
 057,3.704372789,-2.2059726223\N,0,6.4771737583,3.8034537016,-1.8562198
 58\H,0,7.1905281655,4.2230031838,-1.2749057261\N,0,6.0189543754,1.9951
 222033,-3.2313042023\H,0,6.2886750124,1.1921845847,-3.7915986849\H,0,4
 .9653687514,1.9507124061,-3.0355365216\N,0,8.2266033294,2.6238519655,-
 2.8285409764\H,0,8.5272004045,2.0015001048,-3.5659727571\H,0,8.8356165
 607,3.415775129,-2.6748370555\C,0,6.8851456082,2.7904019554,-2.6539306
 754\O,0,4.1362186463,3.3038770015,2.9246632156\H,0,4.0475420719,3.9203
 435109,3.677519786\\Version=ES64L-G16RevC.01\HF=-1447.5273755\RMSD=9.2
 29e-09\Dipole=-0.2009948,0.9614602,-2.934102\Quadrupole=37.7650428,-31
 .0438645,-6.7211784,55.0209712,1.3473116,-3.4963932\PG=C01 [X(C17H33N6
 O6)]\\@
 The archive entry for this job was punched.


 IT IS BY LOGIC THAT WE PROVE, BUT BY INTUITION THAT WE DISCOVER.
     -- J.H.POINCARE (1854-1912)
 Job cpu time:       0 days  0 hours  1 minutes 59.6 seconds.
 Elapsed time:       0 days  0 hours  0 minutes 30.5 seconds.
 File lengths (MBytes):  RWF=    248 Int=      0 D2E=      0 Chk=     32 Scr=     16
 Normal termination of Gaussian 16 at Thu Jun 23 05:40:17 2022.
