 Entering Gaussian System, Link 0=/opt/software/Gaussian/g16-AVX2-C.01/g16/g16
 Input=charge-conf-746.com
 Output=charge-conf-746.log
 Initial command:
 /opt/software/Gaussian/g16-AVX2-C.01/g16/l1.exe "/mnt/gs18/scratch/users/kengmith/Gau-23952.inp" -scrdir="/mnt/gs18/scratch/users/kengmith/"
 Entering Link 1 = /opt/software/Gaussian/g16-AVX2-C.01/g16/l1.exe PID=     23962.
  
 Copyright (c) 1988-2019, Gaussian, Inc.  All Rights Reserved.
  
 This is part of the Gaussian(R) 16 program.  It is based on
 the Gaussian(R) 09 system (copyright 2009, Gaussian, Inc.),
 the Gaussian(R) 03 system (copyright 2003, Gaussian, Inc.),
 the Gaussian(R) 98 system (copyright 1998, Gaussian, Inc.),
 the Gaussian(R) 94 system (copyright 1995, Gaussian, Inc.),
 the Gaussian 92(TM) system (copyright 1992, Gaussian, Inc.),
 the Gaussian 90(TM) system (copyright 1990, Gaussian, Inc.),
 the Gaussian 88(TM) system (copyright 1988, Gaussian, Inc.),
 the Gaussian 86(TM) system (copyright 1986, Carnegie Mellon
 University), and the Gaussian 82(TM) system (copyright 1983,
 Carnegie Mellon University). Gaussian is a federally registered
 trademark of Gaussian, Inc.
  
 This software contains proprietary and confidential information,
 including trade secrets, belonging to Gaussian, Inc.
  
 This software is provided under written license and may be
 used, copied, transmitted, or stored only in accord with that
 written license.
  
 The following legend is applicable only to US Government
 contracts under FAR:
  
                    RESTRICTED RIGHTS LEGEND
  
 Use, reproduction and disclosure by the US Government is
 subject to restrictions as set forth in subparagraphs (a)
 and (c) of the Commercial Computer Software - Restricted
 Rights clause in FAR 52.227-19.
  
 Gaussian, Inc.
 340 Quinnipiac St., Bldg. 40, Wallingford CT 06492
  
  
 ---------------------------------------------------------------
 Warning -- This program may not be used in any manner that
 competes with the business of Gaussian, Inc. or will provide
 assistance to any competitor of Gaussian, Inc.  The licensee
 of this program is prohibited from giving any competitor of
 Gaussian, Inc. access to this program.  By using this program,
 the user acknowledges that Gaussian, Inc. is engaged in the
 business of creating and licensing software in the field of
 computational chemistry and represents and warrants to the
 licensee that it is not a competitor of Gaussian, Inc. and that
 it will not use this program in any manner prohibited above.
 ---------------------------------------------------------------
  

 Cite this work as:
 Gaussian 16, Revision C.01,
 M. J. Frisch, G. W. Trucks, H. B. Schlegel, G. E. Scuseria, 
 M. A. Robb, J. R. Cheeseman, G. Scalmani, V. Barone, 
 G. A. Petersson, H. Nakatsuji, X. Li, M. Caricato, A. V. Marenich, 
 J. Bloino, B. G. Janesko, R. Gomperts, B. Mennucci, H. P. Hratchian, 
 J. V. Ortiz, A. F. Izmaylov, J. L. Sonnenberg, D. Williams-Young, 
 F. Ding, F. Lipparini, F. Egidi, J. Goings, B. Peng, A. Petrone, 
 T. Henderson, D. Ranasinghe, V. G. Zakrzewski, J. Gao, N. Rega, 
 G. Zheng, W. Liang, M. Hada, M. Ehara, K. Toyota, R. Fukuda, 
 J. Hasegawa, M. Ishida, T. Nakajima, Y. Honda, O. Kitao, H. Nakai, 
 T. Vreven, K. Throssell, J. A. Montgomery, Jr., J. E. Peralta, 
 F. Ogliaro, M. J. Bearpark, J. J. Heyd, E. N. Brothers, K. N. Kudin, 
 V. N. Staroverov, T. A. Keith, R. Kobayashi, J. Normand, 
 K. Raghavachari, A. P. Rendell, J. C. Burant, S. S. Iyengar, 
 J. Tomasi, M. Cossi, J. M. Millam, M. Klene, C. Adamo, R. Cammi, 
 J. W. Ochterski, R. L. Martin, K. Morokuma, O. Farkas, 
 J. B. Foresman, and D. J. Fox, Gaussian, Inc., Wallingford CT, 2019.
 
 ******************************************
 Gaussian 16:  ES64L-G16RevC.01  3-Jul-2019
                23-Jun-2022 
 ******************************************
 %mem=8gb
 %nproc=4
 Will use up to    4 processors via shared memory.
 %chk=conf-746.chk
 ----------------------------------------------------------------------
 # B3LYP/6-31G* empiricaldispersion=gd3bj guess=read geom=check nosymm 
 integral(ultrafinegrid)
 ----------------------------------------------------------------------
 1/29=2,38=1,172=1/1;
 2/12=2,15=1,40=1/2;
 3/5=1,6=6,7=1,11=2,14=-4,25=1,30=1,74=-5,75=-5,116=-2,124=41/1,2,3;
 4/5=1/1;
 5/5=2,38=6/2;
 6/7=2,8=2,9=2,10=2,28=1/1;
 99/5=1,9=1/99;
 ------------------------------------------------------
 Candidate Structure: Conf:746 Charge calc in gas phase
 ------------------------------------------------------
 Structure from the checkpoint file:  "conf-746.chk"
 Charge =  1 Multiplicity = 1
 Redundant internal coordinates found in file.  (old form).
 N,0,-2.1035457278,0.5024884616,-4.2473914472
 H,0,-2.9405721841,0.2154577155,-4.7487699635
 H,0,-2.2797692829,1.3876143559,-3.7683938405
 H,0,-0.8654127167,0.723504278,-5.1338109173
 C,0,-1.6937485668,-0.5079329174,-3.252971587
 H,0,-2.5482104797,-1.1304223072,-2.9576284872
 C,0,-1.1896498894,0.2439739518,-2.0126762766
 C,0,-0.5988719619,-1.4304850193,-3.8366230881
 H,0,-0.9569836367,-1.8145705848,-4.7994459573
 H,0,-0.5003823699,-2.3058914539,-3.1844395602
 O,0,-1.020303818,1.462952117,-2.0313446585
 C,0,0.8040486773,-0.81740343,-3.9860918956
 H,0,1.1471605822,-0.4004813028,-3.0291423726
 H,0,1.5173151804,-1.6166871698,-4.2101760825
 C,0,1.0475340149,0.2375865907,-5.0539076037
 O,0,2.2134487811,0.4865931426,-5.3941797711
 O,0,0.0571339799,0.8901038834,-5.6052541378
 N,0,-0.9462454196,-0.5126139634,-0.9197964826
 H,0,-0.9678370001,-1.5204679244,-0.99626024
 C,0,-0.3080818418,0.0631071554,0.2556900099
 H,0,-0.9325169427,0.8927512419,0.599371931
 C,0,1.0872408475,0.583346831,-0.1216099023
 C,0,-0.1908166038,-1.0184978535,1.3426009875
 H,0,0.4353305946,-1.8253678672,0.938867837
 H,0,-1.1928379321,-1.4345113741,1.5144112698
 O,0,1.8266542773,-0.0496753134,-0.871892875
 C,0,0.3964917525,-0.5502509664,2.6856526197
 H,0,1.3869050946,-0.1149932333,2.5000307366
 C,0,-0.4735575555,0.5164353269,3.3627417197
 H,0,-1.4850128641,0.1349236922,3.549295279
 H,0,-0.043529133,0.807517539,4.3263035748
 H,0,-0.5704662946,1.4302803344,2.765219971
 C,0,0.5805281424,-1.7599410369,3.6107613461
 H,0,-0.3833577691,-2.2341213141,3.8334562418
 H,0,1.2306379828,-2.5154681431,3.1557688112
 H,0,1.0299629506,-1.4581185327,4.5624628206
 N,0,1.4494501359,1.7488947429,0.4686221784
 H,0,0.8110283622,2.192369877,1.1137140515
 C,0,2.8098496119,2.2526231419,0.3989334487
 H,0,3.4492027081,1.3868931006,0.1853239628
 C,0,3.2795985884,2.8225817885,1.7338412681
 C,0,3.0235699922,3.2932841178,-0.7153626944
 H,0,4.0539165006,3.6534436916,-0.6284251487
 H,0,2.364864182,4.1530231886,-0.5359232144
 O,0,4.3001936354,3.4531712919,1.8672567371
 C,0,2.7692985756,2.7115141926,-2.1064668166
 H,0,3.3535597652,1.7917664804,-2.2291687309
 H,0,1.7150038489,2.4342506636,-2.2160445604
 C,0,3.1492237144,3.6978579141,-3.2109189712
 H,0,4.1859589106,4.0363338377,-3.0757168855
 H,0,2.4960953311,4.5788108449,-3.175886001
 N,0,3.0009093597,3.0394428794,-4.5078461946
 H,0,2.8888313337,2.0238042611,-4.5301893911
 N,0,3.0349445411,4.9824590877,-5.7831597383
 H,0,2.9660605396,5.4392660735,-6.680278445
 H,0,3.5210248158,5.4857164106,-5.0563946446
 N,0,2.5475271121,2.9170420994,-6.7546832486
 H,0,2.5137246082,3.314386518,-7.680471934
 H,0,2.299565896,1.9314054261,-6.5978029082
 C,0,2.8698433267,3.6463586392,-5.6852296137
 O,0,2.4352815507,2.5447461064,2.7555169465
 H,0,2.8290299062,2.9398884349,3.5573688691
 Recover connectivity data from disk.
                           ----------------------------
                           !    Current Parameters    !
                           ! (Angstroms and Degrees)  !
 --------------------------                            --------------------------
 ! Name  Definition              Value                                          !
 --------------------------------------------------------------------------------
 ! R1    R(1,2)                  1.017                                          !
 ! R2    R(1,3)                  1.0217                                         !
 ! R3    R(1,4)                  1.5387                                         !
 ! R4    R(1,5)                  1.4757                                         !
 ! R5    R(5,6)                  1.0976                                         !
 ! R6    R(5,7)                  1.5355                                         !
 ! R7    R(5,8)                  1.5461                                         !
 ! R8    R(7,11)                 1.2308                                         !
 ! R9    R(7,18)                 1.3513                                         !
 ! R10   R(8,9)                  1.0967                                         !
 ! R11   R(8,10)                 1.0961                                         !
 ! R12   R(8,12)                 1.5383                                         !
 ! R13   R(12,13)                1.0988                                         !
 ! R14   R(12,14)                1.0944                                         !
 ! R15   R(12,15)                1.5207                                         !
 ! R16   R(15,16)                1.2398                                         !
 ! R17   R(15,17)                1.3079                                         !
 ! R18   R(18,19)                1.011                                          !
 ! R19   R(18,20)                1.4562                                         !
 ! R20   R(20,21)                1.0938                                         !
 ! R21   R(20,22)                1.5362                                         !
 ! R22   R(20,23)                1.5379                                         !
 ! R23   R(22,26)                1.229                                          !
 ! R24   R(22,37)                1.3558                                         !
 ! R25   R(23,24)                1.0982                                         !
 ! R26   R(23,25)                1.0985                                         !
 ! R27   R(23,27)                1.5388                                         !
 ! R28   R(27,28)                1.0976                                         !
 ! R29   R(27,29)                1.534                                          !
 ! R30   R(27,33)                1.534                                          !
 ! R31   R(29,30)                1.097                                          !
 ! R32   R(29,31)                1.0946                                         !
 ! R33   R(29,32)                1.0961                                         !
 ! R34   R(33,34)                1.097                                          !
 ! R35   R(33,35)                1.0957                                         !
 ! R36   R(33,36)                1.0949                                         !
 ! R37   R(37,38)                1.0101                                         !
 ! R38   R(37,39)                1.4523                                         !
 ! R39   R(39,40)                1.0972                                         !
 ! R40   R(39,41)                1.5256                                         !
 ! R41   R(39,42)                1.5396                                         !
 ! R42   R(41,45)                1.2071                                         !
 ! R43   R(41,61)                1.3542                                         !
 ! R44   R(42,43)                1.0949                                         !
 ! R45   R(42,44)                1.0978                                         !
 ! R46   R(42,46)                1.5291                                         !
 ! R47   R(46,47)                1.0965                                         !
 ! R48   R(46,48)                1.0956                                         !
 ! R49   R(46,49)                1.5287                                         !
 ! R50   R(49,50)                1.0989                                         !
 ! R51   R(49,51)                1.0972                                         !
 ! R52   R(49,52)                1.462                                          !
 ! R53   R(52,53)                1.022                                          !
 ! R54   R(52,60)                1.3311                                         !
 ! R55   R(54,55)                1.0091                                         !
 ! R56   R(54,56)                1.0088                                         !
 ! R57   R(54,60)                1.3498                                         !
 ! R58   R(57,58)                1.008                                          !
 ! R59   R(57,59)                1.0284                                         !
 ! R60   R(57,60)                1.334                                          !
 ! R61   R(61,62)                0.9768                                         !
 ! A1    A(2,1,3)              109.4905                                         !
 ! A2    A(2,1,4)              114.7577                                         !
 ! A3    A(2,1,5)              111.5614                                         !
 ! A4    A(3,1,4)              106.5245                                         !
 ! A5    A(3,1,5)              108.9739                                         !
 ! A6    A(4,1,5)              105.2539                                         !
 ! A7    A(1,5,6)              110.6981                                         !
 ! A8    A(1,5,7)              107.4685                                         !
 ! A9    A(1,5,8)              110.5375                                         !
 ! A10   A(6,5,7)              108.4166                                         !
 ! A11   A(6,5,8)              108.3268                                         !
 ! A12   A(7,5,8)              111.3843                                         !
 ! A13   A(5,7,11)             121.1902                                         !
 ! A14   A(5,7,18)             115.9909                                         !
 ! A15   A(11,7,18)            122.8188                                         !
 ! A16   A(5,8,9)              108.0076                                         !
 ! A17   A(5,8,10)             108.3955                                         !
 ! A18   A(5,8,12)             116.4036                                         !
 ! A19   A(9,8,10)             105.7838                                         !
 ! A20   A(9,8,12)             110.6136                                         !
 ! A21   A(10,8,12)            107.1079                                         !
 ! A22   A(8,12,13)            110.5721                                         !
 ! A23   A(8,12,14)            108.856                                          !
 ! A24   A(8,12,15)            119.3893                                         !
 ! A25   A(13,12,14)           104.5911                                         !
 ! A26   A(13,12,15)           107.3564                                         !
 ! A27   A(14,12,15)           104.9831                                         !
 ! A28   A(12,15,16)           118.8568                                         !
 ! A29   A(12,15,17)           121.3907                                         !
 ! A30   A(16,15,17)           119.7491                                         !
 ! A31   A(7,18,19)            119.5473                                         !
 ! A32   A(7,18,20)            120.6927                                         !
 ! A33   A(19,18,20)           117.6813                                         !
 ! A34   A(18,20,21)           107.6585                                         !
 ! A35   A(18,20,22)           109.4924                                         !
 ! A36   A(18,20,23)           109.019                                          !
 ! A37   A(21,20,22)           109.8064                                         !
 ! A38   A(21,20,23)           110.7893                                         !
 ! A39   A(22,20,23)           110.0298                                         !
 ! A40   A(20,22,26)           121.4653                                         !
 ! A41   A(20,22,37)           115.2696                                         !
 ! A42   A(26,22,37)           123.2203                                         !
 ! A43   A(20,23,24)           107.4805                                         !
 ! A44   A(20,23,25)           107.8996                                         !
 ! A45   A(20,23,27)           115.591                                          !
 ! A46   A(24,23,25)           107.4178                                         !
 ! A47   A(24,23,27)           109.0755                                         !
 ! A48   A(25,23,27)           109.0796                                         !
 ! A49   A(23,27,28)           108.5084                                         !
 ! A50   A(23,27,29)           112.3552                                         !
 ! A51   A(23,27,33)           109.4014                                         !
 ! A52   A(28,27,29)           108.0994                                         !
 ! A53   A(28,27,33)           107.8451                                         !
 ! A54   A(29,27,33)           110.5002                                         !
 ! A55   A(27,29,30)           110.8653                                         !
 ! A56   A(27,29,31)           110.5264                                         !
 ! A57   A(27,29,32)           112.9076                                         !
 ! A58   A(30,29,31)           107.7593                                         !
 ! A59   A(30,29,32)           107.5252                                         !
 ! A60   A(31,29,32)           107.0312                                         !
 ! A61   A(27,33,34)           110.9695                                         !
 ! A62   A(27,33,35)           111.379                                          !
 ! A63   A(27,33,36)           110.8587                                         !
 ! A64   A(34,33,35)           107.9129                                         !
 ! A65   A(34,33,36)           107.6594                                         !
 ! A66   A(35,33,36)           107.9075                                         !
 ! A67   A(22,37,38)           119.1173                                         !
 ! A68   A(22,37,39)           121.8395                                         !
 ! A69   A(38,37,39)           118.0586                                         !
 ! A70   A(37,39,40)           106.3494                                         !
 ! A71   A(37,39,41)           112.0866                                         !
 ! A72   A(37,39,42)           113.5282                                         !
 ! A73   A(40,39,41)           106.6007                                         !
 ! A74   A(40,39,42)           108.1518                                         !
 ! A75   A(41,39,42)           109.7566                                         !
 ! A76   A(39,41,45)           123.5191                                         !
 ! A77   A(39,41,61)           113.0488                                         !
 ! A78   A(45,41,61)           123.4318                                         !
 ! A79   A(39,42,43)           107.1875                                         !
 ! A80   A(39,42,44)           109.1324                                         !
 ! A81   A(39,42,46)           112.2212                                         !
 ! A82   A(43,42,44)           107.0999                                         !
 ! A83   A(43,42,46)           110.723                                          !
 ! A84   A(44,42,46)           110.2957                                         !
 ! A85   A(42,46,47)           109.4096                                         !
 ! A86   A(42,46,48)           110.3205                                         !
 ! A87   A(42,46,49)           111.7432                                         !
 ! A88   A(47,46,48)           106.8143                                         !
 ! A89   A(47,46,49)           109.1428                                         !
 ! A90   A(48,46,49)           109.2788                                         !
 ! A91   A(46,49,50)           110.1388                                         !
 ! A92   A(46,49,51)           110.3057                                         !
 ! A93   A(46,49,52)           108.9718                                         !
 ! A94   A(50,49,51)           108.0799                                         !
 ! A95   A(50,49,52)           110.093                                          !
 ! A96   A(51,49,52)           109.2395                                         !
 ! A97   A(49,52,53)           118.5572                                         !
 ! A98   A(49,52,60)           126.1073                                         !
 ! A99   A(53,52,60)           115.0219                                         !
 ! A100  A(55,54,56)           116.5858                                         !
 ! A101  A(55,54,60)           120.2814                                         !
 ! A102  A(56,54,60)           120.0299                                         !
 ! A103  A(58,57,59)           120.6516                                         !
 ! A104  A(58,57,60)           121.9305                                         !
 ! A105  A(59,57,60)           117.384                                          !
 ! A106  A(52,60,54)           120.2289                                         !
 ! A107  A(52,60,57)           118.9234                                         !
 ! A108  A(54,60,57)           120.834                                          !
 ! A109  A(41,61,62)           106.559                                          !
 ! D1    D(2,1,5,6)            -23.4801                                         !
 ! D2    D(2,1,5,7)           -141.7061                                         !
 ! D3    D(2,1,5,8)             96.5524                                         !
 ! D4    D(3,1,5,6)             97.5326                                         !
 ! D5    D(3,1,5,7)            -20.6935                                         !
 ! D6    D(3,1,5,8)           -142.4349                                         !
 ! D7    D(4,1,5,6)           -148.5443                                         !
 ! D8    D(4,1,5,7)             93.2297                                         !
 ! D9    D(4,1,5,8)            -28.5117                                         !
 ! D10   D(1,5,7,11)            -9.1683                                         !
 ! D11   D(1,5,7,18)           170.9791                                         !
 ! D12   D(6,5,7,11)          -128.8591                                         !
 ! D13   D(6,5,7,18)            51.2883                                         !
 ! D14   D(8,5,7,11)           112.0433                                         !
 ! D15   D(8,5,7,18)           -67.8093                                         !
 ! D16   D(1,5,8,9)            -51.7848                                         !
 ! D17   D(1,5,8,10)          -165.9599                                         !
 ! D18   D(1,5,8,12)            73.2941                                         !
 ! D19   D(6,5,8,9)             69.6609                                         !
 ! D20   D(6,5,8,10)           -44.5142                                         !
 ! D21   D(6,5,8,12)          -165.2602                                         !
 ! D22   D(7,5,8,9)           -171.188                                          !
 ! D23   D(7,5,8,10)            74.6369                                         !
 ! D24   D(7,5,8,12)           -46.1091                                         !
 ! D25   D(5,7,18,19)            8.9832                                         !
 ! D26   D(5,7,18,20)          172.2133                                         !
 ! D27   D(11,7,18,19)        -170.8668                                         !
 ! D28   D(11,7,18,20)          -7.6367                                         !
 ! D29   D(5,8,12,13)           54.2186                                         !
 ! D30   D(5,8,12,14)          168.5817                                         !
 ! D31   D(5,8,12,15)          -71.0273                                         !
 ! D32   D(9,8,12,13)          177.9643                                         !
 ! D33   D(9,8,12,14)          -67.6727                                         !
 ! D34   D(9,8,12,15)           52.7184                                         !
 ! D35   D(10,8,12,13)         -67.2111                                         !
 ! D36   D(10,8,12,14)          47.152                                          !
 ! D37   D(10,8,12,15)         167.5431                                         !
 ! D38   D(8,12,15,16)        -162.4254                                         !
 ! D39   D(8,12,15,17)          18.2388                                         !
 ! D40   D(13,12,15,16)         70.8079                                         !
 ! D41   D(13,12,15,17)       -108.528                                          !
 ! D42   D(14,12,15,16)        -40.1005                                         !
 ! D43   D(14,12,15,17)        140.5636                                         !
 ! D44   D(7,18,20,21)          58.4923                                         !
 ! D45   D(7,18,20,22)         -60.8418                                         !
 ! D46   D(7,18,20,23)         178.7389                                         !
 ! D47   D(19,18,20,21)       -137.9737                                         !
 ! D48   D(19,18,20,22)        102.6922                                         !
 ! D49   D(19,18,20,23)        -17.7271                                         !
 ! D50   D(18,20,22,26)        -40.9863                                         !
 ! D51   D(18,20,22,37)        141.3719                                         !
 ! D52   D(21,20,22,26)       -158.9881                                         !
 ! D53   D(21,20,22,37)         23.3701                                         !
 ! D54   D(23,20,22,26)         78.8149                                         !
 ! D55   D(23,20,22,37)        -98.8268                                         !
 ! D56   D(18,20,23,24)         61.1392                                         !
 ! D57   D(18,20,23,25)        -54.4241                                         !
 ! D58   D(18,20,23,27)       -176.8059                                         !
 ! D59   D(21,20,23,24)        179.4379                                         !
 ! D60   D(21,20,23,25)         63.8745                                         !
 ! D61   D(21,20,23,27)        -58.5072                                         !
 ! D62   D(22,20,23,24)        -58.9491                                         !
 ! D63   D(22,20,23,25)       -174.5125                                         !
 ! D64   D(22,20,23,27)         63.1058                                         !
 ! D65   D(20,22,37,38)          0.8598                                         !
 ! D66   D(20,22,37,39)        169.2841                                         !
 ! D67   D(26,22,37,38)       -176.7358                                         !
 ! D68   D(26,22,37,39)         -8.3114                                         !
 ! D69   D(20,23,27,28)        -56.926                                          !
 ! D70   D(20,23,27,29)         62.5399                                         !
 ! D71   D(20,23,27,33)       -174.3461                                         !
 ! D72   D(24,23,27,28)         64.2735                                         !
 ! D73   D(24,23,27,29)       -176.2606                                         !
 ! D74   D(24,23,27,33)        -53.1466                                         !
 ! D75   D(25,23,27,28)       -178.6779                                         !
 ! D76   D(25,23,27,29)        -59.212                                          !
 ! D77   D(25,23,27,33)         63.902                                          !
 ! D78   D(23,27,29,30)         59.0247                                         !
 ! D79   D(23,27,29,31)        178.4487                                         !
 ! D80   D(23,27,29,32)        -61.7006                                         !
 ! D81   D(28,27,29,30)        178.7289                                         !
 ! D82   D(28,27,29,31)        -61.8471                                         !
 ! D83   D(28,27,29,32)         58.0036                                         !
 ! D84   D(33,27,29,30)        -63.4704                                         !
 ! D85   D(33,27,29,31)         55.9536                                         !
 ! D86   D(33,27,29,32)        175.8043                                         !
 ! D87   D(23,27,33,34)        -62.3617                                         !
 ! D88   D(23,27,33,35)         57.8874                                         !
 ! D89   D(23,27,33,36)        178.0547                                         !
 ! D90   D(28,27,33,34)        179.8021                                         !
 ! D91   D(28,27,33,35)        -59.9488                                         !
 ! D92   D(28,27,33,36)         60.2186                                         !
 ! D93   D(29,27,33,34)         61.8456                                         !
 ! D94   D(29,27,33,35)       -177.9053                                         !
 ! D95   D(29,27,33,36)        -57.738                                          !
 ! D96   D(22,37,39,40)        -21.9843                                         !
 ! D97   D(22,37,39,41)       -138.1111                                         !
 ! D98   D(22,37,39,42)         96.8207                                         !
 ! D99   D(38,37,39,40)        146.5576                                         !
 ! D100  D(38,37,39,41)         30.4308                                         !
 ! D101  D(38,37,39,42)        -94.6374                                         !
 ! D102  D(37,39,41,45)       -169.7656                                         !
 ! D103  D(37,39,41,61)         10.4216                                         !
 ! D104  D(40,39,41,45)         74.2597                                         !
 ! D105  D(40,39,41,61)       -105.5531                                         !
 ! D106  D(42,39,41,45)        -42.6442                                         !
 ! D107  D(42,39,41,61)        137.543                                          !
 ! D108  D(37,39,42,43)        175.9702                                         !
 ! D109  D(37,39,42,44)         60.3069                                         !
 ! D110  D(37,39,42,46)        -62.2627                                         !
 ! D111  D(40,39,42,43)        -66.265                                          !
 ! D112  D(40,39,42,44)        178.0717                                         !
 ! D113  D(40,39,42,46)         55.5021                                         !
 ! D114  D(41,39,42,43)         49.6618                                         !
 ! D115  D(41,39,42,44)        -66.0016                                         !
 ! D116  D(41,39,42,46)        171.4289                                         !
 ! D117  D(39,41,61,62)        179.3066                                         !
 ! D118  D(45,41,61,62)         -0.5063                                         !
 ! D119  D(39,42,46,47)        -51.9879                                         !
 ! D120  D(39,42,46,48)         65.2403                                         !
 ! D121  D(39,42,46,49)       -172.9745                                         !
 ! D122  D(43,42,46,47)         67.7374                                         !
 ! D123  D(43,42,46,48)       -175.0344                                         !
 ! D124  D(43,42,46,49)        -53.2492                                         !
 ! D125  D(44,42,46,47)       -173.8966                                         !
 ! D126  D(44,42,46,48)        -56.6683                                         !
 ! D127  D(44,42,46,49)         65.1169                                         !
 ! D128  D(42,46,49,50)         53.9242                                         !
 ! D129  D(42,46,49,51)        -65.2948                                         !
 ! D130  D(42,46,49,52)        174.7884                                         !
 ! D131  D(47,46,49,50)        -67.2173                                         !
 ! D132  D(47,46,49,51)        173.5636                                         !
 ! D133  D(47,46,49,52)         53.6469                                         !
 ! D134  D(48,46,49,50)        176.3077                                         !
 ! D135  D(48,46,49,51)         57.0886                                         !
 ! D136  D(48,46,49,52)        -62.8281                                         !
 ! D137  D(46,49,52,53)        -13.3965                                         !
 ! D138  D(46,49,52,60)        159.8307                                         !
 ! D139  D(50,49,52,53)        107.4956                                         !
 ! D140  D(50,49,52,60)        -79.2771                                         !
 ! D141  D(51,49,52,53)       -133.9707                                         !
 ! D142  D(51,49,52,60)         39.2566                                         !
 ! D143  D(49,52,60,54)          8.436                                          !
 ! D144  D(49,52,60,57)       -170.2265                                         !
 ! D145  D(53,52,60,54)       -178.128                                          !
 ! D146  D(53,52,60,57)          3.2095                                         !
 ! D147  D(55,54,60,52)        177.9637                                         !
 ! D148  D(55,54,60,57)         -3.3996                                         !
 ! D149  D(56,54,60,52)         18.5517                                         !
 ! D150  D(56,54,60,57)       -162.8116                                         !
 ! D151  D(58,57,60,52)       -174.6687                                         !
 ! D152  D(58,57,60,54)          6.6771                                         !
 ! D153  D(59,57,60,52)          7.4359                                         !
 ! D154  D(59,57,60,54)       -171.2183                                         !
 --------------------------------------------------------------------------------
 Symmetry turned off by external request.
 Stoichiometry    C17H33N6O6(1+)
 Framework group  C1[X(C17H33N6O6)]
 Deg. of freedom   180
 Full point group                 C1      NOp   1
                          Input orientation:                          
 ---------------------------------------------------------------------
 Center     Atomic      Atomic             Coordinates (Angstroms)
 Number     Number       Type             X           Y           Z
 ---------------------------------------------------------------------
      1          7           0       -2.103546    0.502488   -4.247391
      2          1           0       -2.940572    0.215458   -4.748770
      3          1           0       -2.279769    1.387614   -3.768394
      4          1           0       -0.865413    0.723504   -5.133811
      5          6           0       -1.693749   -0.507933   -3.252972
      6          1           0       -2.548210   -1.130422   -2.957628
      7          6           0       -1.189650    0.243974   -2.012676
      8          6           0       -0.598872   -1.430485   -3.836623
      9          1           0       -0.956984   -1.814571   -4.799446
     10          1           0       -0.500382   -2.305891   -3.184440
     11          8           0       -1.020304    1.462952   -2.031345
     12          6           0        0.804049   -0.817403   -3.986092
     13          1           0        1.147161   -0.400481   -3.029142
     14          1           0        1.517315   -1.616687   -4.210176
     15          6           0        1.047534    0.237587   -5.053908
     16          8           0        2.213449    0.486593   -5.394180
     17          8           0        0.057134    0.890104   -5.605254
     18          7           0       -0.946245   -0.512614   -0.919796
     19          1           0       -0.967837   -1.520468   -0.996260
     20          6           0       -0.308082    0.063107    0.255690
     21          1           0       -0.932517    0.892751    0.599372
     22          6           0        1.087241    0.583347   -0.121610
     23          6           0       -0.190817   -1.018498    1.342601
     24          1           0        0.435331   -1.825368    0.938868
     25          1           0       -1.192838   -1.434511    1.514411
     26          8           0        1.826654   -0.049675   -0.871893
     27          6           0        0.396492   -0.550251    2.685653
     28          1           0        1.386905   -0.114993    2.500031
     29          6           0       -0.473558    0.516435    3.362742
     30          1           0       -1.485013    0.134924    3.549295
     31          1           0       -0.043529    0.807518    4.326304
     32          1           0       -0.570466    1.430280    2.765220
     33          6           0        0.580528   -1.759941    3.610761
     34          1           0       -0.383358   -2.234121    3.833456
     35          1           0        1.230638   -2.515468    3.155769
     36          1           0        1.029963   -1.458119    4.562463
     37          7           0        1.449450    1.748895    0.468622
     38          1           0        0.811028    2.192370    1.113714
     39          6           0        2.809850    2.252623    0.398933
     40          1           0        3.449203    1.386893    0.185324
     41          6           0        3.279599    2.822582    1.733841
     42          6           0        3.023570    3.293284   -0.715363
     43          1           0        4.053917    3.653444   -0.628425
     44          1           0        2.364864    4.153023   -0.535923
     45          8           0        4.300194    3.453171    1.867257
     46          6           0        2.769299    2.711514   -2.106467
     47          1           0        3.353560    1.791766   -2.229169
     48          1           0        1.715004    2.434251   -2.216045
     49          6           0        3.149224    3.697858   -3.210919
     50          1           0        4.185959    4.036334   -3.075717
     51          1           0        2.496095    4.578811   -3.175886
     52          7           0        3.000909    3.039443   -4.507846
     53          1           0        2.888831    2.023804   -4.530189
     54          7           0        3.034945    4.982459   -5.783160
     55          1           0        2.966061    5.439266   -6.680278
     56          1           0        3.521025    5.485716   -5.056395
     57          7           0        2.547527    2.917042   -6.754683
     58          1           0        2.513725    3.314387   -7.680472
     59          1           0        2.299566    1.931405   -6.597803
     60          6           0        2.869843    3.646359   -5.685230
     61          8           0        2.435282    2.544746    2.755517
     62          1           0        2.829030    2.939888    3.557369
 ---------------------------------------------------------------------
 Rotational constants (GHZ):           0.1982038           0.1126674           0.0790127
 Standard basis: 6-31G(d) (6D, 7F)
   501 basis functions,   944 primitive gaussians,   501 cartesian basis functions
   112 alpha electrons      112 beta electrons
       nuclear repulsion energy      3153.6384890150 Hartrees.
 NAtoms=   62 NActive=   62 NUniq=   62 SFac= 1.00D+00 NAtFMM=   60 NAOKFM=T Big=T
 Integral buffers will be    131072 words long.
 Raffenetti 2 integral format.
 Two-electron integral symmetry is turned off.
 Nuclear repulsion after empirical dispersion term =     3153.5117484742 Hartrees.
 One-electron integrals computed using PRISM.
 NBasis=   501 RedAO= T EigKep=  1.78D-03  NBF=   501
 NBsUse=   501 1.00D-06 EigRej= -1.00D+00 NBFU=   501
 Initial guess from the checkpoint file:  "conf-746.chk"
 B after Tr=     0.000000    0.000000    0.000000
         Rot=    1.000000    0.000000    0.000000    0.000000 Ang=   0.00 deg.
 Requested convergence on RMS density matrix=1.00D-08 within 128 cycles.
 Requested convergence on MAX density matrix=1.00D-06.
 Requested convergence on             energy=1.00D-06.
 No special actions if energy rises.
 SCF Done:  E(RB3LYP) =  -1447.57726710     A.U. after    3 cycles
            NFock=  3  Conv=0.70D-09     -V/T= 2.0093

 **********************************************************************

            Population analysis using the SCF Density.

 **********************************************************************

 Alpha  occ. eigenvalues --  -19.29650 -19.26552 -19.23397 -19.23025 -19.22926
 Alpha  occ. eigenvalues --  -19.21417 -14.50449 -14.48781 -14.48305 -14.46958
 Alpha  occ. eigenvalues --  -14.46199 -14.45706 -10.45741 -10.41778 -10.41721
 Alpha  occ. eigenvalues --  -10.39699 -10.38472 -10.34525 -10.34425 -10.33879
 Alpha  occ. eigenvalues --  -10.33299 -10.30494 -10.29286 -10.29151 -10.29045
 Alpha  occ. eigenvalues --  -10.28275 -10.27490 -10.25643 -10.24842  -1.20330
 Alpha  occ. eigenvalues --   -1.18687  -1.15045  -1.14471  -1.13278  -1.11293
 Alpha  occ. eigenvalues --   -1.09838  -1.03783  -1.03496  -1.02895  -1.02486
 Alpha  occ. eigenvalues --   -1.01962  -0.91353  -0.90333  -0.89412  -0.86447
 Alpha  occ. eigenvalues --   -0.84323  -0.80940  -0.79688  -0.76461  -0.76272
 Alpha  occ. eigenvalues --   -0.74943  -0.73787  -0.72941  -0.71003  -0.70236
 Alpha  occ. eigenvalues --   -0.69228  -0.68911  -0.68523  -0.68237  -0.64790
 Alpha  occ. eigenvalues --   -0.64500  -0.63164  -0.62643  -0.62368  -0.61461
 Alpha  occ. eigenvalues --   -0.60611  -0.59967  -0.59023  -0.58652  -0.58285
 Alpha  occ. eigenvalues --   -0.57636  -0.57028  -0.56652  -0.55778  -0.54886
 Alpha  occ. eigenvalues --   -0.54775  -0.54514  -0.53644  -0.53026  -0.52126
 Alpha  occ. eigenvalues --   -0.51470  -0.51358  -0.50554  -0.50038  -0.49524
 Alpha  occ. eigenvalues --   -0.49279  -0.48862  -0.48532  -0.47895  -0.46762
 Alpha  occ. eigenvalues --   -0.46594  -0.46368  -0.46122  -0.45881  -0.45476
 Alpha  occ. eigenvalues --   -0.44984  -0.44412  -0.44041  -0.41590  -0.41464
 Alpha  occ. eigenvalues --   -0.41094  -0.40991  -0.40799  -0.40189  -0.38740
 Alpha  occ. eigenvalues --   -0.38048  -0.37850  -0.37379  -0.36649  -0.36476
 Alpha  occ. eigenvalues --   -0.35111  -0.34698
 Alpha virt. eigenvalues --   -0.09501  -0.09318  -0.08695  -0.08642  -0.07521
 Alpha virt. eigenvalues --   -0.06022  -0.04146  -0.03130  -0.02587  -0.01574
 Alpha virt. eigenvalues --   -0.00428  -0.00171   0.00109   0.01509   0.02009
 Alpha virt. eigenvalues --    0.02503   0.03130   0.03511   0.03820   0.04208
 Alpha virt. eigenvalues --    0.04548   0.04575   0.05356   0.06027   0.06838
 Alpha virt. eigenvalues --    0.07153   0.07299   0.07807   0.07872   0.09109
 Alpha virt. eigenvalues --    0.09266   0.09381   0.09738   0.10101   0.10132
 Alpha virt. eigenvalues --    0.10624   0.11077   0.11152   0.11603   0.11748
 Alpha virt. eigenvalues --    0.12428   0.13316   0.13433   0.14181   0.14277
 Alpha virt. eigenvalues --    0.14890   0.15439   0.15839   0.15914   0.17140
 Alpha virt. eigenvalues --    0.17815   0.18024   0.18150   0.19549   0.20225
 Alpha virt. eigenvalues --    0.21307   0.23273   0.25497   0.26498   0.27228
 Alpha virt. eigenvalues --    0.28065   0.28971   0.29960   0.30844   0.31701
 Alpha virt. eigenvalues --    0.33215   0.39417   0.39531   0.40112   0.41145
 Alpha virt. eigenvalues --    0.41366   0.41568   0.42758   0.43276   0.43846
 Alpha virt. eigenvalues --    0.44129   0.44497   0.44642   0.45693   0.45784
 Alpha virt. eigenvalues --    0.46474   0.46649   0.47404   0.48078   0.48476
 Alpha virt. eigenvalues --    0.49252   0.49427   0.50472   0.51484   0.51883
 Alpha virt. eigenvalues --    0.52444   0.52822   0.53060   0.53986   0.54508
 Alpha virt. eigenvalues --    0.55178   0.56342   0.56404   0.57181   0.57587
 Alpha virt. eigenvalues --    0.57768   0.58149   0.59056   0.59554   0.59813
 Alpha virt. eigenvalues --    0.60885   0.61340   0.62539   0.63009   0.63244
 Alpha virt. eigenvalues --    0.63862   0.64306   0.65075   0.66108   0.66284
 Alpha virt. eigenvalues --    0.67842   0.68584   0.69762   0.69955   0.70944
 Alpha virt. eigenvalues --    0.71334   0.71456   0.72030   0.72640   0.73131
 Alpha virt. eigenvalues --    0.73914   0.74744   0.74921   0.75115   0.75697
 Alpha virt. eigenvalues --    0.75965   0.76707   0.77297   0.77880   0.78153
 Alpha virt. eigenvalues --    0.78580   0.79116   0.79660   0.79923   0.80533
 Alpha virt. eigenvalues --    0.81114   0.81532   0.81783   0.82273   0.82742
 Alpha virt. eigenvalues --    0.82925   0.82963   0.83249   0.83895   0.84488
 Alpha virt. eigenvalues --    0.85076   0.85596   0.85807   0.86139   0.86400
 Alpha virt. eigenvalues --    0.87541   0.88137   0.88481   0.88860   0.89541
 Alpha virt. eigenvalues --    0.90300   0.91190   0.91508   0.91793   0.93249
 Alpha virt. eigenvalues --    0.94129   0.94974   0.95394   0.96983   0.98019
 Alpha virt. eigenvalues --    0.98752   0.99411   1.00163   1.00519   1.02477
 Alpha virt. eigenvalues --    1.03072   1.03350   1.03876   1.05174   1.06268
 Alpha virt. eigenvalues --    1.08417   1.09125   1.10482   1.10922   1.11561
 Alpha virt. eigenvalues --    1.12502   1.14761   1.16244   1.17003   1.18831
 Alpha virt. eigenvalues --    1.19487   1.19963   1.20743   1.22994   1.23804
 Alpha virt. eigenvalues --    1.24839   1.26340   1.27986   1.28467   1.29276
 Alpha virt. eigenvalues --    1.29850   1.31217   1.32316   1.34170   1.35717
 Alpha virt. eigenvalues --    1.36606   1.37572   1.38404   1.39189   1.40064
 Alpha virt. eigenvalues --    1.40823   1.43306   1.44376   1.46567   1.47922
 Alpha virt. eigenvalues --    1.48141   1.49402   1.50954   1.51791   1.52571
 Alpha virt. eigenvalues --    1.52920   1.54490   1.54820   1.57578   1.57979
 Alpha virt. eigenvalues --    1.58416   1.59014   1.59718   1.60434   1.62041
 Alpha virt. eigenvalues --    1.62421   1.63116   1.64662   1.66065   1.67317
 Alpha virt. eigenvalues --    1.68362   1.68556   1.68901   1.69650   1.69828
 Alpha virt. eigenvalues --    1.70665   1.70950   1.71413   1.71980   1.72502
 Alpha virt. eigenvalues --    1.74263   1.74283   1.74896   1.75485   1.76168
 Alpha virt. eigenvalues --    1.76580   1.77482   1.79036   1.80034   1.80225
 Alpha virt. eigenvalues --    1.81766   1.82047   1.83111   1.83947   1.84643
 Alpha virt. eigenvalues --    1.85060   1.85352   1.86332   1.87195   1.87838
 Alpha virt. eigenvalues --    1.88380   1.88836   1.89501   1.90836   1.91830
 Alpha virt. eigenvalues --    1.92159   1.92705   1.93282   1.94254   1.94788
 Alpha virt. eigenvalues --    1.96225   1.96373   1.97736   1.98011   1.99529
 Alpha virt. eigenvalues --    1.99902   2.01050   2.02891   2.03004   2.03718
 Alpha virt. eigenvalues --    2.04348   2.05918   2.07555   2.08754   2.09025
 Alpha virt. eigenvalues --    2.10286   2.11717   2.13128   2.13581   2.14997
 Alpha virt. eigenvalues --    2.15793   2.16602   2.17763   2.20409   2.20702
 Alpha virt. eigenvalues --    2.21591   2.22170   2.23173   2.25468   2.26714
 Alpha virt. eigenvalues --    2.27071   2.28455   2.29782   2.31321   2.32642
 Alpha virt. eigenvalues --    2.33499   2.34664   2.34937   2.36859   2.37408
 Alpha virt. eigenvalues --    2.37561   2.37888   2.39478   2.39730   2.42453
 Alpha virt. eigenvalues --    2.43510   2.44050   2.44766   2.46104   2.46348
 Alpha virt. eigenvalues --    2.47802   2.49624   2.51108   2.53366   2.54092
 Alpha virt. eigenvalues --    2.54533   2.55002   2.55343   2.56697   2.59612
 Alpha virt. eigenvalues --    2.60107   2.60743   2.63192   2.64159   2.65251
 Alpha virt. eigenvalues --    2.67786   2.68484   2.69333   2.70547   2.73015
 Alpha virt. eigenvalues --    2.74493   2.79123   2.79744   2.84301   2.85509
 Alpha virt. eigenvalues --    2.90876   2.91953   2.93219   2.93279   2.97940
 Alpha virt. eigenvalues --    3.01567   3.02341   3.02862   3.06861   3.09921
 Alpha virt. eigenvalues --    3.67771   3.75638   3.78776   3.79603   3.90545
 Alpha virt. eigenvalues --    3.92611   3.95755   3.98565   4.01826   4.06623
 Alpha virt. eigenvalues --    4.07951   4.11155   4.11395   4.14940   4.15582
 Alpha virt. eigenvalues --    4.19264   4.20751   4.20929   4.25435   4.29180
 Alpha virt. eigenvalues --    4.31898   4.38956   4.39640   4.45256   4.46896
 Alpha virt. eigenvalues --    4.52897   4.54263   4.59125   4.64279
          Condensed to atoms (all electrons):
 Mulliken charges:
               1
     1  N   -0.805011
     2  H    0.348702
     3  H    0.365986
     4  H    0.482416
     5  C   -0.066982
     6  H    0.175897
     7  C    0.629600
     8  C   -0.299329
     9  H    0.174289
    10  H    0.162261
    11  O   -0.539237
    12  C   -0.408482
    13  H    0.241166
    14  H    0.202662
    15  C    0.606430
    16  O   -0.545121
    17  O   -0.589325
    18  N   -0.603883
    19  H    0.344078
    20  C   -0.031246
    21  H    0.171391
    22  C    0.646483
    23  C   -0.302406
    24  H    0.158558
    25  H    0.155610
    26  O   -0.544715
    27  C   -0.093027
    28  H    0.144694
    29  C   -0.445508
    30  H    0.154012
    31  H    0.160117
    32  H    0.125015
    33  C   -0.446204
    34  H    0.150097
    35  H    0.152117
    36  H    0.157312
    37  N   -0.598335
    38  H    0.355532
    39  C   -0.065405
    40  H    0.217736
    41  C    0.594461
    42  C   -0.266180
    43  H    0.182308
    44  H    0.151543
    45  O   -0.442409
    46  C   -0.324775
    47  H    0.178283
    48  H    0.189111
    49  C   -0.134356
    50  H    0.172881
    51  H    0.172418
    52  N   -0.639700
    53  H    0.410660
    54  N   -0.763647
    55  H    0.372901
    56  H    0.380763
    57  N   -0.781390
    58  H    0.361563
    59  H    0.418873
    60  C    0.813823
    61  O   -0.574670
    62  H    0.429598
 Sum of Mulliken charges =   1.00000
 Mulliken charges with hydrogens summed into heavy atoms:
               1
     1  N   -0.090322
     5  C    0.108915
     7  C    0.629600
     8  C    0.037221
    11  O   -0.539237
    12  C    0.035346
    15  C    0.606430
    16  O   -0.545121
    17  O   -0.106909
    18  N   -0.259805
    20  C    0.140144
    22  C    0.646483
    23  C    0.011762
    26  O   -0.544715
    27  C    0.051667
    29  C   -0.006364
    33  C    0.013322
    37  N   -0.242803
    39  C    0.152331
    41  C    0.594461
    42  C    0.067671
    45  O   -0.442409
    46  C    0.042618
    49  C    0.210942
    52  N   -0.229039
    54  N   -0.009984
    57  N   -0.000954
    60  C    0.813823
    61  O   -0.145072
 Electronic spatial extent (au):  <R**2>=          17950.4331
 Charge=              1.0000 electrons
 Dipole moment (field-independent basis, Debye):
    X=              3.3777    Y=             10.1716    Z=            -15.1536  Tot=             18.5608
 Quadrupole moment (field-independent basis, Debye-Ang):
   XX=           -143.6030   YY=           -105.5587   ZZ=            -47.8812
   XY=             41.7131   XZ=            -24.7631   YZ=            -58.5717
 Traceless Quadrupole moment (field-independent basis, Debye-Ang):
   XX=            -44.5887   YY=             -6.5444   ZZ=             51.1331
   XY=             41.7131   XZ=            -24.7631   YZ=            -58.5717
 Octapole moment (field-independent basis, Debye-Ang**2):
  XXX=           -595.2149  YYY=           -317.0379  ZZZ=            150.7269  XYY=            -14.0796
  XXY=           -103.5035  XXZ=             94.7818  XZZ=             29.9591  YZZ=            245.0201
  YYZ=            -72.9907  XYZ=           -230.5931
 Hexadecapole moment (field-independent basis, Debye-Ang**3):
 XXXX=          -4691.4599 YYYY=          -3522.5822 ZZZZ=          -7445.5747 XXXY=          -1748.2383
 XXXZ=            769.7725 YYYX=           -992.2440 YYYZ=            -15.7000 ZZZX=           -357.5584
 ZZZY=          -1149.2379 XXYY=          -1127.9638 XXZZ=          -1923.8679 YYZZ=           -671.7600
 XXYZ=           -203.9631 YYXZ=           -795.0548 ZZXY=            811.9235
 N-N= 3.153511748474D+03 E-N=-9.658841233462D+03  KE= 1.434205221158D+03
 Unable to Open any file for archive entry.
 1\1\GINC-SKL-148\SP\RB3LYP\6-31G(d)\C17H33N6O6(1+)\KENGMITH\23-Jun-202
 2\0\\# B3LYP/6-31G* empiricaldispersion=gd3bj guess=read geom=check no
 symm integral(ultrafinegrid)\\Candidate Structure: Conf:746 Charge cal
 c in gas phase\\1,1\N,0,-2.1035457278,0.5024884616,-4.2473914472\H,0,-
 2.9405721841,0.2154577155,-4.7487699635\H,0,-2.2797692829,1.3876143559
 ,-3.7683938405\H,0,-0.8654127167,0.723504278,-5.1338109173\C,0,-1.6937
 485668,-0.5079329174,-3.252971587\H,0,-2.5482104797,-1.1304223072,-2.9
 576284872\C,0,-1.1896498894,0.2439739518,-2.0126762766\C,0,-0.59887196
 19,-1.4304850193,-3.8366230881\H,0,-0.9569836367,-1.8145705848,-4.7994
 459573\H,0,-0.5003823699,-2.3058914539,-3.1844395602\O,0,-1.020303818,
 1.462952117,-2.0313446585\C,0,0.8040486773,-0.81740343,-3.9860918956\H
 ,0,1.1471605822,-0.4004813028,-3.0291423726\H,0,1.5173151804,-1.616687
 1698,-4.2101760825\C,0,1.0475340149,0.2375865907,-5.0539076037\O,0,2.2
 134487811,0.4865931426,-5.3941797711\O,0,0.0571339799,0.8901038834,-5.
 6052541378\N,0,-0.9462454196,-0.5126139634,-0.9197964826\H,0,-0.967837
 0001,-1.5204679244,-0.99626024\C,0,-0.3080818418,0.0631071554,0.255690
 0099\H,0,-0.9325169427,0.8927512419,0.599371931\C,0,1.0872408475,0.583
 346831,-0.1216099023\C,0,-0.1908166038,-1.0184978535,1.3426009875\H,0,
 0.4353305946,-1.8253678672,0.938867837\H,0,-1.1928379321,-1.4345113741
 ,1.5144112698\O,0,1.8266542773,-0.0496753134,-0.871892875\C,0,0.396491
 7525,-0.5502509664,2.6856526197\H,0,1.3869050946,-0.1149932333,2.50003
 07366\C,0,-0.4735575555,0.5164353269,3.3627417197\H,0,-1.4850128641,0.
 1349236922,3.549295279\H,0,-0.043529133,0.807517539,4.3263035748\H,0,-
 0.5704662946,1.4302803344,2.765219971\C,0,0.5805281424,-1.7599410369,3
 .6107613461\H,0,-0.3833577691,-2.2341213141,3.8334562418\H,0,1.2306379
 828,-2.5154681431,3.1557688112\H,0,1.0299629506,-1.4581185327,4.562462
 8206\N,0,1.4494501359,1.7488947429,0.4686221784\H,0,0.8110283622,2.192
 369877,1.1137140515\C,0,2.8098496119,2.2526231419,0.3989334487\H,0,3.4
 492027081,1.3868931006,0.1853239628\C,0,3.2795985884,2.8225817885,1.73
 38412681\C,0,3.0235699922,3.2932841178,-0.7153626944\H,0,4.0539165006,
 3.6534436916,-0.6284251487\H,0,2.364864182,4.1530231886,-0.5359232144\
 O,0,4.3001936354,3.4531712919,1.8672567371\C,0,2.7692985756,2.71151419
 26,-2.1064668166\H,0,3.3535597652,1.7917664804,-2.2291687309\H,0,1.715
 0038489,2.4342506636,-2.2160445604\C,0,3.1492237144,3.6978579141,-3.21
 09189712\H,0,4.1859589106,4.0363338377,-3.0757168855\H,0,2.4960953311,
 4.5788108449,-3.175886001\N,0,3.0009093597,3.0394428794,-4.5078461946\
 H,0,2.8888313337,2.0238042611,-4.5301893911\N,0,3.0349445411,4.9824590
 877,-5.7831597383\H,0,2.9660605396,5.4392660735,-6.680278445\H,0,3.521
 0248158,5.4857164106,-5.0563946446\N,0,2.5475271121,2.9170420994,-6.75
 46832486\H,0,2.5137246082,3.314386518,-7.680471934\H,0,2.299565896,1.9
 314054261,-6.5978029082\C,0,2.8698433267,3.6463586392,-5.6852296137\O,
 0,2.4352815507,2.5447461064,2.7555169465\H,0,2.8290299062,2.9398884349
 ,3.5573688691\\Version=ES64L-G16RevC.01\HF=-1447.5772671\RMSD=6.992e-1
 0\Dipole=-0.8722831,1.6876649,-2.8658195\Quadrupole=-33.1505962,-4.865
 623,38.0162192,31.012651,-18.4107235,-43.5466345\PG=C01 [X(C17H33N6O6)
 ]\\@
 The archive entry for this job was punched.


 IT IS THE BEHAVIOR AND DISTRIBUTION OF THE ELECTRONS 
 AROUND THE NUCLEUS THAT GIVES THE FUNDAMENTAL 
 CHARACTER OF AN ATOM:  IT MUST BE THE SAME FOR MOLECULES.

                               -- C. A. COULSON, 1951
 Job cpu time:       0 days  0 hours  2 minutes 24.3 seconds.
 Elapsed time:       0 days  0 hours  0 minutes 36.9 seconds.
 File lengths (MBytes):  RWF=    248 Int=      0 D2E=      0 Chk=     32 Scr=     16
 Normal termination of Gaussian 16 at Thu Jun 23 05:40:45 2022.
