 Entering Gaussian System, Link 0=/opt/software/Gaussian/g16-AVX2-C.01/g16/g16
 Input=charge-conf-961.com
 Output=charge-conf-961.log
 Initial command:
 /opt/software/Gaussian/g16-AVX2-C.01/g16/l1.exe "/mnt/gs18/scratch/users/kengmith/Gau-37338.inp" -scrdir="/mnt/gs18/scratch/users/kengmith/"
 Entering Link 1 = /opt/software/Gaussian/g16-AVX2-C.01/g16/l1.exe PID=     37348.
  
 Copyright (c) 1988-2019, Gaussian, Inc.  All Rights Reserved.
  
 This is part of the Gaussian(R) 16 program.  It is based on
 the Gaussian(R) 09 system (copyright 2009, Gaussian, Inc.),
 the Gaussian(R) 03 system (copyright 2003, Gaussian, Inc.),
 the Gaussian(R) 98 system (copyright 1998, Gaussian, Inc.),
 the Gaussian(R) 94 system (copyright 1995, Gaussian, Inc.),
 the Gaussian 92(TM) system (copyright 1992, Gaussian, Inc.),
 the Gaussian 90(TM) system (copyright 1990, Gaussian, Inc.),
 the Gaussian 88(TM) system (copyright 1988, Gaussian, Inc.),
 the Gaussian 86(TM) system (copyright 1986, Carnegie Mellon
 University), and the Gaussian 82(TM) system (copyright 1983,
 Carnegie Mellon University). Gaussian is a federally registered
 trademark of Gaussian, Inc.
  
 This software contains proprietary and confidential information,
 including trade secrets, belonging to Gaussian, Inc.
  
 This software is provided under written license and may be
 used, copied, transmitted, or stored only in accord with that
 written license.
  
 The following legend is applicable only to US Government
 contracts under FAR:
  
                    RESTRICTED RIGHTS LEGEND
  
 Use, reproduction and disclosure by the US Government is
 subject to restrictions as set forth in subparagraphs (a)
 and (c) of the Commercial Computer Software - Restricted
 Rights clause in FAR 52.227-19.
  
 Gaussian, Inc.
 340 Quinnipiac St., Bldg. 40, Wallingford CT 06492
  
  
 ---------------------------------------------------------------
 Warning -- This program may not be used in any manner that
 competes with the business of Gaussian, Inc. or will provide
 assistance to any competitor of Gaussian, Inc.  The licensee
 of this program is prohibited from giving any competitor of
 Gaussian, Inc. access to this program.  By using this program,
 the user acknowledges that Gaussian, Inc. is engaged in the
 business of creating and licensing software in the field of
 computational chemistry and represents and warrants to the
 licensee that it is not a competitor of Gaussian, Inc. and that
 it will not use this program in any manner prohibited above.
 ---------------------------------------------------------------
  

 Cite this work as:
 Gaussian 16, Revision C.01,
 M. J. Frisch, G. W. Trucks, H. B. Schlegel, G. E. Scuseria, 
 M. A. Robb, J. R. Cheeseman, G. Scalmani, V. Barone, 
 G. A. Petersson, H. Nakatsuji, X. Li, M. Caricato, A. V. Marenich, 
 J. Bloino, B. G. Janesko, R. Gomperts, B. Mennucci, H. P. Hratchian, 
 J. V. Ortiz, A. F. Izmaylov, J. L. Sonnenberg, D. Williams-Young, 
 F. Ding, F. Lipparini, F. Egidi, J. Goings, B. Peng, A. Petrone, 
 T. Henderson, D. Ranasinghe, V. G. Zakrzewski, J. Gao, N. Rega, 
 G. Zheng, W. Liang, M. Hada, M. Ehara, K. Toyota, R. Fukuda, 
 J. Hasegawa, M. Ishida, T. Nakajima, Y. Honda, O. Kitao, H. Nakai, 
 T. Vreven, K. Throssell, J. A. Montgomery, Jr., J. E. Peralta, 
 F. Ogliaro, M. J. Bearpark, J. J. Heyd, E. N. Brothers, K. N. Kudin, 
 V. N. Staroverov, T. A. Keith, R. Kobayashi, J. Normand, 
 K. Raghavachari, A. P. Rendell, J. C. Burant, S. S. Iyengar, 
 J. Tomasi, M. Cossi, J. M. Millam, M. Klene, C. Adamo, R. Cammi, 
 J. W. Ochterski, R. L. Martin, K. Morokuma, O. Farkas, 
 J. B. Foresman, and D. J. Fox, Gaussian, Inc., Wallingford CT, 2019.
 
 ******************************************
 Gaussian 16:  ES64L-G16RevC.01  3-Jul-2019
                23-Jun-2022 
 ******************************************
 %mem=8gb
 %nproc=4
 Will use up to    4 processors via shared memory.
 %chk=conf-961.chk
 ----------------------------------------------------------------------
 # B3LYP/6-31G* empiricaldispersion=gd3bj guess=read geom=check nosymm 
 integral(ultrafinegrid)
 ----------------------------------------------------------------------
 1/29=2,38=1,172=1/1;
 2/12=2,15=1,40=1/2;
 3/5=1,6=6,7=1,11=2,14=-4,25=1,30=1,74=-5,75=-5,116=-2,124=41/1,2,3;
 4/5=1/1;
 5/5=2,38=6/2;
 6/7=2,8=2,9=2,10=2,28=1/1;
 99/5=1,9=1/99;
 ------------------------------------------------------
 Candidate Structure: Conf:961 Charge calc in gas phase
 ------------------------------------------------------
 Structure from the checkpoint file:  "conf-961.chk"
 Charge =  1 Multiplicity = 1
 Redundant internal coordinates found in file.  (old form).
 N,0,-1.908048488,-0.7585061231,-3.9523086409
 H,0,-2.1275878903,-1.6852718742,-3.5867846307
 H,0,-2.7598131701,-0.2053103401,-3.8433343456
 H,0,-0.928516906,-0.920088337,-5.4402821613
 C,0,-0.8278620065,-0.1447376112,-3.1606343586
 H,0,0.0603948703,-0.7697823822,-3.3101932069
 C,0,-1.1260841967,-0.0074281581,-1.6617847406
 C,0,-0.5516402347,1.2809511724,-3.6803246234
 H,0,0.3830550812,1.6345227872,-3.2294750385
 H,0,-1.347708736,1.9375212778,-3.3163414427
 O,0,-2.1071266662,0.6151008129,-1.2738945636
 C,0,-0.4708730124,1.3996191481,-5.217967271
 H,0,-1.4665024741,1.2846854036,-5.6550832189
 H,0,-0.0909445599,2.385178333,-5.4948953657
 C,0,0.4551646015,0.3468264391,-5.7840088015
 O,0,-0.0299484081,-0.8739996037,-5.9066249424
 O,0,1.6317849161,0.5880769723,-6.0613719178
 N,0,-0.1822019702,-0.5475222462,-0.8468692608
 H,0,0.6126341039,-1.0253452795,-1.2541488639
 C,0,0.0220832643,-0.1174102125,0.5386568247
 H,0,-0.7131230212,0.6673060089,0.7264311543
 C,0,1.4532155108,0.4315645285,0.5231140559
 C,0,-0.1322612222,-1.2637130338,1.5411799397
 H,0,0.5289654026,-2.0803251289,1.2281490178
 H,0,-1.1635297618,-1.6313836436,1.4726144268
 O,0,2.3934330168,-0.3054251652,0.2224658732
 C,0,0.1941725201,-0.8761990922,2.9943178616
 H,0,1.2504380266,-0.5695797162,3.0297604502
 C,0,-0.662637317,0.2934957422,3.4981963391
 H,0,-1.731610784,0.0697322014,3.3952795994
 H,0,-0.4638089539,0.4892908576,4.5569025839
 H,0,-0.461536096,1.2261073586,2.9581975341
 C,0,0.0328964659,-2.1000383526,3.9039519218
 H,0,-1.0099281913,-2.4402605844,3.9174577323
 H,0,0.6548175983,-2.9354101148,3.5631667201
 H,0,0.3194698183,-1.8636042758,4.9340705224
 N,0,1.5941986643,1.7650180502,0.7212410995
 H,0,0.8386262129,2.3124881374,1.1185105323
 C,0,2.8998322395,2.3979744035,0.7060358986
 H,0,3.6422903699,1.6624339257,1.0330462289
 C,0,2.8599366455,3.5465157355,1.7046709402
 C,0,3.3017428614,2.9224168887,-0.6949073075
 H,0,4.3067520736,3.352805778,-0.6157876095
 H,0,2.6238522078,3.7392480063,-0.9758188827
 O,0,1.8509092828,3.9388928259,2.2465285511
 C,0,3.2637885434,1.8314732953,-1.7705341832
 H,0,3.8452763485,0.9636561527,-1.4439820105
 H,0,2.2368128749,1.4718460903,-1.8906864869
 C,0,3.7624521398,2.3387905009,-3.1290070579
 H,0,4.8086512183,2.6669425484,-3.0779969833
 H,0,3.1924610774,3.2161817146,-3.4461330113
 N,0,3.6089139738,1.3495140497,-4.201476927
 H,0,2.8216528282,1.4340668631,-4.848093393
 N,0,5.4656410717,0.0561854923,-3.6351256594
 H,0,5.9072624934,-0.8508788208,-3.6073888366
 H,0,5.7471069849,0.7194678979,-2.9305811552
 N,0,3.9590913456,-0.6821568192,-5.2384300206
 H,0,4.6053316426,-1.3928606104,-5.5489805616
 H,0,3.1069294103,-0.5140868169,-5.7837478804
 C,0,4.3427480645,0.2457949217,-4.3530360259
 O,0,4.0762101554,4.0886863665,1.8829955809
 H,0,3.9766037096,4.8255055244,2.5167085385
 Recover connectivity data from disk.
                           ----------------------------
                           !    Current Parameters    !
                           ! (Angstroms and Degrees)  !
 --------------------------                            --------------------------
 ! Name  Definition              Value                                          !
 --------------------------------------------------------------------------------
 ! R1    R(1,2)                  1.0201                                         !
 ! R2    R(1,3)                  1.0215                                         !
 ! R3    R(1,4)                  1.7888                                         !
 ! R4    R(1,5)                  1.4732                                         !
 ! R5    R(5,6)                  1.0964                                         !
 ! R6    R(5,7)                  1.5344                                         !
 ! R7    R(5,8)                  1.5424                                         !
 ! R8    R(7,11)                 1.2249                                         !
 ! R9    R(7,18)                 1.3589                                         !
 ! R10   R(8,9)                  1.0963                                         !
 ! R11   R(8,10)                 1.0942                                         !
 ! R12   R(8,12)                 1.5443                                         !
 ! R13   R(12,13)                1.0934                                         !
 ! R14   R(12,14)                1.092                                          !
 ! R15   R(12,15)                1.5121                                         !
 ! R16   R(15,16)                1.3194                                         !
 ! R17   R(15,17)                1.2327                                         !
 ! R18   R(18,19)                1.0129                                         !
 ! R19   R(18,20)                1.4651                                         !
 ! R20   R(20,21)                1.0916                                         !
 ! R21   R(20,22)                1.5329                                         !
 ! R22   R(20,23)                1.5306                                         !
 ! R23   R(22,26)                1.2319                                         !
 ! R24   R(22,37)                1.3554                                         !
 ! R25   R(23,24)                1.0964                                         !
 ! R26   R(23,25)                1.097                                          !
 ! R27   R(23,27)                1.5389                                         !
 ! R28   R(27,28)                1.1004                                         !
 ! R29   R(27,29)                1.535                                          !
 ! R30   R(27,33)                1.5334                                         !
 ! R31   R(29,30)                1.097                                          !
 ! R32   R(29,31)                1.0949                                         !
 ! R33   R(29,32)                1.0963                                         !
 ! R34   R(33,34)                1.097                                          !
 ! R35   R(33,35)                1.0958                                         !
 ! R36   R(33,36)                1.0951                                         !
 ! R37   R(37,38)                1.0141                                         !
 ! R38   R(37,39)                1.451                                          !
 ! R39   R(39,40)                1.0951                                         !
 ! R40   R(39,41)                1.5225                                         !
 ! R41   R(39,42)                1.5489                                         !
 ! R42   R(41,45)                1.2107                                         !
 ! R43   R(41,61)                1.3435                                         !
 ! R44   R(42,43)                1.0961                                         !
 ! R45   R(42,44)                1.098                                          !
 ! R46   R(42,46)                1.5325                                         !
 ! R47   R(46,47)                1.0945                                         !
 ! R48   R(46,48)                1.0947                                         !
 ! R49   R(46,49)                1.5335                                         !
 ! R50   R(49,50)                1.0976                                         !
 ! R51   R(49,51)                1.0933                                         !
 ! R52   R(49,52)                1.4671                                         !
 ! R53   R(52,53)                1.0223                                         !
 ! R54   R(52,60)                1.334                                          !
 ! R55   R(54,55)                1.0092                                         !
 ! R56   R(54,56)                1.0077                                         !
 ! R57   R(54,60)                1.3462                                         !
 ! R58   R(57,58)                1.0095                                         !
 ! R59   R(57,59)                1.0256                                         !
 ! R60   R(57,60)                1.3387                                         !
 ! R61   R(61,62)                0.9769                                         !
 ! A1    A(2,1,3)              105.9214                                         !
 ! A2    A(2,1,4)              109.5019                                         !
 ! A3    A(2,1,5)              110.1046                                         !
 ! A4    A(3,1,4)              126.4621                                         !
 ! A5    A(3,1,5)              109.1748                                         !
 ! A6    A(4,1,5)               94.7691                                         !
 ! A7    A(1,5,6)              106.4525                                         !
 ! A8    A(1,5,7)              114.8167                                         !
 ! A9    A(1,5,8)              109.5938                                         !
 ! A10   A(6,5,7)              109.9825                                         !
 ! A11   A(6,5,8)              109.6279                                         !
 ! A12   A(7,5,8)              106.3333                                         !
 ! A13   A(5,7,11)             120.6953                                         !
 ! A14   A(5,7,18)             114.5332                                         !
 ! A15   A(11,7,18)            124.637                                          !
 ! A16   A(5,8,9)              108.1935                                         !
 ! A17   A(5,8,10)             108.196                                          !
 ! A18   A(5,8,12)             114.5743                                         !
 ! A19   A(9,8,10)             106.8554                                         !
 ! A20   A(9,8,12)             109.8821                                         !
 ! A21   A(10,8,12)            108.8533                                         !
 ! A22   A(8,12,13)            110.0196                                         !
 ! A23   A(8,12,14)            109.8806                                         !
 ! A24   A(8,12,15)            110.5643                                         !
 ! A25   A(13,12,14)           108.0777                                         !
 ! A26   A(13,12,15)           109.5617                                         !
 ! A27   A(14,12,15)           108.687                                          !
 ! A28   A(12,15,16)           116.9917                                         !
 ! A29   A(12,15,17)           122.1769                                         !
 ! A30   A(16,15,17)           120.739                                          !
 ! A31   A(7,18,19)            119.4332                                         !
 ! A32   A(7,18,20)            123.1811                                         !
 ! A33   A(19,18,20)           114.1633                                         !
 ! A34   A(18,20,21)           106.249                                          !
 ! A35   A(18,20,22)           103.0459                                         !
 ! A36   A(18,20,23)           112.674                                          !
 ! A37   A(21,20,22)           111.907                                          !
 ! A38   A(21,20,23)           110.9642                                         !
 ! A39   A(22,20,23)           111.6532                                         !
 ! A40   A(20,22,26)           120.052                                          !
 ! A41   A(20,22,37)           116.612                                          !
 ! A42   A(26,22,37)           123.0138                                         !
 ! A43   A(20,23,24)           108.0582                                         !
 ! A44   A(20,23,25)           107.7497                                         !
 ! A45   A(20,23,27)           114.1096                                         !
 ! A46   A(24,23,25)           107.4264                                         !
 ! A47   A(24,23,27)           109.2213                                         !
 ! A48   A(25,23,27)           110.0488                                         !
 ! A49   A(23,27,28)           107.7085                                         !
 ! A50   A(23,27,29)           112.5469                                         !
 ! A51   A(23,27,33)           109.686                                          !
 ! A52   A(28,27,29)           108.233                                          !
 ! A53   A(28,27,33)           107.7122                                         !
 ! A54   A(29,27,33)           110.7784                                         !
 ! A55   A(27,29,30)           110.959                                          !
 ! A56   A(27,29,31)           110.6296                                         !
 ! A57   A(27,29,32)           112.5924                                         !
 ! A58   A(30,29,31)           107.7078                                         !
 ! A59   A(30,29,32)           107.8229                                         !
 ! A60   A(31,29,32)           106.9097                                         !
 ! A61   A(27,33,34)           110.7823                                         !
 ! A62   A(27,33,35)           111.3627                                         !
 ! A63   A(27,33,36)           110.9892                                         !
 ! A64   A(34,33,35)           107.8737                                         !
 ! A65   A(34,33,36)           107.7071                                         !
 ! A66   A(35,33,36)           107.9761                                         !
 ! A67   A(22,37,38)           120.7209                                         !
 ! A68   A(22,37,39)           121.4119                                         !
 ! A69   A(38,37,39)           116.0406                                         !
 ! A70   A(37,39,40)           108.2963                                         !
 ! A71   A(37,39,41)           107.3743                                         !
 ! A72   A(37,39,42)           112.9944                                         !
 ! A73   A(40,39,41)           109.1836                                         !
 ! A74   A(40,39,42)           108.7586                                         !
 ! A75   A(41,39,42)           110.159                                          !
 ! A76   A(39,41,45)           124.0491                                         !
 ! A77   A(39,41,61)           111.5776                                         !
 ! A78   A(45,41,61)           124.3547                                         !
 ! A79   A(39,42,43)           107.7917                                         !
 ! A80   A(39,42,44)           108.8487                                         !
 ! A81   A(39,42,46)           112.7904                                         !
 ! A82   A(43,42,44)           107.0029                                         !
 ! A83   A(43,42,46)           110.6633                                         !
 ! A84   A(44,42,46)           109.5551                                         !
 ! A85   A(42,46,47)           109.9911                                         !
 ! A86   A(42,46,48)           109.5191                                         !
 ! A87   A(42,46,49)           112.2235                                         !
 ! A88   A(47,46,48)           105.7048                                         !
 ! A89   A(47,46,49)           110.724                                          !
 ! A90   A(48,46,49)           108.4521                                         !
 ! A91   A(46,49,50)           111.5729                                         !
 ! A92   A(46,49,51)           110.6666                                         !
 ! A93   A(46,49,52)           112.9842                                         !
 ! A94   A(50,49,51)           105.6927                                         !
 ! A95   A(50,49,52)           109.5913                                         !
 ! A96   A(51,49,52)           105.9347                                         !
 ! A97   A(49,52,53)           119.1569                                         !
 ! A98   A(49,52,60)           125.6873                                         !
 ! A99   A(53,52,60)           114.8467                                         !
 ! A100  A(55,54,56)           116.7513                                         !
 ! A101  A(55,54,60)           120.4137                                         !
 ! A102  A(56,54,60)           120.871                                          !
 ! A103  A(58,57,59)           118.9273                                         !
 ! A104  A(58,57,60)           120.5287                                         !
 ! A105  A(59,57,60)           118.437                                          !
 ! A106  A(52,60,54)           120.9828                                         !
 ! A107  A(52,60,57)           119.4046                                         !
 ! A108  A(54,60,57)           119.6114                                         !
 ! A109  A(41,61,62)           107.3467                                         !
 ! D1    D(2,1,5,6)             64.1957                                         !
 ! D2    D(2,1,5,7)            -57.7513                                         !
 ! D3    D(2,1,5,8)           -177.3212                                         !
 ! D4    D(3,1,5,6)           -179.9194                                         !
 ! D5    D(3,1,5,7)             58.1336                                         !
 ! D6    D(3,1,5,8)            -61.4363                                         !
 ! D7    D(4,1,5,6)            -48.5893                                         !
 ! D8    D(4,1,5,7)           -170.5363                                         !
 ! D9    D(4,1,5,8)             69.8938                                         !
 ! D10   D(1,5,7,11)           -57.4796                                         !
 ! D11   D(1,5,7,18)           126.546                                          !
 ! D12   D(6,5,7,11)          -177.491                                          !
 ! D13   D(6,5,7,18)             6.5346                                         !
 ! D14   D(8,5,7,11)            63.8875                                         !
 ! D15   D(8,5,7,18)          -112.0869                                         !
 ! D16   D(1,5,8,9)           -168.1079                                         !
 ! D17   D(1,5,8,10)            76.4681                                         !
 ! D18   D(1,5,8,12)           -45.1564                                         !
 ! D19   D(6,5,8,9)            -51.6127                                         !
 ! D20   D(6,5,8,10)          -167.0367                                         !
 ! D21   D(6,5,8,12)            71.3388                                         !
 ! D22   D(7,5,8,9)             67.2417                                         !
 ! D23   D(7,5,8,10)           -48.1823                                         !
 ! D24   D(7,5,8,12)          -169.8068                                         !
 ! D25   D(5,7,18,19)           -2.4852                                         !
 ! D26   D(5,7,18,20)          156.032                                          !
 ! D27   D(11,7,18,19)        -178.2777                                         !
 ! D28   D(11,7,18,20)         -19.7605                                         !
 ! D29   D(5,8,12,13)           71.7278                                         !
 ! D30   D(5,8,12,14)         -169.3942                                         !
 ! D31   D(5,8,12,15)          -49.4236                                         !
 ! D32   D(9,8,12,13)         -166.2356                                         !
 ! D33   D(9,8,12,14)          -47.3575                                         !
 ! D34   D(9,8,12,15)           72.613                                          !
 ! D35   D(10,8,12,13)         -49.5366                                         !
 ! D36   D(10,8,12,14)          69.3415                                         !
 ! D37   D(10,8,12,15)        -170.6879                                         !
 ! D38   D(8,12,15,16)          79.1377                                         !
 ! D39   D(8,12,15,17)         -97.39                                           !
 ! D40   D(13,12,15,16)        -42.2848                                         !
 ! D41   D(13,12,15,17)        141.1875                                         !
 ! D42   D(14,12,15,16)       -160.1778                                         !
 ! D43   D(14,12,15,17)         23.2945                                         !
 ! D44   D(7,18,20,21)           0.3023                                         !
 ! D45   D(7,18,20,22)        -117.5022                                         !
 ! D46   D(7,18,20,23)         122.0142                                         !
 ! D47   D(19,18,20,21)        159.8404                                         !
 ! D48   D(19,18,20,22)         42.036                                          !
 ! D49   D(19,18,20,23)        -78.4477                                         !
 ! D50   D(18,20,22,26)        -60.6689                                         !
 ! D51   D(18,20,22,37)        113.0085                                         !
 ! D52   D(21,20,22,26)       -174.4199                                         !
 ! D53   D(21,20,22,37)         -0.7425                                         !
 ! D54   D(23,20,22,26)         60.5114                                         !
 ! D55   D(23,20,22,37)       -125.8112                                         !
 ! D56   D(18,20,23,24)         53.3162                                         !
 ! D57   D(18,20,23,25)        -62.4758                                         !
 ! D58   D(18,20,23,27)        175.0032                                         !
 ! D59   D(21,20,23,24)        172.3167                                         !
 ! D60   D(21,20,23,25)         56.5246                                         !
 ! D61   D(21,20,23,27)        -65.9963                                         !
 ! D62   D(22,20,23,24)        -62.0923                                         !
 ! D63   D(22,20,23,25)       -177.8844                                         !
 ! D64   D(22,20,23,27)         59.5947                                         !
 ! D65   D(20,22,37,38)         16.9857                                         !
 ! D66   D(20,22,37,39)       -179.0129                                         !
 ! D67   D(26,22,37,38)       -169.5416                                         !
 ! D68   D(26,22,37,39)         -5.5402                                         !
 ! D69   D(20,23,27,28)        -61.9702                                         !
 ! D70   D(20,23,27,29)         57.2517                                         !
 ! D71   D(20,23,27,33)       -178.9344                                         !
 ! D72   D(24,23,27,28)         59.0732                                         !
 ! D73   D(24,23,27,29)        178.2951                                         !
 ! D74   D(24,23,27,33)        -57.891                                          !
 ! D75   D(25,23,27,28)        176.7741                                         !
 ! D76   D(25,23,27,29)        -64.004                                          !
 ! D77   D(25,23,27,33)         59.8099                                         !
 ! D78   D(23,27,29,30)         55.8776                                         !
 ! D79   D(23,27,29,31)        175.3649                                         !
 ! D80   D(23,27,29,32)        -65.079                                          !
 ! D81   D(28,27,29,30)        174.7935                                         !
 ! D82   D(28,27,29,31)        -65.7192                                         !
 ! D83   D(28,27,29,32)         53.8368                                         !
 ! D84   D(33,27,29,30)        -67.3283                                         !
 ! D85   D(33,27,29,31)         52.1591                                         !
 ! D86   D(33,27,29,32)        171.7151                                         !
 ! D87   D(23,27,33,34)        -63.8738                                         !
 ! D88   D(23,27,33,35)         56.1885                                         !
 ! D89   D(23,27,33,36)        176.52                                           !
 ! D90   D(28,27,33,34)        179.1643                                         !
 ! D91   D(28,27,33,35)        -60.7733                                         !
 ! D92   D(28,27,33,36)         59.5581                                         !
 ! D93   D(29,27,33,34)         60.9688                                         !
 ! D94   D(29,27,33,35)       -178.9688                                         !
 ! D95   D(29,27,33,36)        -58.6374                                         !
 ! D96   D(22,37,39,40)        -28.7768                                         !
 ! D97   D(22,37,39,41)       -146.5578                                         !
 ! D98   D(22,37,39,42)         91.7707                                         !
 ! D99   D(38,37,39,40)        135.933                                          !
 ! D100  D(38,37,39,41)         18.152                                          !
 ! D101  D(38,37,39,42)       -103.5195                                         !
 ! D102  D(37,39,41,45)         -9.2659                                         !
 ! D103  D(37,39,41,61)        172.2468                                         !
 ! D104  D(40,39,41,45)       -126.4684                                         !
 ! D105  D(40,39,41,61)         55.0443                                         !
 ! D106  D(42,39,41,45)        114.1625                                         !
 ! D107  D(42,39,41,61)        -64.3248                                         !
 ! D108  D(37,39,42,43)       -178.2881                                         !
 ! D109  D(37,39,42,44)         65.9864                                         !
 ! D110  D(37,39,42,46)        -55.8209                                         !
 ! D111  D(40,39,42,43)        -58.0045                                         !
 ! D112  D(40,39,42,44)       -173.73                                           !
 ! D113  D(40,39,42,46)         64.4627                                         !
 ! D114  D(41,39,42,43)         61.6229                                         !
 ! D115  D(41,39,42,44)        -54.1027                                         !
 ! D116  D(41,39,42,46)       -175.91                                           !
 ! D117  D(39,41,61,62)        178.8773                                         !
 ! D118  D(45,41,61,62)          0.3955                                         !
 ! D119  D(39,42,46,47)        -52.0422                                         !
 ! D120  D(39,42,46,48)         63.7152                                         !
 ! D121  D(39,42,46,49)       -175.7811                                         !
 ! D122  D(43,42,46,47)         68.8003                                         !
 ! D123  D(43,42,46,48)       -175.4423                                         !
 ! D124  D(43,42,46,49)        -54.9387                                         !
 ! D125  D(44,42,46,47)       -173.4497                                         !
 ! D126  D(44,42,46,48)        -57.6923                                         !
 ! D127  D(44,42,46,49)         62.8113                                         !
 ! D128  D(42,46,49,50)         61.7013                                         !
 ! D129  D(42,46,49,51)        -55.6855                                         !
 ! D130  D(42,46,49,52)       -174.2871                                         !
 ! D131  D(47,46,49,50)        -61.6273                                         !
 ! D132  D(47,46,49,51)       -179.014                                          !
 ! D133  D(47,46,49,52)         62.3843                                         !
 ! D134  D(48,46,49,50)       -177.1795                                         !
 ! D135  D(48,46,49,51)         65.4337                                         !
 ! D136  D(48,46,49,52)        -53.1679                                         !
 ! D137  D(46,49,52,53)        100.5384                                         !
 ! D138  D(46,49,52,60)        -72.7305                                         !
 ! D139  D(50,49,52,53)       -134.3693                                         !
 ! D140  D(50,49,52,60)         52.3618                                         !
 ! D141  D(51,49,52,53)        -20.7793                                         !
 ! D142  D(51,49,52,60)        165.9518                                         !
 ! D143  D(49,52,60,54)        -11.4543                                         !
 ! D144  D(49,52,60,57)        168.9384                                         !
 ! D145  D(53,52,60,54)        175.0223                                         !
 ! D146  D(53,52,60,57)         -4.5849                                         !
 ! D147  D(55,54,60,52)        167.0576                                         !
 ! D148  D(55,54,60,57)        -13.3359                                         !
 ! D149  D(56,54,60,52)          3.5181                                         !
 ! D150  D(56,54,60,57)       -176.8754                                         !
 ! D151  D(58,57,60,52)        163.6652                                         !
 ! D152  D(58,57,60,54)        -15.9475                                         !
 ! D153  D(59,57,60,52)          0.3398                                         !
 ! D154  D(59,57,60,54)       -179.2729                                         !
 --------------------------------------------------------------------------------
 Symmetry turned off by external request.
 Stoichiometry    C17H33N6O6(1+)
 Framework group  C1[X(C17H33N6O6)]
 Deg. of freedom   180
 Full point group                 C1      NOp   1
                          Input orientation:                          
 ---------------------------------------------------------------------
 Center     Atomic      Atomic             Coordinates (Angstroms)
 Number     Number       Type             X           Y           Z
 ---------------------------------------------------------------------
      1          7           0       -1.908048   -0.758506   -3.952309
      2          1           0       -2.127588   -1.685272   -3.586785
      3          1           0       -2.759813   -0.205310   -3.843334
      4          1           0       -0.928517   -0.920088   -5.440282
      5          6           0       -0.827862   -0.144738   -3.160634
      6          1           0        0.060395   -0.769782   -3.310193
      7          6           0       -1.126084   -0.007428   -1.661785
      8          6           0       -0.551640    1.280951   -3.680325
      9          1           0        0.383055    1.634523   -3.229475
     10          1           0       -1.347709    1.937521   -3.316341
     11          8           0       -2.107127    0.615101   -1.273895
     12          6           0       -0.470873    1.399619   -5.217967
     13          1           0       -1.466502    1.284685   -5.655083
     14          1           0       -0.090945    2.385178   -5.494895
     15          6           0        0.455165    0.346826   -5.784009
     16          8           0       -0.029948   -0.874000   -5.906625
     17          8           0        1.631785    0.588077   -6.061372
     18          7           0       -0.182202   -0.547522   -0.846869
     19          1           0        0.612634   -1.025345   -1.254149
     20          6           0        0.022083   -0.117410    0.538657
     21          1           0       -0.713123    0.667306    0.726431
     22          6           0        1.453216    0.431565    0.523114
     23          6           0       -0.132261   -1.263713    1.541180
     24          1           0        0.528965   -2.080325    1.228149
     25          1           0       -1.163530   -1.631384    1.472614
     26          8           0        2.393433   -0.305425    0.222466
     27          6           0        0.194173   -0.876199    2.994318
     28          1           0        1.250438   -0.569580    3.029760
     29          6           0       -0.662637    0.293496    3.498196
     30          1           0       -1.731611    0.069732    3.395280
     31          1           0       -0.463809    0.489291    4.556903
     32          1           0       -0.461536    1.226107    2.958198
     33          6           0        0.032896   -2.100038    3.903952
     34          1           0       -1.009928   -2.440261    3.917458
     35          1           0        0.654818   -2.935410    3.563167
     36          1           0        0.319470   -1.863604    4.934071
     37          7           0        1.594199    1.765018    0.721241
     38          1           0        0.838626    2.312488    1.118511
     39          6           0        2.899832    2.397974    0.706036
     40          1           0        3.642290    1.662434    1.033046
     41          6           0        2.859937    3.546516    1.704671
     42          6           0        3.301743    2.922417   -0.694907
     43          1           0        4.306752    3.352806   -0.615788
     44          1           0        2.623852    3.739248   -0.975819
     45          8           0        1.850909    3.938893    2.246529
     46          6           0        3.263789    1.831473   -1.770534
     47          1           0        3.845276    0.963656   -1.443982
     48          1           0        2.236813    1.471846   -1.890686
     49          6           0        3.762452    2.338791   -3.129007
     50          1           0        4.808651    2.666943   -3.077997
     51          1           0        3.192461    3.216182   -3.446133
     52          7           0        3.608914    1.349514   -4.201477
     53          1           0        2.821653    1.434067   -4.848093
     54          7           0        5.465641    0.056185   -3.635126
     55          1           0        5.907262   -0.850879   -3.607389
     56          1           0        5.747107    0.719468   -2.930581
     57          7           0        3.959091   -0.682157   -5.238430
     58          1           0        4.605332   -1.392861   -5.548981
     59          1           0        3.106929   -0.514087   -5.783748
     60          6           0        4.342748    0.245795   -4.353036
     61          8           0        4.076210    4.088686    1.882996
     62          1           0        3.976604    4.825506    2.516709
 ---------------------------------------------------------------------
 Rotational constants (GHZ):           0.1766986           0.1091665           0.0827534
 Standard basis: 6-31G(d) (6D, 7F)
   501 basis functions,   944 primitive gaussians,   501 cartesian basis functions
   112 alpha electrons      112 beta electrons
       nuclear repulsion energy      3113.7759714597 Hartrees.
 NAtoms=   62 NActive=   62 NUniq=   62 SFac= 1.00D+00 NAtFMM=   60 NAOKFM=T Big=T
 Integral buffers will be    131072 words long.
 Raffenetti 2 integral format.
 Two-electron integral symmetry is turned off.
 Nuclear repulsion after empirical dispersion term =     3113.6516672406 Hartrees.
 One-electron integrals computed using PRISM.
 NBasis=   501 RedAO= T EigKep=  1.95D-03  NBF=   501
 NBsUse=   501 1.00D-06 EigRej= -1.00D+00 NBFU=   501
 Initial guess from the checkpoint file:  "conf-961.chk"
 B after Tr=     0.000000    0.000000    0.000000
         Rot=    1.000000    0.000000    0.000000    0.000000 Ang=   0.00 deg.
 Requested convergence on RMS density matrix=1.00D-08 within 128 cycles.
 Requested convergence on MAX density matrix=1.00D-06.
 Requested convergence on             energy=1.00D-06.
 No special actions if energy rises.
 SCF Done:  E(RB3LYP) =  -1447.56078637     A.U. after    2 cycles
            NFock=  2  Conv=0.86D-08     -V/T= 2.0093

 **********************************************************************

            Population analysis using the SCF Density.

 **********************************************************************

 Alpha  occ. eigenvalues --  -19.30239 -19.29687 -19.26339 -19.24742 -19.21871
 Alpha  occ. eigenvalues --  -19.21581 -14.52074 -14.51015 -14.50229 -14.46690
 Alpha  occ. eigenvalues --  -14.46475 -14.45966 -10.47746 -10.44205 -10.42759
 Alpha  occ. eigenvalues --  -10.38917 -10.38786 -10.36492 -10.34789 -10.34626
 Alpha  occ. eigenvalues --  -10.32567 -10.31702 -10.31610 -10.31114 -10.31010
 Alpha  occ. eigenvalues --  -10.26538 -10.26515 -10.24541 -10.23948  -1.21599
 Alpha  occ. eigenvalues --   -1.21294  -1.16332  -1.14295  -1.13420  -1.13199
 Alpha  occ. eigenvalues --   -1.12430  -1.05642  -1.04277  -1.03309  -1.02857
 Alpha  occ. eigenvalues --   -1.02124  -0.92451  -0.91177  -0.89495  -0.87472
 Alpha  occ. eigenvalues --   -0.84574  -0.81967  -0.81223  -0.77980  -0.75514
 Alpha  occ. eigenvalues --   -0.74900  -0.74040  -0.73697  -0.73049  -0.71752
 Alpha  occ. eigenvalues --   -0.70625  -0.70054  -0.69128  -0.68662  -0.65150
 Alpha  occ. eigenvalues --   -0.65094  -0.64558  -0.63990  -0.63314  -0.62143
 Alpha  occ. eigenvalues --   -0.61654  -0.61257  -0.60265  -0.58770  -0.58348
 Alpha  occ. eigenvalues --   -0.57901  -0.57476  -0.57326  -0.56960  -0.55879
 Alpha  occ. eigenvalues --   -0.55822  -0.55416  -0.54754  -0.54114  -0.53413
 Alpha  occ. eigenvalues --   -0.52271  -0.51477  -0.51365  -0.50587  -0.50463
 Alpha  occ. eigenvalues --   -0.50280  -0.49480  -0.48950  -0.48599  -0.48015
 Alpha  occ. eigenvalues --   -0.47336  -0.47169  -0.46919  -0.45991  -0.45721
 Alpha  occ. eigenvalues --   -0.45257  -0.44718  -0.43655  -0.43153  -0.42516
 Alpha  occ. eigenvalues --   -0.42347  -0.40952  -0.40364  -0.40209  -0.40079
 Alpha  occ. eigenvalues --   -0.39831  -0.39776  -0.38426  -0.36623  -0.36340
 Alpha  occ. eigenvalues --   -0.35065  -0.34305
 Alpha virt. eigenvalues --   -0.11726  -0.11708  -0.09935  -0.09522  -0.08091
 Alpha virt. eigenvalues --   -0.06871  -0.05439  -0.04397  -0.02714  -0.02224
 Alpha virt. eigenvalues --   -0.01865  -0.01219  -0.01024   0.00660   0.01654
 Alpha virt. eigenvalues --    0.01804   0.02250   0.02676   0.03192   0.03431
 Alpha virt. eigenvalues --    0.04217   0.04689   0.05045   0.05360   0.06044
 Alpha virt. eigenvalues --    0.06308   0.06770   0.07130   0.07261   0.07896
 Alpha virt. eigenvalues --    0.08077   0.08492   0.08963   0.09274   0.10081
 Alpha virt. eigenvalues --    0.10186   0.10647   0.10832   0.10956   0.11586
 Alpha virt. eigenvalues --    0.12086   0.12117   0.13012   0.13309   0.13810
 Alpha virt. eigenvalues --    0.14256   0.14634   0.15030   0.15254   0.15982
 Alpha virt. eigenvalues --    0.16401   0.17043   0.17929   0.19184   0.19620
 Alpha virt. eigenvalues --    0.20843   0.22364   0.24087   0.25123   0.25814
 Alpha virt. eigenvalues --    0.26407   0.27261   0.29175   0.29251   0.32212
 Alpha virt. eigenvalues --    0.32956   0.35883   0.38533   0.38983   0.40096
 Alpha virt. eigenvalues --    0.40205   0.41428   0.41630   0.42325   0.42712
 Alpha virt. eigenvalues --    0.42858   0.43430   0.43981   0.44511   0.44675
 Alpha virt. eigenvalues --    0.44975   0.45474   0.45596   0.46511   0.47793
 Alpha virt. eigenvalues --    0.48568   0.49044   0.49102   0.50065   0.50460
 Alpha virt. eigenvalues --    0.50965   0.51377   0.51951   0.52665   0.53402
 Alpha virt. eigenvalues --    0.54046   0.54647   0.55656   0.56277   0.56764
 Alpha virt. eigenvalues --    0.56889   0.57633   0.58000   0.58646   0.58926
 Alpha virt. eigenvalues --    0.59683   0.60292   0.61626   0.62445   0.62935
 Alpha virt. eigenvalues --    0.63801   0.64272   0.64837   0.65295   0.66284
 Alpha virt. eigenvalues --    0.66586   0.66970   0.67907   0.68688   0.68748
 Alpha virt. eigenvalues --    0.70535   0.70715   0.71366   0.71451   0.72204
 Alpha virt. eigenvalues --    0.72540   0.72931   0.73673   0.73909   0.74532
 Alpha virt. eigenvalues --    0.75176   0.75251   0.75994   0.77132   0.77542
 Alpha virt. eigenvalues --    0.78356   0.78970   0.79013   0.79661   0.79979
 Alpha virt. eigenvalues --    0.80168   0.80762   0.81533   0.81710   0.82246
 Alpha virt. eigenvalues --    0.82477   0.83608   0.83922   0.84308   0.84681
 Alpha virt. eigenvalues --    0.85063   0.85336   0.85538   0.85982   0.86680
 Alpha virt. eigenvalues --    0.87090   0.87889   0.88194   0.89030   0.89553
 Alpha virt. eigenvalues --    0.90104   0.90499   0.91316   0.92102   0.92724
 Alpha virt. eigenvalues --    0.92970   0.93930   0.95270   0.96673   0.97586
 Alpha virt. eigenvalues --    0.98476   0.99076   0.99669   1.00556   1.01723
 Alpha virt. eigenvalues --    1.02323   1.03027   1.03801   1.04646   1.05212
 Alpha virt. eigenvalues --    1.06248   1.06892   1.07545   1.09479   1.10401
 Alpha virt. eigenvalues --    1.11744   1.12470   1.14283   1.15027   1.16136
 Alpha virt. eigenvalues --    1.17039   1.18115   1.20161   1.20831   1.21929
 Alpha virt. eigenvalues --    1.23942   1.25753   1.26179   1.27180   1.28896
 Alpha virt. eigenvalues --    1.30034   1.30089   1.32249   1.32620   1.33810
 Alpha virt. eigenvalues --    1.35066   1.35701   1.36064   1.37376   1.38428
 Alpha virt. eigenvalues --    1.39466   1.41609   1.41977   1.44378   1.45224
 Alpha virt. eigenvalues --    1.46069   1.46998   1.47541   1.49204   1.50029
 Alpha virt. eigenvalues --    1.51249   1.52483   1.52870   1.54691   1.55200
 Alpha virt. eigenvalues --    1.55774   1.56818   1.58062   1.59300   1.59861
 Alpha virt. eigenvalues --    1.60476   1.61280   1.61842   1.62552   1.63827
 Alpha virt. eigenvalues --    1.65174   1.66161   1.66824   1.67655   1.67968
 Alpha virt. eigenvalues --    1.68644   1.69929   1.70554   1.71500   1.71771
 Alpha virt. eigenvalues --    1.72835   1.73502   1.74713   1.75616   1.76087
 Alpha virt. eigenvalues --    1.76703   1.77763   1.78366   1.79472   1.79900
 Alpha virt. eigenvalues --    1.80380   1.81571   1.82311   1.82372   1.83030
 Alpha virt. eigenvalues --    1.83508   1.84496   1.84814   1.85395   1.85927
 Alpha virt. eigenvalues --    1.86682   1.87503   1.89393   1.89710   1.90916
 Alpha virt. eigenvalues --    1.91984   1.92062   1.93492   1.94755   1.95544
 Alpha virt. eigenvalues --    1.95697   1.96715   1.97117   1.97624   1.99732
 Alpha virt. eigenvalues --    2.00020   2.00865   2.01450   2.01921   2.02348
 Alpha virt. eigenvalues --    2.03596   2.05877   2.07204   2.08626   2.09379
 Alpha virt. eigenvalues --    2.11094   2.11849   2.13149   2.13387   2.15428
 Alpha virt. eigenvalues --    2.16092   2.17065   2.17826   2.18608   2.20779
 Alpha virt. eigenvalues --    2.21180   2.21804   2.22579   2.23557   2.24779
 Alpha virt. eigenvalues --    2.25965   2.27318   2.27911   2.29964   2.31375
 Alpha virt. eigenvalues --    2.32076   2.32762   2.33686   2.35403   2.36644
 Alpha virt. eigenvalues --    2.37197   2.38879   2.39333   2.40370   2.41568
 Alpha virt. eigenvalues --    2.42358   2.42950   2.44357   2.45257   2.45867
 Alpha virt. eigenvalues --    2.46859   2.47362   2.48069   2.50188   2.52108
 Alpha virt. eigenvalues --    2.54035   2.54439   2.55025   2.57651   2.58767
 Alpha virt. eigenvalues --    2.59031   2.59983   2.61761   2.62434   2.64869
 Alpha virt. eigenvalues --    2.67203   2.68793   2.70173   2.71360   2.72280
 Alpha virt. eigenvalues --    2.75524   2.76976   2.77239   2.82768   2.86030
 Alpha virt. eigenvalues --    2.88729   2.89154   2.90918   2.91140   2.94293
 Alpha virt. eigenvalues --    2.95289   2.96720   3.00413   3.04827   3.08991
 Alpha virt. eigenvalues --    3.67383   3.75753   3.76141   3.76250   3.87158
 Alpha virt. eigenvalues --    3.88255   3.92457   3.95200   4.01997   4.04088
 Alpha virt. eigenvalues --    4.06247   4.09004   4.09882   4.15724   4.19298
 Alpha virt. eigenvalues --    4.19714   4.22339   4.22432   4.24917   4.26426
 Alpha virt. eigenvalues --    4.29783   4.33521   4.36650   4.41814   4.44087
 Alpha virt. eigenvalues --    4.48535   4.56203   4.61032   4.63284
          Condensed to atoms (all electrons):
 Mulliken charges:
               1
     1  N   -0.767700
     2  H    0.346002
     3  H    0.349669
     4  H    0.462804
     5  C   -0.087880
     6  H    0.148318
     7  C    0.608317
     8  C   -0.303717
     9  H    0.155096
    10  H    0.204924
    11  O   -0.510877
    12  C   -0.371893
    13  H    0.193507
    14  H    0.189202
    15  C    0.618191
    16  O   -0.560121
    17  O   -0.521717
    18  N   -0.602770
    19  H    0.339748
    20  C   -0.056923
    21  H    0.185919
    22  C    0.619034
    23  C   -0.251262
    24  H    0.150267
    25  H    0.155776
    26  O   -0.551488
    27  C   -0.090841
    28  H    0.133943
    29  C   -0.452453
    30  H    0.156055
    31  H    0.161955
    32  H    0.128750
    33  C   -0.445336
    34  H    0.150510
    35  H    0.148242
    36  H    0.155168
    37  N   -0.614350
    38  H    0.368048
    39  C   -0.043416
    40  H    0.206594
    41  C    0.588718
    42  C   -0.272720
    43  H    0.172472
    44  H    0.157816
    45  O   -0.451713
    46  C   -0.285403
    47  H    0.171896
    48  H    0.164104
    49  C   -0.178510
    50  H    0.174301
    51  H    0.189968
    52  N   -0.618909
    53  H    0.399318
    54  N   -0.756548
    55  H    0.380064
    56  H    0.382125
    57  N   -0.785444
    58  H    0.369122
    59  H    0.417439
    60  C    0.806445
    61  O   -0.560837
    62  H    0.433002
 Sum of Mulliken charges =   1.00000
 Mulliken charges with hydrogens summed into heavy atoms:
               1
     1  N   -0.072029
     5  C    0.060438
     7  C    0.608317
     8  C    0.056303
    11  O   -0.510877
    12  C    0.010816
    15  C    0.618191
    16  O   -0.097316
    17  O   -0.521717
    18  N   -0.263022
    20  C    0.128996
    22  C    0.619034
    23  C    0.054781
    26  O   -0.551488
    27  C    0.043102
    29  C   -0.005694
    33  C    0.008585
    37  N   -0.246302
    39  C    0.163177
    41  C    0.588718
    42  C    0.057568
    45  O   -0.451713
    46  C    0.050597
    49  C    0.185759
    52  N   -0.219592
    54  N    0.005641
    57  N    0.001117
    60  C    0.806445
    61  O   -0.127835
 Electronic spatial extent (au):  <R**2>=          17033.5646
 Charge=              1.0000 electrons
 Dipole moment (field-independent basis, Debye):
    X=             14.1444    Y=              3.2531    Z=            -13.8327  Tot=             20.0497
 Quadrupole moment (field-independent basis, Debye-Ang):
   XX=            -89.2873   YY=           -144.3806   ZZ=           -101.0477
   XY=             18.1284   XZ=            -34.7481   YZ=              2.3479
 Traceless Quadrupole moment (field-independent basis, Debye-Ang):
   XX=             22.2846   YY=            -32.8087   ZZ=             10.5242
   XY=             18.1284   XZ=            -34.7481   YZ=              2.3479
 Octapole moment (field-independent basis, Debye-Ang**2):
  XXX=           -261.5040  YYY=           -286.8138  ZZZ=            474.7743  XYY=           -124.7940
  XXY=            -94.1306  XXZ=            -40.8724  XZZ=            -64.6275  YZZ=           -110.2882
  YYZ=            204.9007  XYZ=             57.5046
 Hexadecapole moment (field-independent basis, Debye-Ang**3):
 XXXX=          -4136.8974 YYYY=          -2872.2940 ZZZZ=         -10677.4906 XXXY=          -1178.4724
 XXXZ=            -38.2680 YYYX=           -838.7748 YYYZ=            421.5078 ZZZX=            734.5074
 ZZZY=            351.1878 XXYY=          -1162.6968 XXZZ=          -1741.0432 YYZZ=          -2200.5858
 XXYZ=            456.3672 YYXZ=            474.3211 ZZXY=           -529.1445
 N-N= 3.113651667241D+03 E-N=-9.577316509222D+03  KE= 1.434200312131D+03
 Unable to Open any file for archive entry.
 1\1\GINC-SKL-151\SP\RB3LYP\6-31G(d)\C17H33N6O6(1+)\KENGMITH\23-Jun-202
 2\0\\# B3LYP/6-31G* empiricaldispersion=gd3bj guess=read geom=check no
 symm integral(ultrafinegrid)\\Candidate Structure: Conf:961 Charge cal
 c in gas phase\\1,1\N,0,-1.908048488,-0.7585061231,-3.9523086409\H,0,-
 2.1275878903,-1.6852718742,-3.5867846307\H,0,-2.7598131701,-0.20531034
 01,-3.8433343456\H,0,-0.928516906,-0.920088337,-5.4402821613\C,0,-0.82
 78620065,-0.1447376112,-3.1606343586\H,0,0.0603948703,-0.7697823822,-3
 .3101932069\C,0,-1.1260841967,-0.0074281581,-1.6617847406\C,0,-0.55164
 02347,1.2809511724,-3.6803246234\H,0,0.3830550812,1.6345227872,-3.2294
 750385\H,0,-1.347708736,1.9375212778,-3.3163414427\O,0,-2.1071266662,0
 .6151008129,-1.2738945636\C,0,-0.4708730124,1.3996191481,-5.217967271\
 H,0,-1.4665024741,1.2846854036,-5.6550832189\H,0,-0.0909445599,2.38517
 8333,-5.4948953657\C,0,0.4551646015,0.3468264391,-5.7840088015\O,0,-0.
 0299484081,-0.8739996037,-5.9066249424\O,0,1.6317849161,0.5880769723,-
 6.0613719178\N,0,-0.1822019702,-0.5475222462,-0.8468692608\H,0,0.61263
 41039,-1.0253452795,-1.2541488639\C,0,0.0220832643,-0.1174102125,0.538
 6568247\H,0,-0.7131230212,0.6673060089,0.7264311543\C,0,1.4532155108,0
 .4315645285,0.5231140559\C,0,-0.1322612222,-1.2637130338,1.5411799397\
 H,0,0.5289654026,-2.0803251289,1.2281490178\H,0,-1.1635297618,-1.63138
 36436,1.4726144268\O,0,2.3934330168,-0.3054251652,0.2224658732\C,0,0.1
 941725201,-0.8761990922,2.9943178616\H,0,1.2504380266,-0.5695797162,3.
 0297604502\C,0,-0.662637317,0.2934957422,3.4981963391\H,0,-1.731610784
 ,0.0697322014,3.3952795994\H,0,-0.4638089539,0.4892908576,4.5569025839
 \H,0,-0.461536096,1.2261073586,2.9581975341\C,0,0.0328964659,-2.100038
 3526,3.9039519218\H,0,-1.0099281913,-2.4402605844,3.9174577323\H,0,0.6
 548175983,-2.9354101148,3.5631667201\H,0,0.3194698183,-1.8636042758,4.
 9340705224\N,0,1.5941986643,1.7650180502,0.7212410995\H,0,0.8386262129
 ,2.3124881374,1.1185105323\C,0,2.8998322395,2.3979744035,0.7060358986\
 H,0,3.6422903699,1.6624339257,1.0330462289\C,0,2.8599366455,3.54651573
 55,1.7046709402\C,0,3.3017428614,2.9224168887,-0.6949073075\H,0,4.3067
 520736,3.352805778,-0.6157876095\H,0,2.6238522078,3.7392480063,-0.9758
 188827\O,0,1.8509092828,3.9388928259,2.2465285511\C,0,3.2637885434,1.8
 314732953,-1.7705341832\H,0,3.8452763485,0.9636561527,-1.4439820105\H,
 0,2.2368128749,1.4718460903,-1.8906864869\C,0,3.7624521398,2.338790500
 9,-3.1290070579\H,0,4.8086512183,2.6669425484,-3.0779969833\H,0,3.1924
 610774,3.2161817146,-3.4461330113\N,0,3.6089139738,1.3495140497,-4.201
 476927\H,0,2.8216528282,1.4340668631,-4.848093393\N,0,5.4656410717,0.0
 561854923,-3.6351256594\H,0,5.9072624934,-0.8508788208,-3.6073888366\H
 ,0,5.7471069849,0.7194678979,-2.9305811552\N,0,3.9590913456,-0.6821568
 192,-5.2384300206\H,0,4.6053316426,-1.3928606104,-5.5489805616\H,0,3.1
 069294103,-0.5140868169,-5.7837478804\C,0,4.3427480645,0.2457949217,-4
 .3530360259\O,0,4.0762101554,4.0886863665,1.8829955809\H,0,3.976603709
 6,4.8255055244,2.5167085385\\Version=ES64L-G16RevC.01\HF=-1447.5607864
 \RMSD=8.648e-09\Dipole=3.0083226,-0.1060939,-2.8361326\Quadrupole=16.5
 680354,-24.392494,7.8244585,13.4780435,-25.8343404,1.7455893\PG=C01 [X
 (C17H33N6O6)]\\@
 The archive entry for this job was punched.


 DO YOU KNOW THAT THE LETTERS IN "EPISCOPAL", WHEN
 REARRANGED, SPELL "PEPSI COLA"?
 Job cpu time:       0 days  0 hours  1 minutes 43.2 seconds.
 Elapsed time:       0 days  0 hours  0 minutes 26.5 seconds.
 File lengths (MBytes):  RWF=    248 Int=      0 D2E=      0 Chk=     32 Scr=     16
 Normal termination of Gaussian 16 at Thu Jun 23 05:40:34 2022.
