 Entering Gaussian System, Link 0=/opt/software/Gaussian/g16-AVX2-C.01/g16/g16
 Input=charge-conf-727.com
 Output=charge-conf-727.log
 Initial command:
 /opt/software/Gaussian/g16-AVX2-C.01/g16/l1.exe "/mnt/gs18/scratch/users/kengmith/Gau-7361.inp" -scrdir="/mnt/gs18/scratch/users/kengmith/"
 Entering Link 1 = /opt/software/Gaussian/g16-AVX2-C.01/g16/l1.exe PID=      7371.
  
 Copyright (c) 1988-2019, Gaussian, Inc.  All Rights Reserved.
  
 This is part of the Gaussian(R) 16 program.  It is based on
 the Gaussian(R) 09 system (copyright 2009, Gaussian, Inc.),
 the Gaussian(R) 03 system (copyright 2003, Gaussian, Inc.),
 the Gaussian(R) 98 system (copyright 1998, Gaussian, Inc.),
 the Gaussian(R) 94 system (copyright 1995, Gaussian, Inc.),
 the Gaussian 92(TM) system (copyright 1992, Gaussian, Inc.),
 the Gaussian 90(TM) system (copyright 1990, Gaussian, Inc.),
 the Gaussian 88(TM) system (copyright 1988, Gaussian, Inc.),
 the Gaussian 86(TM) system (copyright 1986, Carnegie Mellon
 University), and the Gaussian 82(TM) system (copyright 1983,
 Carnegie Mellon University). Gaussian is a federally registered
 trademark of Gaussian, Inc.
  
 This software contains proprietary and confidential information,
 including trade secrets, belonging to Gaussian, Inc.
  
 This software is provided under written license and may be
 used, copied, transmitted, or stored only in accord with that
 written license.
  
 The following legend is applicable only to US Government
 contracts under FAR:
  
                    RESTRICTED RIGHTS LEGEND
  
 Use, reproduction and disclosure by the US Government is
 subject to restrictions as set forth in subparagraphs (a)
 and (c) of the Commercial Computer Software - Restricted
 Rights clause in FAR 52.227-19.
  
 Gaussian, Inc.
 340 Quinnipiac St., Bldg. 40, Wallingford CT 06492
  
  
 ---------------------------------------------------------------
 Warning -- This program may not be used in any manner that
 competes with the business of Gaussian, Inc. or will provide
 assistance to any competitor of Gaussian, Inc.  The licensee
 of this program is prohibited from giving any competitor of
 Gaussian, Inc. access to this program.  By using this program,
 the user acknowledges that Gaussian, Inc. is engaged in the
 business of creating and licensing software in the field of
 computational chemistry and represents and warrants to the
 licensee that it is not a competitor of Gaussian, Inc. and that
 it will not use this program in any manner prohibited above.
 ---------------------------------------------------------------
  

 Cite this work as:
 Gaussian 16, Revision C.01,
 M. J. Frisch, G. W. Trucks, H. B. Schlegel, G. E. Scuseria, 
 M. A. Robb, J. R. Cheeseman, G. Scalmani, V. Barone, 
 G. A. Petersson, H. Nakatsuji, X. Li, M. Caricato, A. V. Marenich, 
 J. Bloino, B. G. Janesko, R. Gomperts, B. Mennucci, H. P. Hratchian, 
 J. V. Ortiz, A. F. Izmaylov, J. L. Sonnenberg, D. Williams-Young, 
 F. Ding, F. Lipparini, F. Egidi, J. Goings, B. Peng, A. Petrone, 
 T. Henderson, D. Ranasinghe, V. G. Zakrzewski, J. Gao, N. Rega, 
 G. Zheng, W. Liang, M. Hada, M. Ehara, K. Toyota, R. Fukuda, 
 J. Hasegawa, M. Ishida, T. Nakajima, Y. Honda, O. Kitao, H. Nakai, 
 T. Vreven, K. Throssell, J. A. Montgomery, Jr., J. E. Peralta, 
 F. Ogliaro, M. J. Bearpark, J. J. Heyd, E. N. Brothers, K. N. Kudin, 
 V. N. Staroverov, T. A. Keith, R. Kobayashi, J. Normand, 
 K. Raghavachari, A. P. Rendell, J. C. Burant, S. S. Iyengar, 
 J. Tomasi, M. Cossi, J. M. Millam, M. Klene, C. Adamo, R. Cammi, 
 J. W. Ochterski, R. L. Martin, K. Morokuma, O. Farkas, 
 J. B. Foresman, and D. J. Fox, Gaussian, Inc., Wallingford CT, 2019.
 
 ******************************************
 Gaussian 16:  ES64L-G16RevC.01  3-Jul-2019
                10-Jul-2022 
 ******************************************
 %mem=8gb
 %nproc=4
 Will use up to    4 processors via shared memory.
 %chk=conf-727.chk
 ----------------------------------------------------------------------
 # B3LYP/6-31G* empiricaldispersion=gd3bj guess=read geom=check nosymm 
 integral(ultrafinegrid)
 ----------------------------------------------------------------------
 1/29=2,38=1,172=1/1;
 2/12=2,15=1,40=1/2;
 3/5=1,6=6,7=1,11=2,14=-4,25=1,30=1,74=-5,75=-5,116=-2,124=41/1,2,3;
 4/5=1/1;
 5/5=2,38=6/2;
 6/7=2,8=2,9=2,10=2,28=1/1;
 99/5=1,9=1/99;
 ------------------------------------------------------
 Candidate Structure: Conf:727 Charge calc in gas phase
 ------------------------------------------------------
 Structure from the checkpoint file:  "conf-727.chk"
 Charge =  1 Multiplicity = 1
 Redundant internal coordinates found in file.  (old form).
 N,0,-5.5466528489,-1.7507097814,-0.8973904611
 H,0,-5.1514123233,-0.8213449809,-0.6701295321
 H,0,-6.4317626016,-1.9113423586,-0.4113815203
 H,0,-5.7123644871,-1.7198870857,-1.9336427616
 C,0,-4.4759966196,-2.7491363358,-0.5212035471
 H,0,-4.4611075821,-2.7876656542,0.5733773051
 C,0,-3.1871348884,-2.0479214693,-0.9956797274
 C,0,-4.7700367321,-4.1234870316,-1.1041970204
 H,0,-4.0435423504,-4.8497351478,-0.7245108699
 H,0,-5.7601484873,-4.4731099132,-0.7944747034
 H,0,-4.7241964815,-4.1111525623,-2.1976250672
 O,0,-3.2121730082,-0.8051781976,-1.0708666423
 N,0,-2.1584973178,-2.8178338417,-1.328897991
 H,0,-2.1884064516,-3.804777551,-1.088015675
 C,0,-0.8468715187,-2.2789474884,-1.7381847605
 H,0,-0.6987370299,-1.3531945056,-1.1734122705
 C,0,-0.8897497477,-1.9225350558,-3.2339152268
 C,0,0.2753001488,-3.2567587576,-1.3722844732
 H,0,0.2491053391,-4.114259385,-2.0534206085
 H,0,1.2188268034,-2.737556104,-1.5623559438
 O,0,-0.1849038813,-2.4527047226,-4.0805282177
 C,0,0.1241900131,-3.6728325146,0.058397529
 C,0,0.5041123589,-2.9578328608,1.1767568138
 H,0,1.0867284328,-2.0481926897,1.2369728605
 C,0,-0.6928478946,-4.7560581522,0.5360234619
 C,0,-0.751593584,-4.6311564629,1.9600440224
 C,0,-1.4147774225,-5.7911088655,-0.0926601203
 H,0,-1.3423000931,-5.9464725297,-1.1688086029
 N,0,-0.0094397075,-3.5317015135,2.3130315548
 H,0,0.2890216701,-3.2139005105,3.2600753807
 C,0,-2.2120598647,-6.5196015255,2.0948727962
 H,0,-2.7997388716,-7.2197299778,2.6811402624
 C,0,-1.4984795209,-5.5176407332,2.7442146161
 H,0,-1.5233255465,-5.4178222539,3.8251606285
 C,0,-2.1735067111,-6.6574720787,0.6909378979
 H,0,-2.7167177557,-7.4726675425,0.2207482678
 N,0,-1.7839473,-0.9305078531,-3.5063276927
 H,0,-2.2453503974,-0.4908613265,-2.7137839517
 C,0,-1.849348051,-0.2294917827,-4.7794271349
 H,0,-1.4507841427,-0.9090903817,-5.5395012176
 C,0,-0.9440868124,1.0275079411,-4.6605123286
 C,0,-3.3094475709,0.1372252978,-5.0595866969
 H,0,-3.6421431335,0.819403307,-4.2687855763
 H,0,-3.3912684086,0.6954427486,-5.9941277212
 O,0,-1.3942569549,2.1630863957,-4.7586336433
 C,0,-4.1905154527,-1.1392079682,-5.0922454728
 H,0,-4.2185458514,-1.5520638146,-6.1054183377
 H,0,-3.7736731037,-1.8913618637,-4.4197561014
 C,0,-5.5959134516,-0.8647078449,-4.6382414732
 O,0,-6.0786594776,-1.1836599111,-3.5539112736
 O,0,-6.3093366106,-0.1867583666,-5.5390504952
 N,0,0.3387890161,0.7091601629,-4.3398774895
 H,0,0.5800942799,-0.2789590372,-4.2739194149
 C,0,1.2876292415,1.5535410182,-3.6275777879
 H,0,1.7855980284,2.2440424957,-4.3236680207
 C,0,2.3343806749,0.5664639519,-3.0633699509
 C,0,0.6106764142,2.4096167844,-2.509187162
 H,0,-0.1655563658,2.9727936593,-3.0331666402
 O,0,2.1519304912,-0.6463586701,-3.0771035819
 C,0,-0.0429996385,1.5520540814,-1.4210451542
 H,0,0.6974152493,0.9345599991,-0.902054337
 H,0,-0.5343256313,2.1928145408,-0.6803787402
 H,0,-0.8104132924,0.898301982,-1.8380498459
 C,0,1.5658302044,3.4294638308,-1.869465337
 H,0,2.2359305307,2.9274539539,-1.162734327
 H,0,2.1625413101,3.9690556975,-2.6176070635
 H,0,0.9802875102,4.1730173359,-1.3155585915
 N,0,3.453798501,1.120622247,-2.5354134737
 H,0,3.594973066,2.1183259497,-2.5600825125
 C,0,4.4006073676,0.3519538304,-1.7625734479
 H,0,5.0335524294,-0.254493347,-2.4247447679
 C,0,3.6789195496,-0.5487767758,-0.7341853724
 C,0,5.2793030203,1.3133740578,-0.8991822357
 H,0,4.801581548,1.409034906,0.0750851335
 O,0,2.6355535838,-0.1833373838,-0.199206337
 C,0,6.6973414292,0.8203130995,-0.6904396643
 H,0,6.6736069215,-0.0948154121,-0.0964708896
 H,0,7.2070333966,0.6262098428,-1.6427435078
 H,0,7.2733571253,1.555994143,-0.1202207509
 O,0,5.2717198141,2.6672760332,-1.4450146727
 H,0,6.0133615933,2.7708873516,-2.063973204
 N,0,4.3638061335,-1.6524733681,-0.3652106071
 H,0,5.2389299761,-1.8527365606,-0.8282394218
 C,0,4.1316316714,-2.2615392487,0.9430597927
 H,0,3.1626127539,-2.7666187543,0.9139531779
 C,0,4.0686302786,-1.1214102868,1.9988938443
 C,0,5.2089735262,-3.3271083656,1.2448018803
 H,0,5.1868406636,-4.0238466394,0.3938674441
 O,0,4.7869003534,-0.1135457689,1.8745967624
 C,0,6.6247556143,-2.7457523812,1.3624394663
 H,0,6.6755154392,-1.9913139067,2.1528385103
 H,0,6.9684133506,-2.2752952039,0.4324011635
 H,0,7.338048612,-3.5421988742,1.5972280219
 C,0,4.8369694562,-4.1177688815,2.5060510378
 H,0,4.8804671945,-3.486846942,3.3994018409
 H,0,5.5324418495,-4.9508316764,2.6479129215
 H,0,3.8245160977,-4.5307345965,2.4379563407
 N,0,3.1824717438,-1.3476218785,2.9653281407
 H,0,2.6863818609,-2.2452659561,3.0400575643
 C,0,2.6408685938,-0.4646546604,3.9972925047
 H,0,3.3850623572,-0.2937802172,4.7867161963
 C,0,1.4319592957,-1.2686290609,4.6384416899
 C,0,2.133568823,0.879153446,3.4573741043
 H,0,1.3522385233,1.1988080105,4.1507706392
 H,0,1.652147162,0.6863808929,2.4901017793
 O,0,0.672638047,-0.6326531941,5.3703882832
 C,0,3.2037974802,1.9807847846,3.3061710943
 H,0,3.1248699551,2.706255373,4.1266545728
 H,0,4.1982601977,1.5311205469,3.3473648683
 C,0,3.0757609927,2.70644981,1.9600269153
 H,0,3.1036363128,1.9534855953,1.1645536143
 H,0,2.1068850216,3.2226553732,1.8913966509
 C,0,4.200575405,3.7138095515,1.7921508074
 H,0,5.1819602765,3.2400813104,1.8681201371
 H,0,4.1375454703,4.5173999009,2.5296044226
 N,0,4.1584542119,4.3786625764,0.4162165948
 H,0,4.6479076749,5.2784936345,0.4135150688
 H,0,4.6024680065,3.7737849819,-0.3211412614
 H,0,3.1871261074,4.5472664544,0.1321112627
 O,0,1.3926326957,-2.5007389008,4.2969721273
 H,0,-7.1963313915,-0.0209533044,-5.1648344925
 Recover connectivity data from disk.
                           ----------------------------
                           !    Current Parameters    !
                           ! (Angstroms and Degrees)  !
 --------------------------                            --------------------------
 ! Name  Definition              Value                                          !
 --------------------------------------------------------------------------------
 ! R1    R(1,2)                  1.0352                                         !
 ! R2    R(1,3)                  1.0225                                         !
 ! R3    R(1,4)                  1.0499                                         !
 ! R4    R(1,5)                  1.5115                                         !
 ! R5    R(5,6)                  1.0954                                         !
 ! R6    R(5,7)                  1.5421                                         !
 ! R7    R(5,8)                  1.5216                                         !
 ! R8    R(7,12)                 1.2453                                         !
 ! R9    R(7,13)                 1.3274                                         !
 ! R10   R(8,9)                  1.0952                                         !
 ! R11   R(8,10)                 1.0948                                         !
 ! R12   R(8,11)                 1.0945                                         !
 ! R13   R(13,14)                1.0164                                         !
 ! R14   R(13,15)                1.4759                                         !
 ! R15   R(15,16)                1.0945                                         !
 ! R16   R(15,17)                1.5382                                         !
 ! R17   R(15,18)                1.5327                                         !
 ! R18   R(17,21)                1.2226                                         !
 ! R19   R(17,37)                1.3631                                         !
 ! R20   R(18,19)                1.0954                                         !
 ! R21   R(18,20)                1.0936                                         !
 ! R22   R(18,22)                1.4976                                         !
 ! R23   R(22,23)                1.3807                                         !
 ! R24   R(22,25)                1.4384                                         !
 ! R25   R(23,24)                1.0819                                         !
 ! R26   R(23,29)                1.3727                                         !
 ! R27   R(25,26)                1.4307                                         !
 ! R28   R(25,27)                1.4099                                         !
 ! R29   R(26,29)                1.3727                                         !
 ! R30   R(26,33)                1.3995                                         !
 ! R31   R(27,28)                1.0897                                         !
 ! R32   R(27,35)                1.3929                                         !
 ! R33   R(29,30)                1.0426                                         !
 ! R34   R(31,32)                1.0859                                         !
 ! R35   R(31,33)                1.391                                          !
 ! R36   R(31,35)                1.4112                                         !
 ! R37   R(33,34)                1.0858                                         !
 ! R38   R(35,36)                1.0866                                         !
 ! R39   R(37,38)                1.017                                          !
 ! R40   R(37,39)                1.4548                                         !
 ! R41   R(39,40)                1.0947                                         !
 ! R42   R(39,41)                1.5536                                         !
 ! R43   R(39,42)                1.5313                                         !
 ! R44   R(41,45)                1.2255                                         !
 ! R45   R(41,52)                1.3601                                         !
 ! R46   R(42,43)                1.0961                                         !
 ! R47   R(42,44)                1.0916                                         !
 ! R48   R(42,46)                1.5513                                         !
 ! R49   R(46,47)                1.0944                                         !
 ! R50   R(46,48)                1.0917                                         !
 ! R51   R(46,49)                1.5022                                         !
 ! R52   R(49,50)                1.229                                          !
 ! R53   R(49,51)                1.3342                                         !
 ! R54   R(51,121)               0.9769                                         !
 ! R55   R(52,53)                1.0193                                         !
 ! R56   R(52,54)                1.4562                                         !
 ! R57   R(54,55)                1.0997                                         !
 ! R58   R(54,56)                1.5454                                         !
 ! R59   R(54,57)                1.5627                                         !
 ! R60   R(56,59)                1.2265                                         !
 ! R61   R(56,68)                1.3561                                         !
 ! R62   R(57,58)                1.0928                                         !
 ! R63   R(57,60)                1.5319                                         !
 ! R64   R(57,64)                1.5368                                         !
 ! R65   R(60,61)                1.0949                                         !
 ! R66   R(60,62)                1.0957                                         !
 ! R67   R(60,63)                1.091                                          !
 ! R68   R(64,65)                1.0957                                         !
 ! R69   R(64,66)                1.0986                                         !
 ! R70   R(64,67)                1.0966                                         !
 ! R71   R(68,69)                1.0079                                         !
 ! R72   R(68,70)                1.4438                                         !
 ! R73   R(70,71)                1.0986                                         !
 ! R74   R(70,72)                1.5459                                         !
 ! R75   R(70,73)                1.5627                                         !
 ! R76   R(72,75)                1.2282                                         !
 ! R77   R(72,82)                1.3503                                         !
 ! R78   R(73,74)                1.0893                                         !
 ! R79   R(73,76)                1.5158                                         !
 ! R80   R(73,80)                1.4598                                         !
 ! R81   R(76,77)                1.0912                                         !
 ! R82   R(76,78)                1.0974                                         !
 ! R83   R(76,79)                1.0946                                         !
 ! R84   R(80,81)                0.9715                                         !
 ! R85   R(82,83)                1.0101                                         !
 ! R86   R(82,84)                1.4617                                         !
 ! R87   R(84,85)                1.0931                                         !
 ! R88   R(84,86)                1.5552                                         !
 ! R89   R(84,87)                1.545                                          !
 ! R90   R(86,89)                1.2438                                         !
 ! R91   R(86,98)                1.3306                                         !
 ! R92   R(87,88)                1.1                                            !
 ! R93   R(87,90)                1.535                                          !
 ! R94   R(87,94)                1.5344                                         !
 ! R95   R(90,91)                1.0938                                         !
 ! R96   R(90,92)                1.0975                                         !
 ! R97   R(90,93)                1.0946                                         !
 ! R98   R(94,95)                1.0945                                         !
 ! R99   R(94,96)                1.0944                                         !
 ! R100  R(94,97)                1.0956                                         !
 ! R101  R(98,99)                1.0283                                         !
 ! R102  R(98,100)               1.4622                                         !
 ! R103  R(100,101)              1.0983                                         !
 ! R104  R(100,102)              1.5871                                         !
 ! R105  R(100,103)              1.5345                                         !
 ! R106  R(102,106)              1.2316                                         !
 ! R107  R(102,120)              1.2792                                         !
 ! R108  R(103,104)              1.0925                                         !
 ! R109  R(103,105)              1.0975                                         !
 ! R110  R(103,107)              1.5433                                         !
 ! R111  R(107,108)              1.0981                                         !
 ! R112  R(107,109)              1.0922                                         !
 ! R113  R(107,110)              1.5346                                         !
 ! R114  R(110,111)              1.0957                                         !
 ! R115  R(110,112)              1.1                                            !
 ! R116  R(110,113)              1.5193                                         !
 ! R117  R(113,114)              1.0924                                         !
 ! R118  R(113,115)              1.0925                                         !
 ! R119  R(113,116)              1.5287                                         !
 ! R120  R(116,117)              1.0243                                         !
 ! R121  R(116,118)              1.052                                          !
 ! R122  R(116,119)              1.026                                          !
 ! A1    A(2,1,3)              111.5438                                         !
 ! A2    A(2,1,4)              104.5129                                         !
 ! A3    A(2,1,5)              105.5418                                         !
 ! A4    A(3,1,4)              109.7029                                         !
 ! A5    A(3,1,5)              113.0232                                         !
 ! A6    A(4,1,5)              112.1386                                         !
 ! A7    A(1,5,6)              106.3537                                         !
 ! A8    A(1,5,7)              102.4203                                         !
 ! A9    A(1,5,8)              111.3702                                         !
 ! A10   A(6,5,7)              108.186                                          !
 ! A11   A(6,5,8)              110.7159                                         !
 ! A12   A(7,5,8)              117.0231                                         !
 ! A13   A(5,7,12)             117.1018                                         !
 ! A14   A(5,7,13)             117.4638                                         !
 ! A15   A(12,7,13)            125.3999                                         !
 ! A16   A(5,8,9)              109.7518                                         !
 ! A17   A(5,8,10)             110.7835                                         !
 ! A18   A(5,8,11)             111.3779                                         !
 ! A19   A(9,8,10)             106.8634                                         !
 ! A20   A(9,8,11)             109.0295                                         !
 ! A21   A(10,8,11)            108.9128                                         !
 ! A22   A(7,13,14)            118.7471                                         !
 ! A23   A(7,13,15)            123.129                                          !
 ! A24   A(14,13,15)           116.5152                                         !
 ! A25   A(13,15,16)           106.6195                                         !
 ! A26   A(13,15,17)           109.2375                                         !
 ! A27   A(13,15,18)           110.58                                           !
 ! A28   A(16,15,17)           108.0322                                         !
 ! A29   A(16,15,18)           108.501                                          !
 ! A30   A(17,15,18)           113.6006                                         !
 ! A31   A(15,17,21)           123.8362                                         !
 ! A32   A(15,17,37)           112.4116                                         !
 ! A33   A(21,17,37)           123.7409                                         !
 ! A34   A(15,18,19)           109.4781                                         !
 ! A35   A(15,18,20)           106.6965                                         !
 ! A36   A(15,18,22)           109.3552                                         !
 ! A37   A(19,18,20)           106.5117                                         !
 ! A38   A(19,18,22)           111.9701                                         !
 ! A39   A(20,18,22)           112.6436                                         !
 ! A40   A(18,22,23)           127.0254                                         !
 ! A41   A(18,22,25)           125.7145                                         !
 ! A42   A(23,22,25)           106.1003                                         !
 ! A43   A(22,23,24)           128.952                                          !
 ! A44   A(22,23,29)           110.5524                                         !
 ! A45   A(24,23,29)           120.458                                          !
 ! A46   A(22,25,26)           106.743                                          !
 ! A47   A(22,25,27)           134.0784                                         !
 ! A48   A(26,25,27)           119.137                                          !
 ! A49   A(25,26,29)           107.6789                                         !
 ! A50   A(25,26,33)           121.6225                                         !
 ! A51   A(29,26,33)           130.678                                          !
 ! A52   A(25,27,28)           120.7286                                         !
 ! A53   A(25,27,35)           118.9913                                         !
 ! A54   A(28,27,35)           120.2051                                         !
 ! A55   A(23,29,26)           108.9214                                         !
 ! A56   A(23,29,30)           121.158                                          !
 ! A57   A(26,29,30)           129.2365                                         !
 ! A58   A(32,31,33)           119.3418                                         !
 ! A59   A(32,31,35)           119.2673                                         !
 ! A60   A(33,31,35)           121.3847                                         !
 ! A61   A(26,33,31)           117.9364                                         !
 ! A62   A(26,33,34)           120.7826                                         !
 ! A63   A(31,33,34)           121.2794                                         !
 ! A64   A(27,35,31)           120.9149                                         !
 ! A65   A(27,35,36)           119.7024                                         !
 ! A66   A(31,35,36)           119.3485                                         !
 ! A67   A(17,37,38)           117.162                                          !
 ! A68   A(17,37,39)           123.7162                                         !
 ! A69   A(38,37,39)           116.9525                                         !
 ! A70   A(37,39,40)           106.9826                                         !
 ! A71   A(37,39,41)           107.2589                                         !
 ! A72   A(37,39,42)           108.5641                                         !
 ! A73   A(40,39,41)           110.0767                                         !
 ! A74   A(40,39,42)           111.6411                                         !
 ! A75   A(41,39,42)           112.076                                          !
 ! A76   A(39,41,45)           121.9754                                         !
 ! A77   A(39,41,52)           112.2261                                         !
 ! A78   A(45,41,52)           125.6082                                         !
 ! A79   A(39,42,43)           107.8464                                         !
 ! A80   A(39,42,44)           110.5213                                         !
 ! A81   A(39,42,46)           110.3861                                         !
 ! A82   A(43,42,44)           106.0599                                         !
 ! A83   A(43,42,46)           110.7866                                         !
 ! A84   A(44,42,46)           111.1097                                         !
 ! A85   A(42,46,47)           110.1467                                         !
 ! A86   A(42,46,48)           109.6986                                         !
 ! A87   A(42,46,49)           112.0014                                         !
 ! A88   A(47,46,48)           108.6722                                         !
 ! A89   A(47,46,49)           108.9511                                         !
 ! A90   A(48,46,49)           107.275                                          !
 ! A91   A(46,49,50)           125.9224                                         !
 ! A92   A(46,49,51)           112.8963                                         !
 ! A93   A(50,49,51)           121.1657                                         !
 ! A94   A(49,51,121)          108.248                                          !
 ! A95   A(41,52,53)           117.7392                                         !
 ! A96   A(41,52,54)           126.4525                                         !
 ! A97   A(53,52,54)           112.0984                                         !
 ! A98   A(52,54,55)           110.4576                                         !
 ! A99   A(52,54,56)           104.4509                                         !
 ! A100  A(52,54,57)           112.6723                                         !
 ! A101  A(55,54,56)           108.9918                                         !
 ! A102  A(55,54,57)           107.7706                                         !
 ! A103  A(56,54,57)           112.4598                                         !
 ! A104  A(54,56,59)           121.7843                                         !
 ! A105  A(54,56,68)           116.1198                                         !
 ! A106  A(59,56,68)           122.0886                                         !
 ! A107  A(54,57,58)           104.2923                                         !
 ! A108  A(54,57,60)           112.7396                                         !
 ! A109  A(54,57,64)           113.0936                                         !
 ! A110  A(58,57,60)           109.0247                                         !
 ! A111  A(58,57,64)           107.402                                          !
 ! A112  A(60,57,64)           109.9393                                         !
 ! A113  A(57,60,61)           111.3363                                         !
 ! A114  A(57,60,62)           110.1286                                         !
 ! A115  A(57,60,63)           111.3524                                         !
 ! A116  A(61,60,62)           108.2171                                         !
 ! A117  A(61,60,63)           108.5966                                         !
 ! A118  A(62,60,63)           107.061                                          !
 ! A119  A(57,64,65)           110.1555                                         !
 ! A120  A(57,64,66)           112.3371                                         !
 ! A121  A(57,64,67)           109.1697                                         !
 ! A122  A(65,64,66)           109.3964                                         !
 ! A123  A(65,64,67)           108.1448                                         !
 ! A124  A(66,64,67)           107.5156                                         !
 ! A125  A(56,68,69)           120.7031                                         !
 ! A126  A(56,68,70)           122.1522                                         !
 ! A127  A(69,68,70)           116.6304                                         !
 ! A128  A(68,70,71)           110.4309                                         !
 ! A129  A(68,70,72)           111.1096                                         !
 ! A130  A(68,70,73)           109.6909                                         !
 ! A131  A(71,70,72)           110.3837                                         !
 ! A132  A(71,70,73)           110.4074                                         !
 ! A133  A(72,70,73)           104.6811                                         !
 ! A134  A(70,72,75)           120.8646                                         !
 ! A135  A(70,72,82)           114.913                                          !
 ! A136  A(75,72,82)           123.7156                                         !
 ! A137  A(70,73,74)           107.5534                                         !
 ! A138  A(70,73,76)           113.7042                                         !
 ! A139  A(70,73,80)           111.168                                          !
 ! A140  A(74,73,76)           108.4019                                         !
 ! A141  A(74,73,80)           104.5187                                         !
 ! A142  A(76,73,80)           110.9801                                         !
 ! A143  A(73,76,77)           109.1112                                         !
 ! A144  A(73,76,78)           111.8719                                         !
 ! A145  A(73,76,79)           110.2074                                         !
 ! A146  A(77,76,78)           109.5178                                         !
 ! A147  A(77,76,79)           106.9492                                         !
 ! A148  A(78,76,79)           109.0575                                         !
 ! A149  A(73,80,81)           109.4606                                         !
 ! A150  A(72,82,83)           118.4383                                         !
 ! A151  A(72,82,84)           120.3048                                         !
 ! A152  A(83,82,84)           117.7289                                         !
 ! A153  A(82,84,85)           108.0296                                         !
 ! A154  A(82,84,86)           107.9757                                         !
 ! A155  A(82,84,87)           110.5745                                         !
 ! A156  A(85,84,86)           108.7171                                         !
 ! A157  A(85,84,87)           107.7376                                         !
 ! A158  A(86,84,87)           113.6571                                         !
 ! A159  A(84,86,89)           120.1846                                         !
 ! A160  A(84,86,98)           113.2941                                         !
 ! A161  A(89,86,98)           126.507                                          !
 ! A162  A(84,87,88)           105.767                                          !
 ! A163  A(84,87,90)           113.3844                                         !
 ! A164  A(84,87,94)           110.2957                                         !
 ! A165  A(88,87,90)           108.5255                                         !
 ! A166  A(88,87,94)           107.7346                                         !
 ! A167  A(90,87,94)           110.8414                                         !
 ! A168  A(87,90,91)           111.063                                          !
 ! A169  A(87,90,92)           112.72                                           !
 ! A170  A(87,90,93)           109.9919                                         !
 ! A171  A(91,90,92)           107.5875                                         !
 ! A172  A(91,90,93)           108.4575                                         !
 ! A173  A(92,90,93)           106.8353                                         !
 ! A174  A(87,94,95)           111.3606                                         !
 ! A175  A(87,94,96)           110.1645                                         !
 ! A176  A(87,94,97)           111.5435                                         !
 ! A177  A(95,94,96)           107.9214                                         !
 ! A178  A(95,94,97)           107.7424                                         !
 ! A179  A(96,94,97)           107.9623                                         !
 ! A180  A(86,98,99)           121.4987                                         !
 ! A181  A(86,98,100)          131.0452                                         !
 ! A182  A(99,98,100)          107.2865                                         !
 ! A183  A(98,100,101)         110.5035                                         !
 ! A184  A(98,100,102)         105.1507                                         !
 ! A185  A(98,100,103)         113.7634                                         !
 ! A186  A(101,100,102)        107.7327                                         !
 ! A187  A(101,100,103)        109.9177                                         !
 ! A188  A(102,100,103)        109.508                                          !
 ! A189  A(100,102,106)        116.6236                                         !
 ! A190  A(100,102,120)        113.7979                                         !
 ! A191  A(106,102,120)        129.5756                                         !
 ! A192  A(100,103,104)        105.6262                                         !
 ! A193  A(100,103,105)        107.5355                                         !
 ! A194  A(100,103,107)        115.4878                                         !
 ! A195  A(104,103,105)        107.2813                                         !
 ! A196  A(104,103,107)        110.4438                                         !
 ! A197  A(105,103,107)        110.0727                                         !
 ! A198  A(103,107,108)        110.3986                                         !
 ! A199  A(103,107,109)        109.5018                                         !
 ! A200  A(103,107,110)        111.4453                                         !
 ! A201  A(108,107,109)        108.0158                                         !
 ! A202  A(108,107,110)        109.6961                                         !
 ! A203  A(109,107,110)        107.6821                                         !
 ! A204  A(107,110,111)        108.0449                                         !
 ! A205  A(107,110,112)        110.4954                                         !
 ! A206  A(107,110,113)        110.4072                                         !
 ! A207  A(111,110,112)        107.4347                                         !
 ! A208  A(111,110,113)        110.8917                                         !
 ! A209  A(112,110,113)        109.5163                                         !
 ! A210  A(110,113,114)        111.7099                                         !
 ! A211  A(110,113,115)        111.7409                                         !
 ! A212  A(110,113,116)        111.5568                                         !
 ! A213  A(114,113,115)        108.897                                          !
 ! A214  A(114,113,116)        106.0187                                         !
 ! A215  A(115,113,116)        106.6223                                         !
 ! A216  A(113,116,117)        111.7929                                         !
 ! A217  A(113,116,118)        111.664                                          !
 ! A218  A(113,116,119)        110.2913                                         !
 ! A219  A(117,116,118)        107.5517                                         !
 ! A220  A(117,116,119)        107.8956                                         !
 ! A221  A(118,116,119)        107.4565                                         !
 ! D1    D(2,1,5,6)             73.1197                                         !
 ! D2    D(2,1,5,7)            -40.3136                                         !
 ! D3    D(2,1,5,8)           -166.1706                                         !
 ! D4    D(3,1,5,6)            -49.0427                                         !
 ! D5    D(3,1,5,7)           -162.4761                                         !
 ! D6    D(3,1,5,8)             71.667                                          !
 ! D7    D(4,1,5,6)           -173.6791                                         !
 ! D8    D(4,1,5,7)             72.8875                                         !
 ! D9    D(4,1,5,8)            -52.9694                                         !
 ! D10   D(1,5,7,12)            25.2252                                         !
 ! D11   D(1,5,7,13)          -152.7532                                         !
 ! D12   D(6,5,7,12)           -86.85                                           !
 ! D13   D(6,5,7,13)            95.1716                                         !
 ! D14   D(8,5,7,12)           147.3104                                         !
 ! D15   D(8,5,7,13)           -30.6679                                         !
 ! D16   D(1,5,8,9)           -173.637                                          !
 ! D17   D(1,5,8,10)           -55.8648                                         !
 ! D18   D(1,5,8,11)            65.5261                                         !
 ! D19   D(6,5,8,9)            -55.5224                                         !
 ! D20   D(6,5,8,10)            62.2499                                         !
 ! D21   D(6,5,8,11)          -176.3592                                         !
 ! D22   D(7,5,8,9)             69.0507                                         !
 ! D23   D(7,5,8,10)          -173.177                                          !
 ! D24   D(7,5,8,11)           -51.7861                                         !
 ! D25   D(5,7,13,14)          -12.0199                                         !
 ! D26   D(5,7,13,15)         -177.0422                                         !
 ! D27   D(12,7,13,14)         170.188                                          !
 ! D28   D(12,7,13,15)           5.1657                                         !
 ! D29   D(7,13,15,16)          33.1867                                         !
 ! D30   D(7,13,15,17)         -83.3207                                         !
 ! D31   D(7,13,15,18)         150.9488                                         !
 ! D32   D(14,13,15,16)       -132.1448                                         !
 ! D33   D(14,13,15,17)        111.3478                                         !
 ! D34   D(14,13,15,18)        -14.3827                                         !
 ! D35   D(13,15,17,21)       -117.539                                          !
 ! D36   D(13,15,17,37)         63.6463                                         !
 ! D37   D(16,15,17,21)        126.8549                                         !
 ! D38   D(16,15,17,37)        -51.9598                                         !
 ! D39   D(18,15,17,21)          6.4306                                         !
 ! D40   D(18,15,17,37)       -172.3842                                         !
 ! D41   D(13,15,18,19)         73.4203                                         !
 ! D42   D(13,15,18,20)       -171.6932                                         !
 ! D43   D(13,15,18,22)        -49.594                                          !
 ! D44   D(16,15,18,19)       -169.977                                          !
 ! D45   D(16,15,18,20)        -55.0906                                         !
 ! D46   D(16,15,18,22)         67.0086                                         !
 ! D47   D(17,15,18,19)        -49.8176                                         !
 ! D48   D(17,15,18,20)         65.0689                                         !
 ! D49   D(17,15,18,22)       -172.8319                                         !
 ! D50   D(15,17,37,38)          5.2973                                         !
 ! D51   D(15,17,37,39)        168.0135                                         !
 ! D52   D(21,17,37,38)       -173.5188                                         !
 ! D53   D(21,17,37,39)        -10.8025                                         !
 ! D54   D(15,18,22,23)        -79.6666                                         !
 ! D55   D(15,18,22,25)         86.2845                                         !
 ! D56   D(19,18,22,23)        158.8125                                         !
 ! D57   D(19,18,22,25)        -35.2364                                         !
 ! D58   D(20,18,22,23)         38.7892                                         !
 ! D59   D(20,18,22,25)       -155.2596                                         !
 ! D60   D(18,22,23,24)         -8.943                                          !
 ! D61   D(18,22,23,29)        168.7966                                         !
 ! D62   D(25,22,23,24)       -177.1052                                         !
 ! D63   D(25,22,23,29)          0.6344                                         !
 ! D64   D(18,22,25,26)       -168.7534                                         !
 ! D65   D(18,22,25,27)          8.7883                                         !
 ! D66   D(23,22,25,26)         -0.3906                                         !
 ! D67   D(23,22,25,27)        177.151                                          !
 ! D68   D(22,23,29,26)         -0.6422                                         !
 ! D69   D(22,23,29,30)        170.7103                                         !
 ! D70   D(24,23,29,26)        177.3186                                         !
 ! D71   D(24,23,29,30)        -11.3289                                         !
 ! D72   D(22,25,26,29)          0.0175                                         !
 ! D73   D(22,25,26,33)        178.5312                                         !
 ! D74   D(27,25,26,29)       -177.9608                                         !
 ! D75   D(27,25,26,33)          0.5529                                         !
 ! D76   D(22,25,27,28)          6.3126                                         !
 ! D77   D(22,25,27,35)       -176.8301                                         !
 ! D78   D(26,25,27,28)       -176.3828                                         !
 ! D79   D(26,25,27,35)          0.4746                                         !
 ! D80   D(25,26,29,23)          0.3704                                         !
 ! D81   D(25,26,29,30)       -170.0673                                         !
 ! D82   D(33,26,29,23)       -177.9607                                         !
 ! D83   D(33,26,29,30)         11.6015                                         !
 ! D84   D(25,26,33,31)         -1.2465                                         !
 ! D85   D(25,26,33,34)        179.2159                                         !
 ! D86   D(29,26,33,31)        176.8862                                         !
 ! D87   D(29,26,33,34)         -2.6515                                         !
 ! D88   D(25,27,35,31)         -0.783                                          !
 ! D89   D(25,27,35,36)       -178.6432                                         !
 ! D90   D(28,27,35,31)        176.0912                                         !
 ! D91   D(28,27,35,36)         -1.769                                          !
 ! D92   D(32,31,33,26)       -179.9706                                         !
 ! D93   D(32,31,33,34)         -0.4353                                         !
 ! D94   D(35,31,33,26)          0.9391                                         !
 ! D95   D(35,31,33,34)       -179.5256                                         !
 ! D96   D(32,31,35,27)       -179.0228                                         !
 ! D97   D(32,31,35,36)         -1.1551                                         !
 ! D98   D(33,31,35,27)          0.0681                                         !
 ! D99   D(33,31,35,36)        177.9358                                         !
 ! D100  D(17,37,39,40)         26.1621                                         !
 ! D101  D(17,37,39,41)        -91.9198                                         !
 ! D102  D(17,37,39,42)        146.7817                                         !
 ! D103  D(38,37,39,40)       -171.0884                                         !
 ! D104  D(38,37,39,41)         70.8297                                         !
 ! D105  D(38,37,39,42)        -50.4688                                         !
 ! D106  D(37,39,41,45)       -117.6532                                         !
 ! D107  D(37,39,41,52)         57.5979                                         !
 ! D108  D(40,39,41,45)        126.2946                                         !
 ! D109  D(40,39,41,52)        -58.4543                                         !
 ! D110  D(42,39,41,45)          1.4086                                         !
 ! D111  D(42,39,41,52)        176.6597                                         !
 ! D112  D(37,39,42,43)         62.5914                                         !
 ! D113  D(37,39,42,44)        178.1116                                         !
 ! D114  D(37,39,42,46)        -58.5657                                         !
 ! D115  D(40,39,42,43)       -179.7162                                         !
 ! D116  D(40,39,42,44)        -64.196                                          !
 ! D117  D(40,39,42,46)         59.1267                                         !
 ! D118  D(41,39,42,43)        -55.6991                                         !
 ! D119  D(41,39,42,44)         59.8211                                         !
 ! D120  D(41,39,42,46)       -176.8562                                         !
 ! D121  D(39,41,52,53)          3.8044                                         !
 ! D122  D(39,41,52,54)       -152.6722                                         !
 ! D123  D(45,41,52,53)        178.8491                                         !
 ! D124  D(45,41,52,54)         22.3724                                         !
 ! D125  D(39,42,46,47)        -88.924                                          !
 ! D126  D(39,42,46,48)         30.6513                                         !
 ! D127  D(39,42,46,49)        149.6541                                         !
 ! D128  D(43,42,46,47)        151.6846                                         !
 ! D129  D(43,42,46,48)        -88.7401                                         !
 ! D130  D(43,42,46,49)         30.2628                                         !
 ! D131  D(44,42,46,47)         34.0562                                         !
 ! D132  D(44,42,46,48)        153.6315                                         !
 ! D133  D(44,42,46,49)        -87.3656                                         !
 ! D134  D(42,46,49,50)       -105.309                                          !
 ! D135  D(42,46,49,51)         73.2649                                         !
 ! D136  D(47,46,49,50)        132.5834                                         !
 ! D137  D(47,46,49,51)        -48.8427                                         !
 ! D138  D(48,46,49,50)         15.1139                                         !
 ! D139  D(48,46,49,51)       -166.3122                                         !
 ! D140  D(46,49,51,121)      -178.1754                                         !
 ! D141  D(50,49,51,121)         0.4749                                         !
 ! D142  D(41,52,54,55)        -84.1553                                         !
 ! D143  D(41,52,54,56)        158.7912                                         !
 ! D144  D(41,52,54,57)         36.4331                                         !
 ! D145  D(53,52,54,55)        118.2565                                         !
 ! D146  D(53,52,54,56)          1.203                                          !
 ! D147  D(53,52,54,57)       -121.1551                                         !
 ! D148  D(52,54,56,59)        -11.2995                                         !
 ! D149  D(52,54,56,68)        169.6713                                         !
 ! D150  D(55,54,56,59)       -129.36                                           !
 ! D151  D(55,54,56,68)         51.6107                                         !
 ! D152  D(57,54,56,59)        111.1977                                         !
 ! D153  D(57,54,56,68)        -67.8316                                         !
 ! D154  D(52,54,57,58)        -56.4879                                         !
 ! D155  D(52,54,57,60)         61.6445                                         !
 ! D156  D(52,54,57,64)       -172.8562                                         !
 ! D157  D(55,54,57,58)         65.6291                                         !
 ! D158  D(55,54,57,60)       -176.2385                                         !
 ! D159  D(55,54,57,64)        -50.7393                                         !
 ! D160  D(56,54,57,58)       -174.2199                                         !
 ! D161  D(56,54,57,60)        -56.0875                                         !
 ! D162  D(56,54,57,64)         69.4117                                         !
 ! D163  D(54,56,68,69)         -2.83                                           !
 ! D164  D(54,56,68,70)        168.6639                                         !
 ! D165  D(59,56,68,69)        178.144                                          !
 ! D166  D(59,56,68,70)        -10.3621                                         !
 ! D167  D(54,57,60,61)         62.0002                                         !
 ! D168  D(54,57,60,62)       -177.9588                                         !
 ! D169  D(54,57,60,63)        -59.3526                                         !
 ! D170  D(58,57,60,61)        177.3192                                         !
 ! D171  D(58,57,60,62)        -62.6398                                         !
 ! D172  D(58,57,60,63)         55.9664                                         !
 ! D173  D(64,57,60,61)        -65.1895                                         !
 ! D174  D(64,57,60,62)         54.8514                                         !
 ! D175  D(64,57,60,63)        173.4577                                         !
 ! D176  D(54,57,64,65)        -77.3263                                         !
 ! D177  D(54,57,64,66)         44.901                                          !
 ! D178  D(54,57,64,67)        164.0659                                         !
 ! D179  D(58,57,64,65)        168.1613                                         !
 ! D180  D(58,57,64,66)        -69.6114                                         !
 ! D181  D(58,57,64,67)         49.5536                                         !
 ! D182  D(60,57,64,65)         49.6655                                         !
 ! D183  D(60,57,64,66)        171.8929                                         !
 ! D184  D(60,57,64,67)        -68.9422                                         !
 ! D185  D(56,68,70,71)         77.596                                          !
 ! D186  D(56,68,70,72)        -45.2398                                         !
 ! D187  D(56,68,70,73)       -160.4983                                         !
 ! D188  D(69,68,70,71)       -110.5834                                         !
 ! D189  D(69,68,70,72)        126.5807                                         !
 ! D190  D(69,68,70,73)         11.3222                                         !
 ! D191  D(68,70,72,75)        -33.5832                                         !
 ! D192  D(68,70,72,82)        154.289                                          !
 ! D193  D(71,70,72,75)       -156.4463                                         !
 ! D194  D(71,70,72,82)         31.426                                          !
 ! D195  D(73,70,72,75)         84.7448                                         !
 ! D196  D(73,70,72,82)        -87.3829                                         !
 ! D197  D(68,70,73,74)         92.7318                                         !
 ! D198  D(68,70,73,76)       -147.2358                                         !
 ! D199  D(68,70,73,80)        -21.1253                                         !
 ! D200  D(71,70,73,74)       -145.3486                                         !
 ! D201  D(71,70,73,76)        -25.3161                                         !
 ! D202  D(71,70,73,80)        100.7944                                         !
 ! D203  D(72,70,73,74)        -26.5557                                         !
 ! D204  D(72,70,73,76)         93.4767                                         !
 ! D205  D(72,70,73,80)       -140.4128                                         !
 ! D206  D(70,72,82,83)         -4.9941                                         !
 ! D207  D(70,72,82,84)        153.3494                                         !
 ! D208  D(75,72,82,83)       -176.8686                                         !
 ! D209  D(75,72,82,84)        -18.5251                                         !
 ! D210  D(70,73,76,77)        -65.4791                                         !
 ! D211  D(70,73,76,78)         55.8604                                         !
 ! D212  D(70,73,76,79)        177.3723                                         !
 ! D213  D(74,73,76,77)         54.0725                                         !
 ! D214  D(74,73,76,78)        175.412                                          !
 ! D215  D(74,73,76,79)        -63.0762                                         !
 ! D216  D(80,73,76,77)        168.3114                                         !
 ! D217  D(80,73,76,78)        -70.3491                                         !
 ! D218  D(80,73,76,79)         51.1627                                         !
 ! D219  D(70,73,80,81)        -91.4701                                         !
 ! D220  D(74,73,80,81)        152.7849                                         !
 ! D221  D(76,73,80,81)         36.1341                                         !
 ! D222  D(72,82,84,85)         73.3365                                         !
 ! D223  D(72,82,84,86)        -44.0757                                         !
 ! D224  D(72,82,84,87)       -168.9922                                         !
 ! D225  D(83,82,84,85)       -128.1702                                         !
 ! D226  D(83,82,84,86)        114.4175                                         !
 ! D227  D(83,82,84,87)        -10.499                                          !
 ! D228  D(82,84,86,89)        -34.9446                                         !
 ! D229  D(82,84,86,98)        143.7657                                         !
 ! D230  D(85,84,86,89)       -151.9123                                         !
 ! D231  D(85,84,86,98)         26.798                                          !
 ! D232  D(87,84,86,89)         88.1136                                         !
 ! D233  D(87,84,86,98)        -93.1761                                         !
 ! D234  D(82,84,87,88)        -54.6914                                         !
 ! D235  D(82,84,87,90)         64.1107                                         !
 ! D236  D(82,84,87,94)       -170.9159                                         !
 ! D237  D(85,84,87,88)         63.1588                                         !
 ! D238  D(85,84,87,90)       -178.0391                                         !
 ! D239  D(85,84,87,94)        -53.0656                                         !
 ! D240  D(86,84,87,88)       -176.314                                          !
 ! D241  D(86,84,87,90)        -57.5119                                         !
 ! D242  D(86,84,87,94)         67.4615                                         !
 ! D243  D(84,86,98,99)          6.7776                                         !
 ! D244  D(84,86,98,100)      -167.8491                                         !
 ! D245  D(89,86,98,99)       -174.6094                                         !
 ! D246  D(89,86,98,100)        10.7639                                         !
 ! D247  D(84,87,90,91)         58.7114                                         !
 ! D248  D(84,87,90,92)        -62.1055                                         !
 ! D249  D(84,87,90,93)        178.7867                                         !
 ! D250  D(88,87,90,91)        175.9127                                         !
 ! D251  D(88,87,90,92)         55.0959                                         !
 ! D252  D(88,87,90,93)        -64.012                                          !
 ! D253  D(94,87,90,91)        -65.9677                                         !
 ! D254  D(94,87,90,92)        173.2154                                         !
 ! D255  D(94,87,90,93)         54.1076                                         !
 ! D256  D(84,87,94,95)        -67.322                                          !
 ! D257  D(84,87,94,96)        172.9682                                         !
 ! D258  D(84,87,94,97)         53.0886                                         !
 ! D259  D(88,87,94,95)        177.6893                                         !
 ! D260  D(88,87,94,96)         57.9795                                         !
 ! D261  D(88,87,94,97)        -61.9001                                         !
 ! D262  D(90,87,94,95)         59.09                                           !
 ! D263  D(90,87,94,96)        -60.6198                                         !
 ! D264  D(90,87,94,97)        179.5006                                         !
 ! D265  D(86,98,100,101)      -74.7625                                         !
 ! D266  D(86,98,100,102)      169.2522                                         !
 ! D267  D(86,98,100,103)       49.4353                                         !
 ! D268  D(99,98,100,101)      110.0344                                         !
 ! D269  D(99,98,100,102)       -5.951                                          !
 ! D270  D(99,98,100,103)     -125.7678                                         !
 ! D271  D(98,100,102,106)    -167.5326                                         !
 ! D272  D(98,100,102,120)      11.9136                                         !
 ! D273  D(101,100,102,106)     74.5912                                         !
 ! D274  D(101,100,102,120)   -105.9626                                         !
 ! D275  D(103,100,102,106)    -44.929                                          !
 ! D276  D(103,100,102,120)    134.5171                                         !
 ! D277  D(98,100,103,104)     152.3936                                         !
 ! D278  D(98,100,103,105)      38.0709                                         !
 ! D279  D(98,100,103,107)     -85.2534                                         !
 ! D280  D(101,100,103,104)    -83.0931                                         !
 ! D281  D(101,100,103,105)    162.5842                                         !
 ! D282  D(101,100,103,107)     39.2599                                         !
 ! D283  D(102,100,103,104)     35.0746                                         !
 ! D284  D(102,100,103,105)    -79.2481                                         !
 ! D285  D(102,100,103,107)    157.4276                                         !
 ! D286  D(100,103,107,108)   -102.9392                                         !
 ! D287  D(100,103,107,109)     15.8608                                         !
 ! D288  D(100,103,107,110)    134.8931                                         !
 ! D289  D(104,103,107,108)     16.8073                                         !
 ! D290  D(104,103,107,109)    135.6072                                         !
 ! D291  D(104,103,107,110)   -105.3605                                         !
 ! D292  D(105,103,107,108)    135.085                                          !
 ! D293  D(105,103,107,109)   -106.1151                                         !
 ! D294  D(105,103,107,110)     12.9173                                         !
 ! D295  D(103,107,110,111)    -54.4122                                         !
 ! D296  D(103,107,110,112)     62.8582                                         !
 ! D297  D(103,107,110,113)   -175.8364                                         !
 ! D298  D(108,107,110,111)   -176.9843                                         !
 ! D299  D(108,107,110,112)    -59.714                                          !
 ! D300  D(108,107,110,113)     61.5914                                         !
 ! D301  D(109,107,110,111)     65.699                                          !
 ! D302  D(109,107,110,112)   -177.0307                                         !
 ! D303  D(109,107,110,113)    -55.7253                                         !
 ! D304  D(107,110,113,114)     57.3325                                         !
 ! D305  D(107,110,113,115)    -64.9477                                         !
 ! D306  D(107,110,113,116)    175.7992                                         !
 ! D307  D(111,110,113,114)    -62.388                                          !
 ! D308  D(111,110,113,115)    175.3317                                         !
 ! D309  D(111,110,113,116)     56.0787                                         !
 ! D310  D(112,110,113,114)    179.2175                                         !
 ! D311  D(112,110,113,115)     56.9372                                         !
 ! D312  D(112,110,113,116)    -62.3158                                         !
 ! D313  D(110,113,116,117)    157.8962                                         !
 ! D314  D(110,113,116,118)    -81.5544                                         !
 ! D315  D(110,113,116,119)     37.8524                                         !
 ! D316  D(114,113,116,117)    -80.2864                                         !
 ! D317  D(114,113,116,118)     40.2631                                         !
 ! D318  D(114,113,116,119)    159.6698                                         !
 ! D319  D(115,113,116,117)     35.6489                                         !
 ! D320  D(115,113,116,118)    156.1984                                         !
 ! D321  D(115,113,116,119)    -84.3949                                         !
 --------------------------------------------------------------------------------
 Symmetry turned off by external request.
 Stoichiometry    C39H62N9O11(1+)
 Framework group  C1[X(C39H62N9O11)]
 Deg. of freedom   357
 Full point group                 C1      NOp   1
                          Input orientation:                          
 ---------------------------------------------------------------------
 Center     Atomic      Atomic             Coordinates (Angstroms)
 Number     Number       Type             X           Y           Z
 ---------------------------------------------------------------------
      1          7           0       -5.546653   -1.750710   -0.897390
      2          1           0       -5.151412   -0.821345   -0.670130
      3          1           0       -6.431763   -1.911342   -0.411382
      4          1           0       -5.712364   -1.719887   -1.933643
      5          6           0       -4.475997   -2.749136   -0.521204
      6          1           0       -4.461108   -2.787666    0.573377
      7          6           0       -3.187135   -2.047921   -0.995680
      8          6           0       -4.770037   -4.123487   -1.104197
      9          1           0       -4.043542   -4.849735   -0.724511
     10          1           0       -5.760148   -4.473110   -0.794475
     11          1           0       -4.724196   -4.111153   -2.197625
     12          8           0       -3.212173   -0.805178   -1.070867
     13          7           0       -2.158497   -2.817834   -1.328898
     14          1           0       -2.188406   -3.804778   -1.088016
     15          6           0       -0.846872   -2.278947   -1.738185
     16          1           0       -0.698737   -1.353195   -1.173412
     17          6           0       -0.889750   -1.922535   -3.233915
     18          6           0        0.275300   -3.256759   -1.372284
     19          1           0        0.249105   -4.114259   -2.053421
     20          1           0        1.218827   -2.737556   -1.562356
     21          8           0       -0.184904   -2.452705   -4.080528
     22          6           0        0.124190   -3.672833    0.058398
     23          6           0        0.504112   -2.957833    1.176757
     24          1           0        1.086728   -2.048193    1.236973
     25          6           0       -0.692848   -4.756058    0.536023
     26          6           0       -0.751594   -4.631156    1.960044
     27          6           0       -1.414777   -5.791109   -0.092660
     28          1           0       -1.342300   -5.946473   -1.168809
     29          7           0       -0.009440   -3.531702    2.313032
     30          1           0        0.289022   -3.213901    3.260075
     31          6           0       -2.212060   -6.519602    2.094873
     32          1           0       -2.799739   -7.219730    2.681140
     33          6           0       -1.498480   -5.517641    2.744215
     34          1           0       -1.523326   -5.417822    3.825161
     35          6           0       -2.173507   -6.657472    0.690938
     36          1           0       -2.716718   -7.472668    0.220748
     37          7           0       -1.783947   -0.930508   -3.506328
     38          1           0       -2.245350   -0.490861   -2.713784
     39          6           0       -1.849348   -0.229492   -4.779427
     40          1           0       -1.450784   -0.909090   -5.539501
     41          6           0       -0.944087    1.027508   -4.660512
     42          6           0       -3.309448    0.137225   -5.059587
     43          1           0       -3.642143    0.819403   -4.268786
     44          1           0       -3.391268    0.695443   -5.994128
     45          8           0       -1.394257    2.163086   -4.758634
     46          6           0       -4.190515   -1.139208   -5.092245
     47          1           0       -4.218546   -1.552064   -6.105418
     48          1           0       -3.773673   -1.891362   -4.419756
     49          6           0       -5.595913   -0.864708   -4.638241
     50          8           0       -6.078659   -1.183660   -3.553911
     51          8           0       -6.309337   -0.186758   -5.539050
     52          7           0        0.338789    0.709160   -4.339877
     53          1           0        0.580094   -0.278959   -4.273919
     54          6           0        1.287629    1.553541   -3.627578
     55          1           0        1.785598    2.244042   -4.323668
     56          6           0        2.334381    0.566464   -3.063370
     57          6           0        0.610676    2.409617   -2.509187
     58          1           0       -0.165556    2.972794   -3.033167
     59          8           0        2.151930   -0.646359   -3.077104
     60          6           0       -0.043000    1.552054   -1.421045
     61          1           0        0.697415    0.934560   -0.902054
     62          1           0       -0.534326    2.192815   -0.680379
     63          1           0       -0.810413    0.898302   -1.838050
     64          6           0        1.565830    3.429464   -1.869465
     65          1           0        2.235931    2.927454   -1.162734
     66          1           0        2.162541    3.969056   -2.617607
     67          1           0        0.980288    4.173017   -1.315559
     68          7           0        3.453799    1.120622   -2.535413
     69          1           0        3.594973    2.118326   -2.560083
     70          6           0        4.400607    0.351954   -1.762573
     71          1           0        5.033552   -0.254493   -2.424745
     72          6           0        3.678920   -0.548777   -0.734185
     73          6           0        5.279303    1.313374   -0.899182
     74          1           0        4.801582    1.409035    0.075085
     75          8           0        2.635554   -0.183337   -0.199206
     76          6           0        6.697341    0.820313   -0.690440
     77          1           0        6.673607   -0.094815   -0.096471
     78          1           0        7.207033    0.626210   -1.642744
     79          1           0        7.273357    1.555994   -0.120221
     80          8           0        5.271720    2.667276   -1.445015
     81          1           0        6.013362    2.770887   -2.063973
     82          7           0        4.363806   -1.652473   -0.365211
     83          1           0        5.238930   -1.852737   -0.828239
     84          6           0        4.131632   -2.261539    0.943060
     85          1           0        3.162613   -2.766619    0.913953
     86          6           0        4.068630   -1.121410    1.998894
     87          6           0        5.208974   -3.327108    1.244802
     88          1           0        5.186841   -4.023847    0.393867
     89          8           0        4.786900   -0.113546    1.874597
     90          6           0        6.624756   -2.745752    1.362439
     91          1           0        6.675515   -1.991314    2.152839
     92          1           0        6.968413   -2.275295    0.432401
     93          1           0        7.338049   -3.542199    1.597228
     94          6           0        4.836969   -4.117769    2.506051
     95          1           0        4.880467   -3.486847    3.399402
     96          1           0        5.532442   -4.950832    2.647913
     97          1           0        3.824516   -4.530735    2.437956
     98          7           0        3.182472   -1.347622    2.965328
     99          1           0        2.686382   -2.245266    3.040058
    100          6           0        2.640869   -0.464655    3.997293
    101          1           0        3.385062   -0.293780    4.786716
    102          6           0        1.431959   -1.268629    4.638442
    103          6           0        2.133569    0.879153    3.457374
    104          1           0        1.352239    1.198808    4.150771
    105          1           0        1.652147    0.686381    2.490102
    106          8           0        0.672638   -0.632653    5.370388
    107          6           0        3.203797    1.980785    3.306171
    108          1           0        3.124870    2.706255    4.126655
    109          1           0        4.198260    1.531121    3.347365
    110          6           0        3.075761    2.706450    1.960027
    111          1           0        3.103636    1.953486    1.164554
    112          1           0        2.106885    3.222655    1.891397
    113          6           0        4.200575    3.713810    1.792151
    114          1           0        5.181960    3.240081    1.868120
    115          1           0        4.137545    4.517400    2.529604
    116          7           0        4.158454    4.378663    0.416217
    117          1           0        4.647908    5.278494    0.413515
    118          1           0        4.602468    3.773785   -0.321141
    119          1           0        3.187126    4.547266    0.132111
    120          8           0        1.392633   -2.500739    4.296972
    121          1           0       -7.196331   -0.020953   -5.164834
 ---------------------------------------------------------------------
 Rotational constants (GHZ):           0.0535909           0.0350128           0.0261410
 Standard basis: 6-31G(d) (6D, 7F)
  1009 basis functions,  1900 primitive gaussians,  1009 cartesian basis functions
   223 alpha electrons      223 beta electrons
       nuclear repulsion energy      9905.7806721328 Hartrees.
 NAtoms=  121 NActive=  121 NUniq=  121 SFac= 1.00D+00 NAtFMM=   60 NAOKFM=T Big=T
 Integral buffers will be    131072 words long.
 Raffenetti 2 integral format.
 Two-electron integral symmetry is turned off.
 Nuclear repulsion after empirical dispersion term =     9905.4832344753 Hartrees.
 One-electron integrals computed using PRISM.
 NBasis=  1009 RedAO= T EigKep=  3.81D-04  NBF=  1009
 NBsUse=  1009 1.00D-06 EigRej= -1.00D+00 NBFU=  1009
 Initial guess from the checkpoint file:  "conf-727.chk"
 B after Tr=     0.000000    0.000000    0.000000
         Rot=    1.000000    0.000000    0.000000    0.000000 Ang=   0.00 deg.
 Requested convergence on RMS density matrix=1.00D-08 within 128 cycles.
 Requested convergence on MAX density matrix=1.00D-06.
 Requested convergence on             energy=1.00D-06.
 No special actions if energy rises.
 SCF Done:  E(RB3LYP) =  -2843.90513037     A.U. after    3 cycles
            NFock=  3  Conv=0.50D-09     -V/T= 2.0093
 Hyperfine terms turned off by default for NAtoms > 100.

 **********************************************************************

            Population analysis using the SCF Density.

 **********************************************************************

 Alpha  occ. eigenvalues --  -19.30836 -19.30418 -19.26371 -19.24658 -19.20580
 Alpha  occ. eigenvalues --  -19.19834 -19.19814 -19.19220 -19.16552 -19.11090
 Alpha  occ. eigenvalues --  -19.09640 -14.57916 -14.56815 -14.47804 -14.45115
 Alpha  occ. eigenvalues --  -14.43876 -14.43696 -14.42458 -14.40351 -14.39162
 Alpha  occ. eigenvalues --  -10.44034 -10.41541 -10.38642 -10.37570 -10.37014
 Alpha  occ. eigenvalues --  -10.36705 -10.36368 -10.36206 -10.35903 -10.33509
 Alpha  occ. eigenvalues --  -10.33239 -10.31842 -10.31776 -10.31532 -10.31100
 Alpha  occ. eigenvalues --  -10.29700 -10.29134 -10.28608 -10.28599 -10.28394
 Alpha  occ. eigenvalues --  -10.28245 -10.27996 -10.27750 -10.26509 -10.26139
 Alpha  occ. eigenvalues --  -10.26104 -10.25626 -10.25029 -10.24608 -10.24478
 Alpha  occ. eigenvalues --  -10.24435 -10.24026 -10.23984 -10.23837 -10.23826
 Alpha  occ. eigenvalues --  -10.23694 -10.23160 -10.22696 -10.22167  -1.22262
 Alpha  occ. eigenvalues --   -1.16971  -1.16685  -1.13234  -1.13035  -1.12310
 Alpha  occ. eigenvalues --   -1.12010  -1.11551  -1.11163  -1.10691  -1.07658
 Alpha  occ. eigenvalues --   -1.04494  -1.03873  -1.01889  -1.01570  -1.01372
 Alpha  occ. eigenvalues --   -1.00316  -0.99385  -0.96679  -0.94715  -0.91274
 Alpha  occ. eigenvalues --   -0.89954  -0.89676  -0.89510  -0.89009  -0.88298
 Alpha  occ. eigenvalues --   -0.86930  -0.86685  -0.83786  -0.82563  -0.82086
 Alpha  occ. eigenvalues --   -0.81455  -0.79292  -0.79232  -0.78384  -0.77947
 Alpha  occ. eigenvalues --   -0.77222  -0.76899  -0.75881  -0.74387  -0.74197
 Alpha  occ. eigenvalues --   -0.73598  -0.72782  -0.72307  -0.71592  -0.71179
 Alpha  occ. eigenvalues --   -0.70968  -0.70119  -0.69553  -0.68790  -0.68609
 Alpha  occ. eigenvalues --   -0.67996  -0.67261  -0.66908  -0.66843  -0.65153
 Alpha  occ. eigenvalues --   -0.64363  -0.63929  -0.63772  -0.63450  -0.62635
 Alpha  occ. eigenvalues --   -0.62210  -0.61628  -0.61369  -0.60809  -0.60538
 Alpha  occ. eigenvalues --   -0.60232  -0.59908  -0.59428  -0.59087  -0.58613
 Alpha  occ. eigenvalues --   -0.58087  -0.57741  -0.57455  -0.57065  -0.56717
 Alpha  occ. eigenvalues --   -0.56147  -0.55894  -0.55659  -0.55317  -0.54859
 Alpha  occ. eigenvalues --   -0.54612  -0.53955  -0.53668  -0.53463  -0.52991
 Alpha  occ. eigenvalues --   -0.52784  -0.52597  -0.52274  -0.52013  -0.51626
 Alpha  occ. eigenvalues --   -0.51574  -0.51146  -0.50979  -0.50651  -0.50524
 Alpha  occ. eigenvalues --   -0.50326  -0.50224  -0.49926  -0.49497  -0.49323
 Alpha  occ. eigenvalues --   -0.49105  -0.49049  -0.48688  -0.48594  -0.48498
 Alpha  occ. eigenvalues --   -0.48261  -0.47656  -0.47463  -0.47257  -0.46617
 Alpha  occ. eigenvalues --   -0.46412  -0.46325  -0.46038  -0.45719  -0.45630
 Alpha  occ. eigenvalues --   -0.45536  -0.45466  -0.45301  -0.45113  -0.44952
 Alpha  occ. eigenvalues --   -0.44532  -0.44391  -0.44047  -0.43812  -0.43649
 Alpha  occ. eigenvalues --   -0.43443  -0.43341  -0.42838  -0.42724  -0.42432
 Alpha  occ. eigenvalues --   -0.41976  -0.41611  -0.41186  -0.40957  -0.40650
 Alpha  occ. eigenvalues --   -0.40205  -0.39994  -0.39746  -0.39727  -0.39469
 Alpha  occ. eigenvalues --   -0.39140  -0.38735  -0.38633  -0.38334  -0.38222
 Alpha  occ. eigenvalues --   -0.38117  -0.37127  -0.35595  -0.35469  -0.34386
 Alpha  occ. eigenvalues --   -0.33983  -0.33194  -0.33023  -0.32687  -0.32385
 Alpha  occ. eigenvalues --   -0.31415  -0.30494  -0.29667  -0.27368  -0.26219
 Alpha  occ. eigenvalues --   -0.25999  -0.25205  -0.23790
 Alpha virt. eigenvalues --   -0.11156  -0.10841  -0.09854  -0.07734  -0.07339
 Alpha virt. eigenvalues --   -0.07020  -0.06658  -0.06494  -0.04875  -0.04277
 Alpha virt. eigenvalues --   -0.04022  -0.03301  -0.02947  -0.02654  -0.01731
 Alpha virt. eigenvalues --   -0.01635  -0.00984  -0.00878  -0.00602   0.00098
 Alpha virt. eigenvalues --    0.00468   0.00545   0.01520   0.02041   0.02192
 Alpha virt. eigenvalues --    0.02526   0.03015   0.03187   0.03585   0.03776
 Alpha virt. eigenvalues --    0.03879   0.03986   0.04340   0.04938   0.05028
[...]
 Alpha virt. eigenvalues --    0.87719   0.87974   0.88082   0.88857   0.89112
 Alpha virt. eigenvalues --    0.89581   0.89923   0.90358   0.90538   0.91036
 Alpha virt. eigenvalues --    0.91482   0.92152   0.92284   0.92538   0.92945
 Alpha virt. eigenvalues --    0.93275   0.93602   0.93903   0.94477   0.95053
 Alpha virt. eigenvalues --    0.95474   0.95853   0.96138   0.96289   0.96594
 Alpha virt. eigenvalues --    0.96849   0.97223   0.97877   0.98227   0.98342
 Alpha virt. eigenvalues --    0.98709   0.99220   0.99568   1.00685   1.01158
 Alpha virt. eigenvalues --    1.01516   1.01681   1.02061   1.02368   1.02667
 Alpha virt. eigenvalues --    1.03354   1.04114   1.04355   1.04742   1.05232
 Alpha virt. eigenvalues --    1.05974   1.06124   1.06769   1.07002   1.07335
 Alpha virt. eigenvalues --    1.08161   1.08759   1.08774   1.09382   1.09879
 Alpha virt. eigenvalues --    1.10874   1.11329   1.11597   1.11986   1.13194
 Alpha virt. eigenvalues --    1.13452   1.13636   1.14038   1.14166   1.14700
 Alpha virt. eigenvalues --    1.15313   1.15903   1.16280   1.16564   1.17388
 Alpha virt. eigenvalues --    1.18712   1.18916   1.19307   1.19814   1.20292
 Alpha virt. eigenvalues --    1.20704   1.21375   1.21988   1.22757   1.22878
 Alpha virt. eigenvalues --    1.23881   1.23981   1.25017   1.25259   1.25814
 Alpha virt. eigenvalues --    1.26444   1.27259   1.27922   1.28222   1.28590
 Alpha virt. eigenvalues --    1.28720   1.29192   1.29317   1.29888   1.30108
 Alpha virt. eigenvalues --    1.30899   1.31406   1.32217   1.33114   1.33417
 Alpha virt. eigenvalues --    1.33634   1.34424   1.34650   1.35336   1.35923
 Alpha virt. eigenvalues --    1.36031   1.36567   1.37026   1.37094   1.37345
 Alpha virt. eigenvalues --    1.38761   1.39208   1.39694   1.40232   1.41076
 Alpha virt. eigenvalues --    1.41558   1.41895   1.42012   1.42574   1.42920
 Alpha virt. eigenvalues --    1.44148   1.44419   1.44645   1.45089   1.45714
 Alpha virt. eigenvalues --    1.46307   1.47025   1.47489   1.47742   1.48553
 Alpha virt. eigenvalues --    1.49027   1.49438   1.49482   1.50282   1.50522
 Alpha virt. eigenvalues --    1.51184   1.52186   1.52532   1.53550   1.53925
 Alpha virt. eigenvalues --    1.54221   1.54760   1.55369   1.55997   1.56085
 Alpha virt. eigenvalues --    1.56416   1.57512   1.58562   1.59098   1.60165
 Alpha virt. eigenvalues --    1.60365   1.61201   1.61256   1.62050   1.62571
 Alpha virt. eigenvalues --    1.63514   1.64049   1.64233   1.64475   1.64694
 Alpha virt. eigenvalues --    1.65320   1.65795   1.66198   1.66572   1.67127
 Alpha virt. eigenvalues --    1.67752   1.67941   1.68544   1.68957   1.69066
 Alpha virt. eigenvalues --    1.69513   1.70051   1.70401   1.71022   1.71421
 Alpha virt. eigenvalues --    1.71622   1.71965   1.72087   1.72114   1.72602
 Alpha virt. eigenvalues --    1.72944   1.73073   1.73593   1.73675   1.74300
 Alpha virt. eigenvalues --    1.74999   1.75045   1.75317   1.75993   1.76202
 Alpha virt. eigenvalues --    1.76481   1.77193   1.77426   1.77810   1.78025
 Alpha virt. eigenvalues --    1.78429   1.78952   1.78983   1.79312   1.79715
 Alpha virt. eigenvalues --    1.80116   1.80306   1.80827   1.81455   1.81850
 Alpha virt. eigenvalues --    1.82177   1.82819   1.83039   1.83388   1.83603
 Alpha virt. eigenvalues --    1.84284   1.84558   1.84825   1.85215   1.85635
 Alpha virt. eigenvalues --    1.85711   1.86196   1.86445   1.86591   1.86934
 Alpha virt. eigenvalues --    1.87247   1.87922   1.88176   1.88475   1.88875
 Alpha virt. eigenvalues --    1.88932   1.89486   1.89833   1.90127   1.90424
 Alpha virt. eigenvalues --    1.90719   1.91681   1.91882   1.91989   1.92477
 Alpha virt. eigenvalues --    1.92561   1.93522   1.94166   1.94461   1.94808
 Alpha virt. eigenvalues --    1.94874   1.95372   1.95781   1.96236   1.96646
 Alpha virt. eigenvalues --    1.97034   1.97499   1.98064   1.98304   1.98849
 Alpha virt. eigenvalues --    1.99063   1.99876   2.00306   2.00438   2.00628
 Alpha virt. eigenvalues --    2.01191   2.01651   2.02175   2.02748   2.02945
 Alpha virt. eigenvalues --    2.03268   2.03562   2.03882   2.04404   2.04780
 Alpha virt. eigenvalues --    2.05377   2.05695   2.06142   2.06801   2.07137
 Alpha virt. eigenvalues --    2.07601   2.07875   2.08419   2.09072   2.09517
 Alpha virt. eigenvalues --    2.09714   2.10665   2.10989   2.11493   2.11933
 Alpha virt. eigenvalues --    2.12499   2.13080   2.13246   2.13638   2.13785
 Alpha virt. eigenvalues --    2.14689   2.15119   2.15335   2.16053   2.16587
 Alpha virt. eigenvalues --    2.16786   2.17620   2.18503   2.18879   2.19291
 Alpha virt. eigenvalues --    2.20057   2.20807   2.20969   2.21117   2.21517
 Alpha virt. eigenvalues --    2.22066   2.22429   2.23184   2.23393   2.23759
 Alpha virt. eigenvalues --    2.24094   2.24587   2.24911   2.25696   2.26175
 Alpha virt. eigenvalues --    2.26320   2.27899   2.28488   2.28916   2.29265
 Alpha virt. eigenvalues --    2.29358   2.30551   2.31013   2.31222   2.31488
 Alpha virt. eigenvalues --    2.31957   2.32795   2.33270   2.33406   2.34092
 Alpha virt. eigenvalues --    2.34672   2.35071   2.35232   2.36092   2.36499
 Alpha virt. eigenvalues --    2.37029   2.37935   2.38487   2.38671   2.39159
 Alpha virt. eigenvalues --    2.39664   2.40786   2.41675   2.42388   2.42591
 Alpha virt. eigenvalues --    2.43659   2.44251   2.44502   2.44738   2.45220
 Alpha virt. eigenvalues --    2.45832   2.46365   2.46969   2.47425   2.47827
 Alpha virt. eigenvalues --    2.47979   2.48619   2.49276   2.50816   2.51166
 Alpha virt. eigenvalues --    2.52463   2.52660   2.53316   2.53852   2.54348
 Alpha virt. eigenvalues --    2.54882   2.54981   2.55732   2.57442   2.57807
 Alpha virt. eigenvalues --    2.58383   2.59211   2.59732   2.60187   2.60920
 Alpha virt. eigenvalues --    2.61686   2.62121   2.62685   2.63084   2.63494
 Alpha virt. eigenvalues --    2.64069   2.64784   2.65000   2.65738   2.67260
 Alpha virt. eigenvalues --    2.68196   2.69114   2.69191   2.69366   2.72021
 Alpha virt. eigenvalues --    2.72689   2.73082   2.73613   2.73998   2.74482
 Alpha virt. eigenvalues --    2.75568   2.76591   2.77335   2.78800   2.79520
 Alpha virt. eigenvalues --    2.80340   2.81394   2.83695   2.84128   2.84572
 Alpha virt. eigenvalues --    2.86290   2.87690   2.88962   2.89110   2.89766
 Alpha virt. eigenvalues --    2.89932   2.91097   2.91970   2.94299   2.94891
 Alpha virt. eigenvalues --    2.95057   2.95367   2.96901   2.98749   2.99648
 Alpha virt. eigenvalues --    3.01013   3.05390   3.05872   3.08701   3.10610
 Alpha virt. eigenvalues --    3.10908   3.12112   3.14078   3.16482   3.20661
 Alpha virt. eigenvalues --    3.22509   3.38426   3.70092   3.72831   3.77634
 Alpha virt. eigenvalues --    3.89231   3.91730   3.93466   3.97206   3.97515
 Alpha virt. eigenvalues --    3.98478   4.00067   4.00705   4.03323   4.03911
 Alpha virt. eigenvalues --    4.05019   4.05175   4.06289   4.08082   4.09381
 Alpha virt. eigenvalues --    4.10824   4.12387   4.13597   4.15156   4.16507
 Alpha virt. eigenvalues --    4.17030   4.18185   4.18883   4.19414   4.21087
 Alpha virt. eigenvalues --    4.22410   4.23851   4.24892   4.26013   4.27648
 Alpha virt. eigenvalues --    4.29743   4.31451   4.33150   4.34394   4.35206
 Alpha virt. eigenvalues --    4.36294   4.38290   4.39641   4.41006   4.43698
 Alpha virt. eigenvalues --    4.43727   4.45738   4.47685   4.51434   4.51750
 Alpha virt. eigenvalues --    4.53147   4.53539   4.56051   4.58180   4.59088
 Alpha virt. eigenvalues --    4.62915   4.64199   4.65910   4.69254   4.71492
 Alpha virt. eigenvalues --    4.75468
          Condensed to atoms (all electrons):
 Mulliken charges:
               1
     1  N   -0.760540
     2  H    0.417940
     3  H    0.402164
     4  H    0.443773
     5  C   -0.126952
     6  H    0.240697
     7  C    0.667659
     8  C   -0.491068
     9  H    0.220991
    10  H    0.182185
    11  H    0.186365
    12  O   -0.573911
    13  N   -0.606138
    14  H    0.376107
    15  C   -0.082879
    16  H    0.210803
    17  C    0.641148
    18  C   -0.404954
    19  H    0.171471
    20  H    0.206784
    21  O   -0.514853
    22  C    0.024732
    23  C   -0.024149
    24  H    0.185195
    25  C    0.056720
    26  C    0.310932
    27  C   -0.273594
    28  H    0.128370
    29  N   -0.690089
    30  H    0.403148
    31  C   -0.162441
    32  H    0.133694
    33  C   -0.162742
    34  H    0.156843
    35  C   -0.147971
    36  H    0.126367
    37  N   -0.640959
    38  H    0.389265
    39  C   -0.087303
    40  H    0.198953
    41  C    0.624358
    42  C   -0.285140
    43  H    0.166542
    44  H    0.194629
    45  O   -0.520687
    46  C   -0.339489
    47  H    0.198205
    48  H    0.177523
    49  C    0.584227
    50  O   -0.522874
    51  O   -0.518635
    52  N   -0.652985
    53  H    0.396411
    54  C   -0.025345
    55  H    0.161196
    56  C    0.634965
    57  C   -0.088832
    58  H    0.197251
    59  O   -0.526092
    60  C   -0.504956
    61  H    0.209614
    62  H    0.146130
    63  H    0.141981
    64  C   -0.512375
    65  H    0.137469
    66  H    0.142301
    67  H    0.156298
    68  N   -0.639900
    69  H    0.342388
    70  C   -0.028799
    71  H    0.164043
    72  C    0.660936
    73  C    0.068819
    74  H    0.215972
    75  O   -0.536352
    76  C   -0.501193
    77  H    0.215608
    78  H    0.154613
    79  H    0.164652
    80  O   -0.677993
    81  H    0.427087
    82  N   -0.614175
    83  H    0.331163
    84  C   -0.022561
    85  H    0.177416
    86  C    0.651378
    87  C   -0.120697
    88  H    0.142483
    89  O   -0.606509
    90  C   -0.456984
    91  H    0.176790
    92  H    0.117273
    93  H    0.161067
    94  C   -0.464436
    95  H    0.171789
    96  H    0.156132
    97  H    0.165632
    98  N   -0.631557
    99  H    0.372870
   100  C   -0.056920
   101  H    0.156706
   102  C    0.585727
   103  C   -0.291012
   104  H    0.187791
   105  H    0.143068
   106  O   -0.544829
   107  C   -0.263636
   108  H    0.134779
   109  H    0.180764
   110  C   -0.325245
   111  H    0.211391
   112  H    0.146068
   113  C   -0.198431
   114  H    0.217102
   115  H    0.204388
   116  N   -0.787662
   117  H    0.401781
   118  H    0.456802
   119  H    0.411030
   120  O   -0.637627
   121  H    0.427559
 Sum of Mulliken charges =   1.00000
 Mulliken charges with hydrogens summed into heavy atoms:
               1
     1  N    0.503338
     5  C    0.113745
     7  C    0.667659
     8  C    0.098473
    12  O   -0.573911
    13  N   -0.230031
    15  C    0.127924
    17  C    0.641148
    18  C   -0.026699
    21  O   -0.514853
    22  C    0.024732
    23  C    0.161046
    25  C    0.056720
    26  C    0.310932
    27  C   -0.145225
    29  N   -0.286941
    31  C   -0.028747
    33  C   -0.005899
    35  C   -0.021604
    37  N   -0.251694
    39  C    0.111650
    41  C    0.624358
    42  C    0.076030
    45  O   -0.520687
    46  C    0.036239
    49  C    0.584227
    50  O   -0.522874
    51  O   -0.091076
    52  N   -0.256574
    54  C    0.135851
    56  C    0.634965
    57  C    0.108419
    59  O   -0.526092
    60  C   -0.007232
    64  C   -0.076307
    68  N   -0.297512
    70  C    0.135243
    72  C    0.660936
    73  C    0.284791
    75  O   -0.536352
    76  C    0.033679
    80  O   -0.250906
    82  N   -0.283012
    84  C    0.154855
    86  C    0.651378
    87  C    0.021786
    89  O   -0.606509
    90  C   -0.001854
    94  C    0.029117
    98  N   -0.258687
   100  C    0.099786
   102  C    0.585727
   103  C    0.039847
   106  O   -0.544829
   107  C    0.051907
   110  C    0.032215
   113  C    0.223059
   116  N    0.481951
   120  O   -0.637627
 Electronic spatial extent (au):  <R**2>=          45318.1002
 Charge=              1.0000 electrons
 Dipole moment (field-independent basis, Debye):
    X=             -1.1020    Y=              8.7953    Z=            -13.1958  Tot=             15.8965
 Quadrupole moment (field-independent basis, Debye-Ang):
   XX=           -119.5910   YY=           -263.4551   ZZ=           -381.2463
   XY=            102.8583   XZ=             18.5169   YZ=             19.5810
 Traceless Quadrupole moment (field-independent basis, Debye-Ang):
   XX=            135.1731   YY=             -8.6910   ZZ=           -126.4821
   XY=            102.8583   XZ=             18.5169   YZ=             19.5810
 Octapole moment (field-independent basis, Debye-Ang**2):
  XXX=           -862.9627  YYY=           1297.7614  ZZZ=            199.3421  XYY=            -21.7493
  XXY=            388.6032  XXZ=           -112.5016  XZZ=           -356.0968  YZZ=            394.1263
  YYZ=            226.4142  XYZ=            -50.5745
 Hexadecapole moment (field-independent basis, Debye-Ang**3):
 XXXX=         -17086.6688 YYYY=         -14636.7573 ZZZZ=         -18125.7748 XXXY=           -195.0515
 XXXZ=          -2876.1308 YYYX=           -399.5753 YYYZ=           1436.2037 ZZZX=          -3306.7403
 ZZZY=           1669.1260 XXYY=          -4765.7564 XXZZ=          -5749.6844 YYZZ=          -5660.4888
 XXYZ=            381.7896 YYXZ=          -1203.2927 ZZXY=           -291.7927
 N-N= 9.905483234475D+03 E-N=-2.640305561939D+04  KE= 2.817725214981D+03
 Unable to Open any file for archive entry.
 1\1\GINC-LAC-261\SP\RB3LYP\6-31G(d)\C39H62N9O11(1+)\KENGMITH\10-Jul-20
 22\0\\# B3LYP/6-31G* empiricaldispersion=gd3bj guess=read geom=check n
 osymm integral(ultrafinegrid)\\Candidate Structure: Conf:727 Charge ca
 lc in gas phase\\1,1\N,0,-5.5466528489,-1.7507097814,-0.8973904611\H,0
 ,-5.1514123233,-0.8213449809,-0.6701295321\H,0,-6.4317626016,-1.911342
 3586,-0.4113815203\H,0,-5.7123644871,-1.7198870857,-1.9336427616\C,0,-
 4.4759966196,-2.7491363358,-0.5212035471\H,0,-4.4611075821,-2.78766565
 42,0.5733773051\C,0,-3.1871348884,-2.0479214693,-0.9956797274\C,0,-4.7
 700367321,-4.1234870316,-1.1041970204\H,0,-4.0435423504,-4.8497351478,
 -0.7245108699\H,0,-5.7601484873,-4.4731099132,-0.7944747034\H,0,-4.724
 1964815,-4.1111525623,-2.1976250672\O,0,-3.2121730082,-0.8051781976,-1
 .0708666423\N,0,-2.1584973178,-2.8178338417,-1.328897991\H,0,-2.188406
 4516,-3.804777551,-1.088015675\C,0,-0.8468715187,-2.2789474884,-1.7381
 847605\H,0,-0.6987370299,-1.3531945056,-1.1734122705\C,0,-0.8897497477
 ,-1.9225350558,-3.2339152268\C,0,0.2753001488,-3.2567587576,-1.3722844
 732\H,0,0.2491053391,-4.114259385,-2.0534206085\H,0,1.2188268034,-2.73
 7556104,-1.5623559438\O,0,-0.1849038813,-2.4527047226,-4.0805282177\C,
 0,0.1241900131,-3.6728325146,0.058397529\C,0,0.5041123589,-2.957832860
 8,1.1767568138\H,0,1.0867284328,-2.0481926897,1.2369728605\C,0,-0.6928
 478946,-4.7560581522,0.5360234619\C,0,-0.751593584,-4.6311564629,1.960
 0440224\C,0,-1.4147774225,-5.7911088655,-0.0926601203\H,0,-1.342300093
 1,-5.9464725297,-1.1688086029\N,0,-0.0094397075,-3.5317015135,2.313031
 5548\H,0,0.2890216701,-3.2139005105,3.2600753807\C,0,-2.2120598647,-6.
 5196015255,2.0948727962\H,0,-2.7997388716,-7.2197299778,2.6811402624\C
 ,0,-1.4984795209,-5.5176407332,2.7442146161\H,0,-1.5233255465,-5.41782
 22539,3.8251606285\C,0,-2.1735067111,-6.6574720787,0.6909378979\H,0,-2
 .7167177557,-7.4726675425,0.2207482678\N,0,-1.7839473,-0.9305078531,-3
 .5063276927\H,0,-2.2453503974,-0.4908613265,-2.7137839517\C,0,-1.84934
 8051,-0.2294917827,-4.7794271349\H,0,-1.4507841427,-0.9090903817,-5.53
 95012176\C,0,-0.9440868124,1.0275079411,-4.6605123286\C,0,-3.309447570
 9,0.1372252978,-5.0595866969\H,0,-3.6421431335,0.819403307,-4.26878557
 63\H,0,-3.3912684086,0.6954427486,-5.9941277212\O,0,-1.3942569549,2.16
 30863957,-4.7586336433\C,0,-4.1905154527,-1.1392079682,-5.0922454728\H
 ,0,-4.2185458514,-1.5520638146,-6.1054183377\H,0,-3.7736731037,-1.8913
 618637,-4.4197561014\C,0,-5.5959134516,-0.8647078449,-4.6382414732\O,0
 ,-6.0786594776,-1.1836599111,-3.5539112736\O,0,-6.3093366106,-0.186758
 3666,-5.5390504952\N,0,0.3387890161,0.7091601629,-4.3398774895\H,0,0.5
 800942799,-0.2789590372,-4.2739194149\C,0,1.2876292415,1.5535410182,-3
 .6275777879\H,0,1.7855980284,2.2440424957,-4.3236680207\C,0,2.33438067
 49,0.5664639519,-3.0633699509\C,0,0.6106764142,2.4096167844,-2.5091871
 62\H,0,-0.1655563658,2.9727936593,-3.0331666402\O,0,2.1519304912,-0.64
 63586701,-3.0771035819\C,0,-0.0429996385,1.5520540814,-1.4210451542\H,
 0,0.6974152493,0.9345599991,-0.902054337\H,0,-0.5343256313,2.192814540
 8,-0.6803787402\H,0,-0.8104132924,0.898301982,-1.8380498459\C,0,1.5658
 302044,3.4294638308,-1.869465337\H,0,2.2359305307,2.9274539539,-1.1627
 34327\H,0,2.1625413101,3.9690556975,-2.6176070635\H,0,0.9802875102,4.1
 730173359,-1.3155585915\N,0,3.453798501,1.120622247,-2.5354134737\H,0,
 3.594973066,2.1183259497,-2.5600825125\C,0,4.4006073676,0.3519538304,-
 1.7625734479\H,0,5.0335524294,-0.254493347,-2.4247447679\C,0,3.6789195
 496,-0.5487767758,-0.7341853724\C,0,5.2793030203,1.3133740578,-0.89918
 22357\H,0,4.801581548,1.409034906,0.0750851335\O,0,2.6355535838,-0.183
 3373838,-0.199206337\C,0,6.6973414292,0.8203130995,-0.6904396643\H,0,6
 .6736069215,-0.0948154121,-0.0964708896\H,0,7.2070333966,0.6262098428,
 -1.6427435078\H,0,7.2733571253,1.555994143,-0.1202207509\O,0,5.2717198
 141,2.6672760332,-1.4450146727\H,0,6.0133615933,2.7708873516,-2.063973
 204\N,0,4.3638061335,-1.6524733681,-0.3652106071\H,0,5.2389299761,-1.8
 527365606,-0.8282394218\C,0,4.1316316714,-2.2615392487,0.9430597927\H,
 0,3.1626127539,-2.7666187543,0.9139531779\C,0,4.0686302786,-1.12141028
 68,1.9988938443\C,0,5.2089735262,-3.3271083656,1.2448018803\H,0,5.1868
 406636,-4.0238466394,0.3938674441\O,0,4.7869003534,-0.1135457689,1.874
 5967624\C,0,6.6247556143,-2.7457523812,1.3624394663\H,0,6.6755154392,-
 1.9913139067,2.1528385103\H,0,6.9684133506,-2.2752952039,0.4324011635\
 H,0,7.338048612,-3.5421988742,1.5972280219\C,0,4.8369694562,-4.1177688
 815,2.5060510378\H,0,4.8804671945,-3.486846942,3.3994018409\H,0,5.5324
 418495,-4.9508316764,2.6479129215\H,0,3.8245160977,-4.5307345965,2.437
 9563407\N,0,3.1824717438,-1.3476218785,2.9653281407\H,0,2.6863818609,-
 2.2452659561,3.0400575643\C,0,2.6408685938,-0.4646546604,3.9972925047\
 H,0,3.3850623572,-0.2937802172,4.7867161963\C,0,1.4319592957,-1.268629
 0609,4.6384416899\C,0,2.133568823,0.879153446,3.4573741043\H,0,1.35223
 85233,1.1988080105,4.1507706392\H,0,1.652147162,0.6863808929,2.4901017
 793\O,0,0.672638047,-0.6326531941,5.3703882832\C,0,3.2037974802,1.9807
 847846,3.3061710943\H,0,3.1248699551,2.706255373,4.1266545728\H,0,4.19
 82601977,1.5311205469,3.3473648683\C,0,3.0757609927,2.70644981,1.96002
 69153\H,0,3.1036363128,1.9534855953,1.1645536143\H,0,2.1068850216,3.22
 26553732,1.8913966509\C,0,4.200575405,3.7138095515,1.7921508074\H,0,5.
 1819602765,3.2400813104,1.8681201371\H,0,4.1375454703,4.5173999009,2.5
 296044226\N,0,4.1584542119,4.3786625764,0.4162165948\H,0,4.6479076749,
 5.2784936345,0.4135150688\H,0,4.6024680065,3.7737849819,-0.3211412614\
 H,0,3.1871261074,4.5472664544,0.1321112627\O,0,1.3926326957,-2.5007389
 008,4.2969721273\H,0,-7.1963313915,-0.0209533044,-5.1648344925\\Versio
 n=ES64L-G16RevC.01\HF=-2843.9051304\RMSD=4.958e-10\Dipole=-1.6415648,5
 .258843,-4.1296802\Quadrupole=100.4979054,-6.4615313,-94.0363741,76.47
 26205,13.7668558,14.557962\PG=C01 [X(C39H62N9O11)]\\@
 The archive entry for this job was punched.


 SOME THINGS ARE EASY, THEY ARE ONLY HARD TO DO.
            -- A. EINSTEIN TO J. O. HIRSCHFELDER
 THE ONLY TROUBLE WITH A SURE THING IS THE UNCERTAINTY.
     -- FROM A TEABAG (BELONGING TO W.H.?)
 Job cpu time:       0 days  0 hours 12 minutes 46.5 seconds.
 Elapsed time:       0 days  0 hours  3 minutes 12.5 seconds.
 File lengths (MBytes):  RWF=    648 Int=      0 D2E=      0 Chk=    104 Scr=     16
 Normal termination of Gaussian 16 at Sun Jul 10 13:39:30 2022.
