 Entering Gaussian System, Link 0=/opt/software/Gaussian/g16-AVX2-C.01/g16/g16
 Input=charge-conf-231.com
 Output=charge-conf-231.log
 Initial command:
 /opt/software/Gaussian/g16-AVX2-C.01/g16/l1.exe "/mnt/gs18/scratch/users/kengmith/Gau-26810.inp" -scrdir="/mnt/gs18/scratch/users/kengmith/"
 Entering Link 1 = /opt/software/Gaussian/g16-AVX2-C.01/g16/l1.exe PID=     26821.
  
 Copyright (c) 1988-2019, Gaussian, Inc.  All Rights Reserved.
  
 This is part of the Gaussian(R) 16 program.  It is based on
 the Gaussian(R) 09 system (copyright 2009, Gaussian, Inc.),
 the Gaussian(R) 03 system (copyright 2003, Gaussian, Inc.),
 the Gaussian(R) 98 system (copyright 1998, Gaussian, Inc.),
 the Gaussian(R) 94 system (copyright 1995, Gaussian, Inc.),
 the Gaussian 92(TM) system (copyright 1992, Gaussian, Inc.),
 the Gaussian 90(TM) system (copyright 1990, Gaussian, Inc.),
 the Gaussian 88(TM) system (copyright 1988, Gaussian, Inc.),
 the Gaussian 86(TM) system (copyright 1986, Carnegie Mellon
 University), and the Gaussian 82(TM) system (copyright 1983,
 Carnegie Mellon University). Gaussian is a federally registered
 trademark of Gaussian, Inc.
  
 This software contains proprietary and confidential information,
 including trade secrets, belonging to Gaussian, Inc.
  
 This software is provided under written license and may be
 used, copied, transmitted, or stored only in accord with that
 written license.
  
 The following legend is applicable only to US Government
 contracts under FAR:
  
                    RESTRICTED RIGHTS LEGEND
  
 Use, reproduction and disclosure by the US Government is
 subject to restrictions as set forth in subparagraphs (a)
 and (c) of the Commercial Computer Software - Restricted
 Rights clause in FAR 52.227-19.
  
 Gaussian, Inc.
 340 Quinnipiac St., Bldg. 40, Wallingford CT 06492
  
  
 ---------------------------------------------------------------
 Warning -- This program may not be used in any manner that
 competes with the business of Gaussian, Inc. or will provide
 assistance to any competitor of Gaussian, Inc.  The licensee
 of this program is prohibited from giving any competitor of
 Gaussian, Inc. access to this program.  By using this program,
 the user acknowledges that Gaussian, Inc. is engaged in the
 business of creating and licensing software in the field of
 computational chemistry and represents and warrants to the
 licensee that it is not a competitor of Gaussian, Inc. and that
 it will not use this program in any manner prohibited above.
 ---------------------------------------------------------------
  

 Cite this work as:
 Gaussian 16, Revision C.01,
 M. J. Frisch, G. W. Trucks, H. B. Schlegel, G. E. Scuseria, 
 M. A. Robb, J. R. Cheeseman, G. Scalmani, V. Barone, 
 G. A. Petersson, H. Nakatsuji, X. Li, M. Caricato, A. V. Marenich, 
 J. Bloino, B. G. Janesko, R. Gomperts, B. Mennucci, H. P. Hratchian, 
 J. V. Ortiz, A. F. Izmaylov, J. L. Sonnenberg, D. Williams-Young, 
 F. Ding, F. Lipparini, F. Egidi, J. Goings, B. Peng, A. Petrone, 
 T. Henderson, D. Ranasinghe, V. G. Zakrzewski, J. Gao, N. Rega, 
 G. Zheng, W. Liang, M. Hada, M. Ehara, K. Toyota, R. Fukuda, 
 J. Hasegawa, M. Ishida, T. Nakajima, Y. Honda, O. Kitao, H. Nakai, 
 T. Vreven, K. Throssell, J. A. Montgomery, Jr., J. E. Peralta, 
 F. Ogliaro, M. J. Bearpark, J. J. Heyd, E. N. Brothers, K. N. Kudin, 
 V. N. Staroverov, T. A. Keith, R. Kobayashi, J. Normand, 
 K. Raghavachari, A. P. Rendell, J. C. Burant, S. S. Iyengar, 
 J. Tomasi, M. Cossi, J. M. Millam, M. Klene, C. Adamo, R. Cammi, 
 J. W. Ochterski, R. L. Martin, K. Morokuma, O. Farkas, 
 J. B. Foresman, and D. J. Fox, Gaussian, Inc., Wallingford CT, 2019.
 
 ******************************************
 Gaussian 16:  ES64L-G16RevC.01  3-Jul-2019
                10-Jul-2022 
 ******************************************
 %mem=8gb
 %nproc=4
 Will use up to    4 processors via shared memory.
 %chk=conf-231.chk
 ----------------------------------------------------------------------
 # B3LYP/6-31G* empiricaldispersion=gd3bj guess=read geom=check nosymm 
 integral(ultrafinegrid)
 ----------------------------------------------------------------------
 1/29=2,38=1,172=1/1;
 2/12=2,15=1,40=1/2;
 3/5=1,6=6,7=1,11=2,14=-4,25=1,30=1,74=-5,75=-5,116=-2,124=41/1,2,3;
 4/5=1/1;
 5/5=2,38=6/2;
 6/7=2,8=2,9=2,10=2,28=1/1;
 99/5=1,9=1/99;
 ------------------------------------------------------
 Candidate Structure: Conf:231 Charge calc in gas phase
 ------------------------------------------------------
 Structure from the checkpoint file:  "conf-231.chk"
 Charge =  1 Multiplicity = 1
 Redundant internal coordinates found in file.  (old form).
 N,0,-6.7904385726,-4.3349092563,-3.576983123
 H,0,-7.2378325203,-4.4740872525,-2.6672731469
 H,0,-7.0395587964,-5.1186193917,-4.1867527425
 H,0,-7.1162751623,-3.4056140547,-4.0016717323
 C,0,-5.2942530003,-4.1055858575,-3.4866673755
 H,0,-5.0004615046,-4.2248471132,-2.4412851892
 C,0,-5.1589774978,-2.620219973,-3.9231918469
 C,0,-4.5323724163,-5.0713660132,-4.3899905989
 H,0,-3.4601936957,-4.8679235122,-4.3278199985
 H,0,-4.6899697332,-6.109822656,-4.0825349045
 H,0,-4.8330084895,-4.9498826631,-5.4361446144
 O,0,-6.1882023125,-2.0469099092,-4.3216804826
 N,0,-3.9519859527,-2.0908722916,-3.8444866221
 H,0,-3.1241233321,-2.6188150089,-3.5573421223
 C,0,-3.6222588424,-0.7262014567,-4.2415368783
 H,0,-4.049292501,-0.5245569886,-5.2283270086
 C,0,-2.0878404555,-0.7019143659,-4.2853466747
 C,0,-4.1702452579,0.3283253196,-3.2292631395
 H,0,-5.1955542735,0.0288253394,-2.9854990556
 H,0,-3.582678152,0.2708588684,-2.3062114029
 O,0,-1.4414938843,-1.6754244702,-3.8707006679
 C,0,-4.1626751876,1.7117934778,-3.7977955109
 C,0,-3.3526093516,2.7697240514,-3.4395928906
 H,0,-2.5703031856,2.8249716563,-2.69554577
 C,0,-4.9882747125,2.1692655646,-4.8902616748
 C,0,-4.6235977076,3.5189273839,-5.1484903881
 C,0,-5.992605287,1.5678215447,-5.6687248947
 H,0,-6.3020558757,0.5432513345,-5.4774061873
 N,0,-3.6279515081,3.8506620541,-4.2473780332
 H,0,-3.1608886309,4.7432909091,-4.1914636757
 C,0,-6.2115622452,3.6502659966,-6.9174663269
 H,0,-6.7006157152,4.2066347519,-7.7110363146
 C,0,-5.2269782314,4.2722393975,-6.1591616356
 H,0,-4.9389666373,5.3024283337,-6.345805159
 C,0,-6.5919943225,2.3143309538,-6.6746821074
 H,0,-7.3713272579,1.8674283652,-7.2846545643
 N,0,-1.5360956217,0.4366299499,-4.735403618
 H,0,-2.1630839275,1.2238851583,-4.8822757134
 C,0,-0.1306458998,0.7709146991,-4.4662318887
 H,0,0.4536617065,-0.1378633483,-4.6322108447
 C,0,-0.0559506237,1.1883231194,-2.9807150941
 C,0,0.3244720924,1.8996235824,-5.3827173171
 H,0,0.0510698585,1.6505595858,-6.4134663548
 H,0,-0.2119119133,2.8133518175,-5.1124456409
 O,0,-0.2404950124,2.3635497534,-2.6315750932
 C,0,1.8281737126,2.1624016089,-5.2808007777
 H,0,2.1813089421,2.1388766406,-4.2426115255
 H,0,2.4130422119,1.4152129339,-5.8279410384
 C,0,2.1830824599,3.5426793118,-5.7885073046
 O,0,1.3927874633,4.43271222,-6.0152606968
 O,0,3.5156181718,3.6801550178,-5.9540461091
 N,0,0.1227432424,0.1792605574,-2.1111702263
 H,0,0.2644162064,-0.754020036,-2.4767817622
 C,0,0.2060578877,0.3831963849,-0.6601400903
 H,0,-0.5328323806,1.1509348961,-0.4049400876
 C,0,1.6322696114,0.908805427,-0.390145074
 C,0,-0.1099560467,-0.904164114,0.1076461291
 H,0,0.6729825807,-1.6308094346,-0.1457845769
 O,0,2.5907680707,0.1517158231,-0.2747762812
 C,0,-0.0425995703,-0.6359009971,1.615793931
 H,0,-0.7805821076,0.1195998529,1.9138872364
 H,0,-0.2581853813,-1.5516543187,2.175641178
 H,0,0.9460961291,-0.2869928553,1.9189375649
 C,0,-1.4828100728,-1.4678617066,-0.2850562797
 H,0,-2.2758116496,-0.7428405635,-0.0559657653
 H,0,-1.54565421,-1.7143876774,-1.3497511517
 H,0,-1.6919889467,-2.377247554,0.2889940002
 N,0,1.715113087,2.257902654,-0.4100109699
 H,0,0.859959043,2.7856691412,-0.5165299799
 C,0,2.9778796401,2.9888848668,-0.4589872025
 H,0,3.7227891358,2.2967216614,-0.8621979161
 C,0,3.3216498316,3.4009949796,0.9834990844
 C,0,2.8311927257,4.1973743448,-1.397729272
 H,0,2.126733119,4.8990717348,-0.9301077725
 O,0,2.9078803872,4.4602691483,1.4540834224
 C,0,4.1629440501,4.8983851593,-1.6088893618
 H,0,4.5538354838,5.2646048551,-0.6560948009
 H,0,4.8876967385,4.2102315214,-2.0586887843
 H,0,4.0296092349,5.7469589954,-2.2857328703
 O,0,2.3517094731,3.7897640514,-2.6800416286
 H,0,1.4199385966,3.5185906295,-2.6021133863
 N,0,4.0038333727,2.4607931622,1.6654747532
 H,0,4.3910960187,1.6565773988,1.1855560835
 C,0,4.2621480574,2.516758411,3.0908263063
 H,0,4.2358106977,3.5676432068,3.3926797848
 C,0,5.6512649608,1.9133891767,3.3462830943
 C,0,3.1963290298,1.7295339872,3.9114236347
 H,0,3.4592909142,1.8552589924,4.9690045423
 O,0,6.2321507235,1.2639840712,2.4648935591
 C,0,1.7930222823,2.3012486047,3.6855328787
 H,0,1.4655588516,2.1457903243,2.6509440827
 H,0,1.7584217782,3.3769193281,3.8830149994
 H,0,1.0725609822,1.8031054472,4.3446246542
 C,0,3.2457744701,0.228492397,3.5983485964
 H,0,3.0954036847,0.0390065264,2.5285254463
 H,0,2.4615979597,-0.2987653451,4.1529052886
 H,0,4.2058003809,-0.2112037927,3.8848824493
 N,0,6.1042535737,2.1018016111,4.5971002215
 H,0,5.4456549368,2.4323751362,5.3242948789
 C,0,6.9884098494,1.1683199268,5.2856167896
 H,0,6.9113949752,0.1819413062,4.8097847444
 C,0,6.4445361673,1.0536659628,6.7748336919
 C,0,8.4481053713,1.6017719694,5.2925370747
 H,0,8.9678463852,0.9360429618,5.9902041386
 H,0,8.5132586826,2.6202716303,5.7010497573
 O,0,7.1558556205,0.3735185313,7.5327500585
 C,0,9.0905110058,1.5623232546,3.9060039105
 H,0,9.0379984855,0.5422814713,3.5039910105
 H,0,8.5219437452,2.1896697577,3.2107661228
 C,0,10.5545922204,2.0231732981,3.9556042755
 H,0,10.6007491247,3.0494858052,4.3475325599
 H,0,11.1183185204,1.3818763627,4.6483187133
 C,0,11.1796162021,1.9705954907,2.5770959967
 H,0,10.6837234568,2.6337271871,1.8647764799
 H,0,11.2089861707,0.9591246902,2.1658099691
 N,0,12.643827503,2.4399453446,2.6408026553
 H,0,13.1132980166,2.4208317432,1.7279722907
 H,0,12.6916634331,3.3985921957,3.0053744431
 H,0,13.1766110372,1.8463833981,3.2874281012
 O,0,5.3685574353,1.6816573202,6.9814629248
 H,0,3.6624056155,4.6072449224,-6.2199373714
 Recover connectivity data from disk.
                           ----------------------------
                           !    Current Parameters    !
                           ! (Angstroms and Degrees)  !
 --------------------------                            --------------------------
 ! Name  Definition              Value                                          !
 --------------------------------------------------------------------------------
 ! R1    R(1,2)                  1.0233                                         !
 ! R2    R(1,3)                  1.0238                                         !
 ! R3    R(1,4)                  1.0724                                         !
 ! R4    R(1,5)                  1.5164                                         !
 ! R5    R(5,6)                  1.0924                                         !
 ! R6    R(5,7)                  1.5541                                         !
 ! R7    R(5,8)                  1.5262                                         !
 ! R8    R(7,12)                 1.2437                                         !
 ! R9    R(7,13)                 1.3203                                         !
 ! R10   R(8,9)                  1.0931                                         !
 ! R11   R(8,10)                 1.0944                                         !
 ! R12   R(8,11)                 1.0953                                         !
 ! R13   R(13,14)                1.023                                          !
 ! R14   R(13,15)                1.459                                          !
 ! R15   R(15,16)                1.094                                          !
 ! R16   R(15,17)                1.5352                                         !
 ! R17   R(15,18)                1.5611                                         !
 ! R18   R(17,21)                1.2399                                         !
 ! R19   R(17,37)                1.3429                                         !
 ! R20   R(18,19)                1.0956                                         !
 ! R21   R(18,20)                1.0957                                         !
 ! R22   R(18,22)                1.4958                                         !
 ! R23   R(22,23)                1.3798                                         !
 ! R24   R(22,25)                1.4437                                         !
 ! R25   R(23,24)                1.081                                          !
 ! R26   R(23,29)                1.3772                                         !
 ! R27   R(25,26)                1.4217                                         !
 ! R28   R(25,27)                1.4059                                         !
 ! R29   R(26,29)                1.3832                                         !
 ! R30   R(26,33)                1.3975                                         !
 ! R31   R(27,28)                1.0872                                         !
 ! R32   R(27,35)                1.3887                                         !
 ! R33   R(29,30)                1.009                                          !
 ! R34   R(31,32)                1.0856                                         !
 ! R35   R(31,33)                1.3897                                         !
 ! R36   R(31,35)                1.4101                                         !
 ! R37   R(33,34)                1.0859                                         !
 ! R38   R(35,36)                1.0859                                         !
 ! R39   R(37,38)                1.0171                                         !
 ! R40   R(37,39)                1.4695                                         !
 ! R41   R(39,40)                1.0931                                         !
 ! R42   R(39,41)                1.5449                                         !
 ! R43   R(39,42)                1.5235                                         !
 ! R44   R(41,45)                1.2398                                         !
 ! R45   R(41,52)                1.344                                          !
 ! R46   R(42,43)                1.0951                                         !
 ! R47   R(42,44)                1.0935                                         !
 ! R48   R(42,46)                1.5299                                         !
 ! R49   R(46,47)                1.0969                                         !
 ! R50   R(46,48)                1.0953                                         !
 ! R51   R(46,49)                1.5129                                         !
 ! R52   R(49,50)                1.2117                                         !
 ! R53   R(49,51)                1.3498                                         !
 ! R54   R(51,121)               0.9756                                         !
 ! R55   R(52,53)                1.0123                                         !
 ! R56   R(52,54)                1.4677                                         !
 ! R57   R(54,55)                1.0957                                         !
 ! R58   R(54,56)                1.5438                                         !
 ! R59   R(54,57)                1.5319                                         !
 ! R60   R(56,59)                1.2269                                         !
 ! R61   R(56,68)                1.3518                                         !
 ! R62   R(57,58)                1.0978                                         !
 ! R63   R(57,60)                1.5333                                         !
 ! R64   R(57,64)                1.5352                                         !
 ! R65   R(60,61)                1.0974                                         !
 ! R66   R(60,62)                1.0948                                         !
 ! R67   R(60,63)                1.0914                                         !
 ! R68   R(64,65)                1.0986                                         !
 ! R69   R(64,66)                1.0947                                         !
 ! R70   R(64,67)                1.0956                                         !
 ! R71   R(68,69)                1.0105                                         !
 ! R72   R(68,70)                1.4599                                         !
 ! R73   R(70,71)                1.0939                                         !
 ! R74   R(70,72)                1.5391                                         !
 ! R75   R(70,73)                1.5373                                         !
 ! R76   R(72,75)                1.2307                                         !
 ! R77   R(72,82)                1.347                                          !
 ! R78   R(73,74)                1.0988                                         !
 ! R79   R(73,76)                1.5197                                         !
 ! R80   R(73,80)                1.4284                                         !
 ! R81   R(76,77)                1.093                                          !
 ! R82   R(76,78)                1.096                                          !
 ! R83   R(76,79)                1.0936                                         !
 ! R84   R(80,81)                0.9736                                         !
 ! R85   R(82,83)                1.0134                                         !
 ! R86   R(82,84)                1.4497                                         !
 ! R87   R(84,85)                1.0937                                         !
 ! R88   R(84,86)                1.5359                                         !
 ! R89   R(84,87)                1.5585                                         !
 ! R90   R(86,89)                1.2394                                         !
 ! R91   R(86,98)                1.3436                                         !
 ! R92   R(87,88)                1.097                                          !
 ! R93   R(87,90)                1.532                                          !
 ! R94   R(87,94)                1.5341                                         !
 ! R95   R(90,91)                1.0963                                         !
 ! R96   R(90,92)                1.0942                                         !
 ! R97   R(90,93)                1.0962                                         !
 ! R98   R(94,95)                1.0968                                         !
 ! R99   R(94,96)                1.0957                                         !
 ! R100  R(94,97)                1.0941                                         !
 ! R101  R(98,99)                1.0353                                         !
 ! R102  R(98,100)               1.4585                                         !
 ! R103  R(100,101)              1.0979                                         !
 ! R104  R(100,102)              1.5896                                         !
 ! R105  R(100,103)              1.5227                                         !
 ! R106  R(102,106)              1.2422                                         !
 ! R107  R(102,120)              1.2629                                         !
 ! R108  R(103,104)              1.0955                                         !
 ! R109  R(103,105)              1.0993                                         !
 ! R110  R(103,107)              1.5286                                         !
 ! R111  R(107,108)              1.0977                                         !
 ! R112  R(107,109)              1.0955                                         !
 ! R113  R(107,110)              1.5357                                         !
 ! R114  R(110,111)              1.0996                                         !
 ! R115  R(110,112)              1.0995                                         !
 ! R116  R(110,113)              1.5145                                         !
 ! R117  R(113,114)              1.0923                                         !
 ! R118  R(113,115)              1.0923                                         !
 ! R119  R(113,116)              1.5389                                         !
 ! R120  R(116,117)              1.0267                                         !
 ! R121  R(116,118)              1.0267                                         !
 ! R122  R(116,119)              1.0268                                         !
 ! A1    A(2,1,3)              108.6025                                         !
 ! A2    A(2,1,4)              109.6986                                         !
 ! A3    A(2,1,5)              113.5169                                         !
 ! A4    A(3,1,4)              110.7043                                         !
 ! A5    A(3,1,5)              113.0386                                         !
 ! A6    A(4,1,5)              101.0886                                         !
 ! A7    A(1,5,6)              107.8092                                         !
 ! A8    A(1,5,7)              102.3395                                         !
 ! A9    A(1,5,8)              111.1995                                         !
 ! A10   A(6,5,7)              110.471                                          !
 ! A11   A(6,5,8)              111.2886                                         !
 ! A12   A(7,5,8)              113.2737                                         !
 ! A13   A(5,7,12)             117.2939                                         !
 ! A14   A(5,7,13)             116.4892                                         !
 ! A15   A(12,7,13)            126.2143                                         !
 ! A16   A(5,8,9)              109.7687                                         !
 ! A17   A(5,8,10)             111.2408                                         !
 ! A18   A(5,8,11)             110.9858                                         !
 ! A19   A(9,8,10)             107.57                                           !
 ! A20   A(9,8,11)             107.6334                                         !
 ! A21   A(10,8,11)            109.5151                                         !
 ! A22   A(7,13,14)            123.3407                                         !
 ! A23   A(7,13,15)            124.4285                                         !
 ! A24   A(14,13,15)           112.0988                                         !
 ! A25   A(13,15,16)           109.2484                                         !
 ! A26   A(13,15,17)           104.385                                          !
 ! A27   A(13,15,18)           112.0883                                         !
 ! A28   A(16,15,17)           111.1916                                         !
 ! A29   A(16,15,18)           108.867                                          !
 ! A30   A(17,15,18)           111.0178                                         !
 ! A31   A(15,17,21)           119.9363                                         !
 ! A32   A(15,17,37)           115.6983                                         !
 ! A33   A(21,17,37)           124.3036                                         !
 ! A34   A(15,18,19)           106.7451                                         !
 ! A35   A(15,18,20)           108.8201                                         !
 ! A36   A(15,18,22)           112.1201                                         !
 ! A37   A(19,18,20)           107.4615                                         !
 ! A38   A(19,18,22)           110.0076                                         !
 ! A39   A(20,18,22)           111.4693                                         !
 ! A40   A(18,22,23)           127.842                                          !
 ! A41   A(18,22,25)           125.2962                                         !
 ! A42   A(23,22,25)           106.8116                                         !
 ! A43   A(22,23,24)           129.9958                                         !
 ! A44   A(22,23,29)           109.3992                                         !
 ! A45   A(24,23,29)           120.5476                                         !
 ! A46   A(22,25,26)           106.9517                                         !
 ! A47   A(22,25,27)           133.7861                                         !
 ! A48   A(26,25,27)           119.2621                                         !
 ! A49   A(25,26,29)           107.0962                                         !
 ! A50   A(25,26,33)           122.1633                                         !
 ! A51   A(29,26,33)           130.74                                           !
 ! A52   A(25,27,28)           120.6002                                         !
 ! A53   A(25,27,35)           118.6517                                         !
 ! A54   A(28,27,35)           120.7432                                         !
 ! A55   A(23,29,26)           109.741                                          !
 ! A56   A(23,29,30)           124.7016                                         !
 ! A57   A(26,29,30)           125.5533                                         !
 ! A58   A(32,31,33)           119.2538                                         !
 ! A59   A(32,31,35)           119.3323                                         !
 ! A60   A(33,31,35)           121.4134                                         !
 ! A61   A(26,33,31)           117.3394                                         !
 ! A62   A(26,33,34)           121.4127                                         !
 ! A63   A(31,33,34)           121.2479                                         !
 ! A64   A(27,35,31)           121.1687                                         !
 ! A65   A(27,35,36)           119.6989                                         !
 ! A66   A(31,35,36)           119.1318                                         !
 ! A67   A(17,37,38)           116.8321                                         !
 ! A68   A(17,37,39)           121.6306                                         !
 ! A69   A(38,37,39)           116.101                                          !
 ! A70   A(37,39,40)           107.1159                                         !
 ! A71   A(37,39,41)           106.4896                                         !
 ! A72   A(37,39,42)           110.1238                                         !
 ! A73   A(40,39,41)           110.1696                                         !
 ! A74   A(40,39,42)           111.4023                                         !
 ! A75   A(41,39,42)           111.3361                                         !
 ! A76   A(39,41,45)           121.3132                                         !
 ! A77   A(39,41,52)           115.1958                                         !
 ! A78   A(45,41,52)           123.3185                                         !
 ! A79   A(39,42,43)           108.8528                                         !
 ! A80   A(39,42,44)           108.8965                                         !
 ! A81   A(39,42,46)           112.383                                          !
 ! A82   A(43,42,44)           107.4716                                         !
 ! A83   A(43,42,46)           110.3135                                         !
 ! A84   A(44,42,46)           108.7928                                         !
 ! A85   A(42,46,47)           112.0745                                         !
 ! A86   A(42,46,48)           111.9862                                         !
 ! A87   A(42,46,49)           111.4027                                         !
 ! A88   A(47,46,48)           106.6344                                         !
 ! A89   A(47,46,49)           105.1695                                         !
 ! A90   A(48,46,49)           109.2364                                         !
 ! A91   A(46,49,50)           125.4471                                         !
 ! A92   A(46,49,51)           111.4484                                         !
 ! A93   A(50,49,51)           123.102                                          !
 ! A94   A(49,51,121)          106.1857                                         !
 ! A95   A(41,52,53)           118.4983                                         !
 ! A96   A(41,52,54)           122.8805                                         !
 ! A97   A(53,52,54)           118.5052                                         !
 ! A98   A(52,54,55)           106.8196                                         !
 ! A99   A(52,54,56)           105.8229                                         !
 ! A100  A(52,54,57)           111.5333                                         !
 ! A101  A(55,54,56)           110.1032                                         !
 ! A102  A(55,54,57)           109.4508                                         !
 ! A103  A(56,54,57)           112.8953                                         !
 ! A104  A(54,56,59)           121.8775                                         !
 ! A105  A(54,56,68)           113.1937                                         !
 ! A106  A(59,56,68)           124.706                                          !
 ! A107  A(54,57,58)           107.0627                                         !
 ! A108  A(54,57,60)           109.6875                                         !
 ! A109  A(54,57,64)           111.3985                                         !
 ! A110  A(58,57,60)           108.1517                                         !
 ! A111  A(58,57,64)           109.6137                                         !
 ! A112  A(60,57,64)           110.8019                                         !
 ! A113  A(57,60,61)           110.983                                          !
 ! A114  A(57,60,62)           110.3648                                         !
 ! A115  A(57,60,63)           111.6495                                         !
 ! A116  A(61,60,62)           107.7304                                         !
 ! A117  A(61,60,63)           108.2803                                         !
 ! A118  A(62,60,63)           107.684                                          !
 ! A119  A(57,64,65)           110.4771                                         !
 ! A120  A(57,64,66)           112.5095                                         !
 ! A121  A(57,64,67)           109.9684                                         !
 ! A122  A(65,64,66)           108.059                                          !
 ! A123  A(65,64,67)           107.4999                                         !
 ! A124  A(66,64,67)           108.1636                                         !
 ! A125  A(56,68,69)           118.0938                                         !
 ! A126  A(56,68,70)           123.5877                                         !
 ! A127  A(69,68,70)           117.8354                                         !
 ! A128  A(68,70,71)           106.5329                                         !
 ! A129  A(68,70,72)           107.2072                                         !
 ! A130  A(68,70,73)           109.3641                                         !
 ! A131  A(71,70,72)           111.2722                                         !
 ! A132  A(71,70,73)           109.7137                                         !
 ! A133  A(72,70,73)           112.5287                                         !
 ! A134  A(70,72,75)           120.9124                                         !
 ! A135  A(70,72,82)           113.6241                                         !
 ! A136  A(75,72,82)           125.2698                                         !
 ! A137  A(70,73,74)           107.6575                                         !
 ! A138  A(70,73,76)           111.3369                                         !
 ! A139  A(70,73,80)           110.8484                                         !
 ! A140  A(74,73,76)           109.0495                                         !
 ! A141  A(74,73,80)           110.4308                                         !
 ! A142  A(76,73,80)           107.5206                                         !
 ! A143  A(73,76,77)           110.2927                                         !
 ! A144  A(73,76,78)           110.2971                                         !
 ! A145  A(73,76,79)           109.6988                                         !
 ! A146  A(77,76,78)           109.3684                                         !
 ! A147  A(77,76,79)           108.852                                          !
 ! A148  A(78,76,79)           108.2901                                         !
 ! A149  A(73,80,81)           109.2017                                         !
 ! A150  A(72,82,83)           120.5082                                         !
 ! A151  A(72,82,84)           124.1317                                         !
 ! A152  A(83,82,84)           115.3509                                         !
 ! A153  A(82,84,85)           107.7084                                         !
 ! A154  A(82,84,86)           108.0311                                         !
 ! A155  A(82,84,87)           112.1067                                         !
 ! A156  A(85,84,86)           110.692                                          !
 ! A157  A(85,84,87)           108.8776                                         !
 ! A158  A(86,84,87)           109.4208                                         !
 ! A159  A(84,86,89)           120.7619                                         !
 ! A160  A(84,86,98)           113.8711                                         !
 ! A161  A(89,86,98)           125.2762                                         !
 ! A162  A(84,87,88)           106.6053                                         !
 ! A163  A(84,87,90)           111.1168                                         !
 ! A164  A(84,87,94)           111.3901                                         !
 ! A165  A(88,87,90)           108.5989                                         !
 ! A166  A(88,87,94)           107.5264                                         !
 ! A167  A(90,87,94)           111.3801                                         !
 ! A168  A(87,90,91)           111.0905                                         !
 ! A169  A(87,90,92)           111.6667                                         !
 ! A170  A(87,90,93)           110.1076                                         !
 ! A171  A(91,90,92)           107.4751                                         !
 ! A172  A(91,90,93)           107.8587                                         !
 ! A173  A(92,90,93)           108.5083                                         !
 ! A174  A(87,94,95)           111.3251                                         !
 ! A175  A(87,94,96)           110.1504                                         !
 ! A176  A(87,94,97)           111.5948                                         !
 ! A177  A(95,94,96)           108.2052                                         !
 ! A178  A(95,94,97)           107.8367                                         !
 ! A179  A(96,94,97)           107.5812                                         !
 ! A180  A(86,98,99)           118.9602                                         !
 ! A181  A(86,98,100)          123.6495                                         !
 ! A182  A(99,98,100)          104.9762                                         !
 ! A183  A(98,100,101)         109.1421                                         !
 ! A184  A(98,100,102)         106.3212                                         !
 ! A185  A(98,100,103)         113.6459                                         !
 ! A186  A(101,100,102)        108.4967                                         !
 ! A187  A(101,100,103)        108.9638                                         !
 ! A188  A(102,100,103)        110.1371                                         !
 ! A189  A(100,102,106)        114.5317                                         !
 ! A190  A(100,102,120)        114.1386                                         !
 ! A191  A(106,102,120)        131.3265                                         !
 ! A192  A(100,103,104)        106.5418                                         !
 ! A193  A(100,103,105)        108.7984                                         !
 ! A194  A(100,103,107)        113.041                                          !
 ! A195  A(104,103,105)        107.3528                                         !
 ! A196  A(104,103,107)        111.2596                                         !
 ! A197  A(105,103,107)        109.6375                                         !
 ! A198  A(103,107,108)        109.638                                          !
 ! A199  A(103,107,109)        110.0438                                         !
 ! A200  A(103,107,110)        111.322                                          !
 ! A201  A(108,107,109)        105.9558                                         !
 ! A202  A(108,107,110)        109.6522                                         !
 ! A203  A(109,107,110)        110.0864                                         !
 ! A204  A(107,110,111)        109.3677                                         !
 ! A205  A(107,110,112)        109.5189                                         !
 ! A206  A(107,110,113)        110.7096                                         !
 ! A207  A(111,110,112)        107.3564                                         !
 ! A208  A(111,110,113)        109.8471                                         !
 ! A209  A(112,110,113)        109.9752                                         !
 ! A210  A(110,113,114)        112.6529                                         !
 ! A211  A(110,113,115)        112.704                                          !
 ! A212  A(110,113,116)        110.1447                                         !
 ! A213  A(114,113,115)        109.1987                                         !
 ! A214  A(114,113,116)        105.8904                                         !
 ! A215  A(115,113,116)        105.8087                                         !
 ! A216  A(113,116,117)        113.1162                                         !
 ! A217  A(113,116,118)        110.1077                                         !
 ! A218  A(113,116,119)        110.0877                                         !
 ! A219  A(117,116,118)        108.1669                                         !
 ! A220  A(117,116,119)        108.1735                                         !
 ! A221  A(118,116,119)        106.9747                                         !
 ! D1    D(2,1,5,6)              4.7173                                         !
 ! D2    D(2,1,5,7)           -111.789                                          !
 ! D3    D(2,1,5,8)            126.9675                                         !
 ! D4    D(3,1,5,6)           -119.554                                          !
 ! D5    D(3,1,5,7)            123.9397                                         !
 ! D6    D(3,1,5,8)              2.6963                                         !
 ! D7    D(4,1,5,6)            122.0968                                         !
 ! D8    D(4,1,5,7)              5.5905                                         !
 ! D9    D(4,1,5,8)           -115.6529                                         !
 ! D10   D(1,5,7,12)            -5.6543                                         !
 ! D11   D(1,5,7,13)           174.898                                          !
 ! D12   D(6,5,7,12)          -120.2271                                         !
 ! D13   D(6,5,7,13)            60.3252                                         !
 ! D14   D(8,5,7,12)           114.1508                                         !
 ! D15   D(8,5,7,13)           -65.2969                                         !
 ! D16   D(1,5,8,9)            178.4592                                         !
 ! D17   D(1,5,8,10)           -62.6035                                         !
 ! D18   D(1,5,8,11)            59.6023                                         !
 ! D19   D(6,5,8,9)            -61.3284                                         !
 ! D20   D(6,5,8,10)            57.6089                                         !
 ! D21   D(6,5,8,11)           179.8146                                         !
 ! D22   D(7,5,8,9)             63.8548                                         !
 ! D23   D(7,5,8,10)          -177.2079                                         !
 ! D24   D(7,5,8,11)           -55.0021                                         !
 ! D25   D(5,7,13,14)            2.8349                                         !
 ! D26   D(5,7,13,15)          178.3251                                         !
 ! D27   D(12,7,13,14)        -176.5567                                         !
 ! D28   D(12,7,13,15)          -1.0666                                         !
 ! D29   D(7,13,15,16)         -47.7981                                         !
 ! D30   D(7,13,15,17)        -166.8003                                         !
 ! D31   D(7,13,15,18)          72.956                                          !
 ! D32   D(14,13,15,16)        128.1363                                         !
 ! D33   D(14,13,15,17)          9.1341                                         !
 ! D34   D(14,13,15,18)       -111.1095                                         !
 ! D35   D(13,15,17,21)         -7.8474                                         !
 ! D36   D(13,15,17,37)        174.8879                                         !
 ! D37   D(16,15,17,21)       -125.5224                                         !
 ! D38   D(16,15,17,37)         57.2129                                         !
 ! D39   D(18,15,17,21)        113.1112                                         !
 ! D40   D(18,15,17,37)        -64.1536                                         !
 ! D41   D(13,15,18,19)        -44.2053                                         !
 ! D42   D(13,15,18,20)         71.4907                                         !
 ! D43   D(13,15,18,22)       -164.7346                                         !
 ! D44   D(16,15,18,19)         76.7693                                         !
 ! D45   D(16,15,18,20)       -167.5347                                         !
 ! D46   D(16,15,18,22)        -43.76                                           !
 ! D47   D(17,15,18,19)       -160.5102                                         !
 ! D48   D(17,15,18,20)        -44.8142                                         !
 ! D49   D(17,15,18,22)         78.9605                                         !
 ! D50   D(15,17,37,38)          8.3759                                         !
 ! D51   D(15,17,37,39)        161.328                                          !
 ! D52   D(21,17,37,38)       -168.7546                                         !
 ! D53   D(21,17,37,39)        -15.8024                                         !
 ! D54   D(15,18,22,23)       -109.9145                                         !
 ! D55   D(15,18,22,25)         67.1622                                         !
 ! D56   D(19,18,22,23)        131.4664                                         !
 ! D57   D(19,18,22,25)        -51.4569                                         !
 ! D58   D(20,18,22,23)         12.3652                                         !
 ! D59   D(20,18,22,25)       -170.5581                                         !
 ! D60   D(18,22,23,24)          0.2005                                         !
 ! D61   D(18,22,23,29)        177.401                                          !
 ! D62   D(25,22,23,24)       -177.3073                                         !
 ! D63   D(25,22,23,29)         -0.1068                                         !
 ! D64   D(18,22,25,26)       -177.4295                                         !
 ! D65   D(18,22,25,27)          2.4861                                         !
 ! D66   D(23,22,25,26)          0.1591                                         !
 ! D67   D(23,22,25,27)       -179.9252                                         !
 ! D68   D(22,23,29,26)          0.0119                                         !
 ! D69   D(22,23,29,30)       -179.2802                                         !
 ! D70   D(24,23,29,26)        177.5218                                         !
 ! D71   D(24,23,29,30)         -1.7703                                         !
 ! D72   D(22,25,26,29)         -0.152                                          !
 ! D73   D(22,25,26,33)        179.6132                                         !
 ! D74   D(27,25,26,29)        179.9178                                         !
 ! D75   D(27,25,26,33)         -0.317                                          !
 ! D76   D(22,25,27,28)          1.2856                                         !
 ! D77   D(22,25,27,35)       -179.5148                                         !
 ! D78   D(26,25,27,28)       -178.8069                                         !
 ! D79   D(26,25,27,35)          0.3928                                         !
 ! D80   D(25,26,29,23)          0.0897                                         !
 ! D81   D(25,26,29,30)        179.3744                                         !
 ! D82   D(33,26,29,23)       -179.648                                          !
 ! D83   D(33,26,29,30)         -0.3633                                         !
 ! D84   D(25,26,33,31)         -0.0136                                         !
 ! D85   D(25,26,33,34)        179.9963                                         !
 ! D86   D(29,26,33,31)        179.6902                                         !
 ! D87   D(29,26,33,34)         -0.2998                                         !
 ! D88   D(25,27,35,31)         -0.1542                                         !
 ! D89   D(25,27,35,36)       -179.8508                                         !
 ! D90   D(28,27,35,31)        179.0443                                         !
 ! D91   D(28,27,35,36)         -0.6523                                         !
 ! D92   D(32,31,33,26)       -179.981                                          !
 ! D93   D(32,31,33,34)          0.0091                                         !
 ! D94   D(35,31,33,26)          0.2628                                         !
 ! D95   D(35,31,33,34)       -179.7471                                         !
 ! D96   D(32,31,35,27)       -179.9398                                         !
 ! D97   D(32,31,35,36)         -0.2415                                         !
 ! D98   D(33,31,35,27)         -0.1838                                         !
 ! D99   D(33,31,35,36)        179.5145                                         !
 ! D100  D(17,37,39,40)         43.658                                          !
 ! D101  D(17,37,39,41)        -74.2083                                         !
 ! D102  D(17,37,39,42)        164.9558                                         !
 ! D103  D(38,37,39,40)       -163.2047                                         !
 ! D104  D(38,37,39,41)         78.929                                          !
 ! D105  D(38,37,39,42)        -41.9069                                         !
 ! D106  D(37,39,41,45)        -88.4147                                         !
 ! D107  D(37,39,41,52)         86.9639                                         !
 ! D108  D(40,39,41,45)        155.7545                                         !
 ! D109  D(40,39,41,52)        -28.8669                                         !
 ! D110  D(42,39,41,45)         31.6406                                         !
 ! D111  D(42,39,41,52)       -152.9808                                         !
 ! D112  D(37,39,42,43)        -49.753                                          !
 ! D113  D(37,39,42,44)         67.1325                                         !
 ! D114  D(37,39,42,46)       -172.2561                                         !
 ! D115  D(40,39,42,43)         68.9501                                         !
 ! D116  D(40,39,42,44)       -174.1644                                         !
 ! D117  D(40,39,42,46)        -53.5531                                         !
 ! D118  D(41,39,42,43)       -167.6359                                         !
 ! D119  D(41,39,42,44)        -50.7504                                         !
 ! D120  D(41,39,42,46)         69.861                                          !
 ! D121  D(39,41,52,53)          4.5122                                         !
 ! D122  D(39,41,52,54)       -179.466                                          !
 ! D123  D(45,41,52,53)        179.7871                                         !
 ! D124  D(45,41,52,54)         -4.1911                                         !
 ! D125  D(39,42,46,47)        -42.4552                                         !
 ! D126  D(39,42,46,48)         77.3379                                         !
 ! D127  D(39,42,46,49)       -159.987                                          !
 ! D128  D(43,42,46,47)       -164.1296                                         !
 ! D129  D(43,42,46,48)        -44.3365                                         !
 ! D130  D(43,42,46,49)         78.3386                                         !
 ! D131  D(44,42,46,47)         78.2159                                         !
 ! D132  D(44,42,46,48)       -161.9909                                         !
 ! D133  D(44,42,46,49)        -39.3159                                         !
 ! D134  D(42,46,49,50)         13.0084                                         !
 ! D135  D(42,46,49,51)       -167.5548                                         !
 ! D136  D(47,46,49,50)       -108.6253                                         !
 ! D137  D(47,46,49,51)         70.8116                                         !
 ! D138  D(48,46,49,50)        137.2486                                         !
 ! D139  D(48,46,49,51)        -43.3145                                         !
 ! D140  D(46,49,51,121)      -176.1372                                         !
 ! D141  D(50,49,51,121)         3.3151                                         !
 ! D142  D(41,52,54,55)         39.2916                                         !
 ! D143  D(41,52,54,56)        -78.0235                                         !
 ! D144  D(41,52,54,57)        158.8467                                         !
 ! D145  D(53,52,54,55)       -144.6869                                         !
 ! D146  D(53,52,54,56)         97.998                                          !
 ! D147  D(53,52,54,57)        -25.1318                                         !
 ! D148  D(52,54,56,59)        -83.5045                                         !
 ! D149  D(52,54,56,68)         91.3114                                         !
 ! D150  D(55,54,56,59)        161.4084                                         !
 ! D151  D(55,54,56,68)        -23.7757                                         !
 ! D152  D(57,54,56,59)         38.7587                                         !
 ! D153  D(57,54,56,68)       -146.4253                                         !
 ! D154  D(52,54,57,58)         64.1727                                         !
 ! D155  D(52,54,57,60)       -178.7025                                         !
 ! D156  D(52,54,57,64)        -55.6557                                         !
 ! D157  D(55,54,57,58)       -177.842                                          !
 ! D158  D(55,54,57,60)        -60.7171                                         !
 ! D159  D(55,54,57,64)         62.3297                                         !
 ! D160  D(56,54,57,58)        -54.8288                                         !
 ! D161  D(56,54,57,60)         62.296                                          !
 ! D162  D(56,54,57,64)       -174.6571                                         !
 ! D163  D(54,56,68,69)          4.9269                                         !
 ! D164  D(54,56,68,70)       -166.9138                                         !
 ! D165  D(59,56,68,69)        179.5715                                         !
 ! D166  D(59,56,68,70)          7.7308                                         !
 ! D167  D(54,57,60,61)         61.1397                                         !
 ! D168  D(54,57,60,62)       -179.5015                                         !
 ! D169  D(54,57,60,63)        -59.7691                                         !
 ! D170  D(58,57,60,61)        177.5798                                         !
 ! D171  D(58,57,60,62)        -63.0614                                         !
 ! D172  D(58,57,60,63)         56.671                                          !
 ! D173  D(64,57,60,61)        -62.2586                                         !
 ! D174  D(64,57,60,62)         57.1002                                         !
 ! D175  D(64,57,60,63)        176.8326                                         !
 ! D176  D(54,57,64,65)        -60.5524                                         !
 ! D177  D(54,57,64,66)         60.3079                                         !
 ! D178  D(54,57,64,67)       -179.0552                                         !
 ! D179  D(58,57,64,65)       -178.8594                                         !
 ! D180  D(58,57,64,66)        -57.9991                                         !
 ! D181  D(58,57,64,67)         62.6378                                         !
 ! D182  D(60,57,64,65)         61.8549                                         !
 ! D183  D(60,57,64,66)       -177.2849                                         !
 ! D184  D(60,57,64,67)        -56.6479                                         !
 ! D185  D(56,68,70,71)         21.7435                                         !
 ! D186  D(56,68,70,72)        -97.4726                                         !
 ! D187  D(56,68,70,73)        140.252                                          !
 ! D188  D(69,68,70,71)       -150.1168                                         !
 ! D189  D(69,68,70,72)         90.6671                                         !
 ! D190  D(69,68,70,73)        -31.6083                                         !
 ! D191  D(68,70,72,75)        -88.2763                                         !
 ! D192  D(68,70,72,82)         86.9238                                         !
 ! D193  D(71,70,72,75)        155.6039                                         !
 ! D194  D(71,70,72,82)        -29.196                                          !
 ! D195  D(73,70,72,75)         32.0047                                         !
 ! D196  D(73,70,72,82)       -152.7952                                         !
 ! D197  D(68,70,73,74)         67.1116                                         !
 ! D198  D(68,70,73,76)       -173.4115                                         !
 ! D199  D(68,70,73,80)        -53.7675                                         !
 ! D200  D(71,70,73,74)       -176.3793                                         !
 ! D201  D(71,70,73,76)        -56.9025                                         !
 ! D202  D(71,70,73,80)         62.7415                                         !
 ! D203  D(72,70,73,74)        -51.9175                                         !
 ! D204  D(72,70,73,76)         67.5594                                         !
 ! D205  D(72,70,73,80)       -172.7966                                         !
 ! D206  D(70,72,82,83)         11.1693                                         !
 ! D207  D(70,72,82,84)       -169.981                                          !
 ! D208  D(75,72,82,83)       -173.8753                                         !
 ! D209  D(75,72,82,84)          4.9744                                         !
 ! D210  D(70,73,76,77)        -60.5735                                         !
 ! D211  D(70,73,76,78)         60.3408                                         !
 ! D212  D(70,73,76,79)        179.5384                                         !
 ! D213  D(74,73,76,77)         58.0723                                         !
 ! D214  D(74,73,76,78)        178.9866                                         !
 ! D215  D(74,73,76,79)        -61.8158                                         !
 ! D216  D(80,73,76,77)        177.8261                                         !
 ! D217  D(80,73,76,78)        -61.2596                                         !
 ! D218  D(80,73,76,79)         57.9379                                         !
 ! D219  D(70,73,80,81)         70.5703                                         !
 ! D220  D(74,73,80,81)        -48.654                                          !
 ! D221  D(76,73,80,81)       -167.5248                                         !
 ! D222  D(72,82,84,85)        -25.1452                                         !
 ! D223  D(72,82,84,86)       -144.7501                                         !
 ! D224  D(72,82,84,87)         94.6096                                         !
 ! D225  D(83,82,84,85)        153.7581                                         !
 ! D226  D(83,82,84,86)         34.1532                                         !
 ! D227  D(83,82,84,87)        -86.4871                                         !
 ! D228  D(82,84,86,89)        -13.574                                          !
 ! D229  D(82,84,86,98)        169.7142                                         !
 ! D230  D(85,84,86,89)       -131.2772                                         !
 ! D231  D(85,84,86,98)         52.011                                          !
 ! D232  D(87,84,86,89)        108.73                                           !
 ! D233  D(87,84,86,98)        -67.9818                                         !
 ! D234  D(82,84,87,88)       -178.3728                                         !
 ! D235  D(82,84,87,90)        -60.2118                                         !
 ! D236  D(82,84,87,94)         64.6068                                         !
 ! D237  D(85,84,87,88)        -59.3037                                         !
 ! D238  D(85,84,87,90)         58.8573                                         !
 ! D239  D(85,84,87,94)       -176.3241                                         !
 ! D240  D(86,84,87,88)         61.7951                                         !
 ! D241  D(86,84,87,90)        179.9561                                         !
 ! D242  D(86,84,87,94)        -55.2253                                         !
 ! D243  D(84,86,98,99)         12.9027                                         !
 ! D244  D(84,86,98,100)       149.2193                                         !
 ! D245  D(89,86,98,99)       -163.6361                                         !
 ! D246  D(89,86,98,100)       -27.3194                                         !
 ! D247  D(84,87,90,91)         66.2428                                         !
 ! D248  D(84,87,90,92)        -53.7268                                         !
 ! D249  D(84,87,90,93)       -174.3365                                         !
 ! D250  D(88,87,90,91)       -176.8085                                         !
 ! D251  D(88,87,90,92)         63.222                                          !
 ! D252  D(88,87,90,93)        -57.3878                                         !
 ! D253  D(94,87,90,91)        -58.5815                                         !
 ! D254  D(94,87,90,92)       -178.551                                          !
 ! D255  D(94,87,90,93)         60.8392                                         !
 ! D256  D(84,87,94,95)        -57.5679                                         !
 ! D257  D(84,87,94,96)       -177.6012                                         !
 ! D258  D(84,87,94,97)         62.9738                                         !
 ! D259  D(88,87,94,95)       -174.027                                          !
 ! D260  D(88,87,94,96)         65.9398                                         !
 ! D261  D(88,87,94,97)        -53.4853                                         !
 ! D262  D(90,87,94,95)         67.103                                          !
 ! D263  D(90,87,94,96)        -52.9302                                         !
 ! D264  D(90,87,94,97)       -172.3552                                         !
 ! D265  D(86,98,100,101)      -20.8672                                         !
 ! D266  D(86,98,100,102)     -137.7111                                         !
 ! D267  D(86,98,100,103)      100.9692                                         !
 ! D268  D(99,98,100,101)      120.4097                                         !
 ! D269  D(99,98,100,102)        3.5659                                         !
 ! D270  D(99,98,100,103)     -117.7538                                         !
 ! D271  D(98,100,102,106)    -174.4293                                         !
 ! D272  D(98,100,102,120)       4.9883                                         !
 ! D273  D(101,100,102,106)     68.2964                                         !
 ! D274  D(101,100,102,120)   -112.2861                                         !
 ! D275  D(103,100,102,106)    -50.8899                                         !
 ! D276  D(103,100,102,120)    128.5276                                         !
 ! D277  D(98,100,103,104)     169.3576                                         !
 ! D278  D(98,100,103,105)      53.905                                          !
 ! D279  D(98,100,103,107)     -68.1381                                         !
 ! D280  D(101,100,103,104)    -68.707                                          !
 ! D281  D(101,100,103,105)    175.8404                                         !
 ! D282  D(101,100,103,107)     53.7973                                         !
 ! D283  D(102,100,103,104)     50.1941                                         !
 ! D284  D(102,100,103,105)    -65.2584                                         !
 ! D285  D(102,100,103,107)    172.6984                                         !
 ! D286  D(100,103,107,108)    -59.215                                          !
 ! D287  D(100,103,107,109)     56.9448                                         !
 ! D288  D(100,103,107,110)    179.2783                                         !
 ! D289  D(104,103,107,108)     60.6177                                         !
 ! D290  D(104,103,107,109)    176.7775                                         !
 ! D291  D(104,103,107,110)    -60.8889                                         !
 ! D292  D(105,103,107,108)    179.2135                                         !
 ! D293  D(105,103,107,109)    -64.6267                                         !
 ! D294  D(105,103,107,110)     57.7068                                         !
 ! D295  D(103,107,110,111)    -59.1747                                         !
 ! D296  D(103,107,110,112)     58.2189                                         !
 ! D297  D(103,107,110,113)    179.6516                                         !
 ! D298  D(108,107,110,111)    179.3269                                         !
 ! D299  D(108,107,110,112)    -63.2796                                         !
 ! D300  D(108,107,110,113)     58.1532                                         !
 ! D301  D(109,107,110,111)     63.1342                                         !
 ! D302  D(109,107,110,112)   -179.4722                                         !
 ! D303  D(109,107,110,113)    -58.0395                                         !
 ! D304  D(107,110,113,114)     61.8011                                         !
 ! D305  D(107,110,113,115)    -62.3156                                         !
 ! D306  D(107,110,113,116)    179.7778                                         !
 ! D307  D(111,110,113,114)    -59.0887                                         !
 ! D308  D(111,110,113,115)    176.7947                                         !
 ! D309  D(111,110,113,116)     58.8881                                         !
 ! D310  D(112,110,113,114)   -177.0357                                         !
 ! D311  D(112,110,113,115)     58.8477                                         !
 ! D312  D(112,110,113,116)    -59.0589                                         !
 ! D313  D(110,113,116,117)    179.9041                                         !
 ! D314  D(110,113,116,118)    -58.9456                                         !
 ! D315  D(110,113,116,119)     58.7596                                         !
 ! D316  D(114,113,116,117)    -58.0247                                         !
 ! D317  D(114,113,116,118)     63.1256                                         !
 ! D318  D(114,113,116,119)   -179.1692                                         !
 ! D319  D(115,113,116,117)     57.8212                                         !
 ! D320  D(115,113,116,118)    178.9715                                         !
 ! D321  D(115,113,116,119)    -63.3232                                         !
 --------------------------------------------------------------------------------
 Symmetry turned off by external request.
 Stoichiometry    C39H62N9O11(1+)
 Framework group  C1[X(C39H62N9O11)]
 Deg. of freedom   357
 Full point group                 C1      NOp   1
                          Input orientation:                          
 ---------------------------------------------------------------------
 Center     Atomic      Atomic             Coordinates (Angstroms)
 Number     Number       Type             X           Y           Z
 ---------------------------------------------------------------------
      1          7           0       -6.790439   -4.334909   -3.576983
      2          1           0       -7.237833   -4.474087   -2.667273
      3          1           0       -7.039559   -5.118619   -4.186753
      4          1           0       -7.116275   -3.405614   -4.001672
      5          6           0       -5.294253   -4.105586   -3.486667
      6          1           0       -5.000462   -4.224847   -2.441285
      7          6           0       -5.158977   -2.620220   -3.923192
      8          6           0       -4.532372   -5.071366   -4.389991
      9          1           0       -3.460194   -4.867924   -4.327820
     10          1           0       -4.689970   -6.109823   -4.082535
     11          1           0       -4.833008   -4.949883   -5.436145
     12          8           0       -6.188202   -2.046910   -4.321680
     13          7           0       -3.951986   -2.090872   -3.844487
     14          1           0       -3.124123   -2.618815   -3.557342
     15          6           0       -3.622259   -0.726201   -4.241537
     16          1           0       -4.049293   -0.524557   -5.228327
     17          6           0       -2.087840   -0.701914   -4.285347
     18          6           0       -4.170245    0.328325   -3.229263
     19          1           0       -5.195554    0.028825   -2.985499
     20          1           0       -3.582678    0.270859   -2.306211
     21          8           0       -1.441494   -1.675424   -3.870701
     22          6           0       -4.162675    1.711793   -3.797796
     23          6           0       -3.352609    2.769724   -3.439593
     24          1           0       -2.570303    2.824972   -2.695546
     25          6           0       -4.988275    2.169266   -4.890262
     26          6           0       -4.623598    3.518927   -5.148490
     27          6           0       -5.992605    1.567822   -5.668725
     28          1           0       -6.302056    0.543251   -5.477406
     29          7           0       -3.627952    3.850662   -4.247378
     30          1           0       -3.160889    4.743291   -4.191464
     31          6           0       -6.211562    3.650266   -6.917466
     32          1           0       -6.700616    4.206635   -7.711036
     33          6           0       -5.226978    4.272239   -6.159162
     34          1           0       -4.938967    5.302428   -6.345805
     35          6           0       -6.591994    2.314331   -6.674682
     36          1           0       -7.371327    1.867428   -7.284655
     37          7           0       -1.536096    0.436630   -4.735404
     38          1           0       -2.163084    1.223885   -4.882276
     39          6           0       -0.130646    0.770915   -4.466232
     40          1           0        0.453662   -0.137863   -4.632211
     41          6           0       -0.055951    1.188323   -2.980715
     42          6           0        0.324472    1.899624   -5.382717
     43          1           0        0.051070    1.650560   -6.413466
     44          1           0       -0.211912    2.813352   -5.112446
     45          8           0       -0.240495    2.363550   -2.631575
     46          6           0        1.828174    2.162402   -5.280801
     47          1           0        2.181309    2.138877   -4.242612
     48          1           0        2.413042    1.415213   -5.827941
     49          6           0        2.183082    3.542679   -5.788507
     50          8           0        1.392787    4.432712   -6.015261
     51          8           0        3.515618    3.680155   -5.954046
     52          7           0        0.122743    0.179261   -2.111170
     53          1           0        0.264416   -0.754020   -2.476782
     54          6           0        0.206058    0.383196   -0.660140
     55          1           0       -0.532832    1.150935   -0.404940
     56          6           0        1.632270    0.908805   -0.390145
     57          6           0       -0.109956   -0.904164    0.107646
     58          1           0        0.672983   -1.630809   -0.145785
     59          8           0        2.590768    0.151716   -0.274776
     60          6           0       -0.042600   -0.635901    1.615794
     61          1           0       -0.780582    0.119600    1.913887
     62          1           0       -0.258185   -1.551654    2.175641
     63          1           0        0.946096   -0.286993    1.918938
     64          6           0       -1.482810   -1.467862   -0.285056
     65          1           0       -2.275812   -0.742841   -0.055966
     66          1           0       -1.545654   -1.714388   -1.349751
     67          1           0       -1.691989   -2.377248    0.288994
     68          7           0        1.715113    2.257903   -0.410011
     69          1           0        0.859959    2.785669   -0.516530
     70          6           0        2.977880    2.988885   -0.458987
     71          1           0        3.722789    2.296722   -0.862198
     72          6           0        3.321650    3.400995    0.983499
     73          6           0        2.831193    4.197374   -1.397729
     74          1           0        2.126733    4.899072   -0.930108
     75          8           0        2.907880    4.460269    1.454083
     76          6           0        4.162944    4.898385   -1.608889
     77          1           0        4.553835    5.264605   -0.656095
     78          1           0        4.887697    4.210232   -2.058689
     79          1           0        4.029609    5.746959   -2.285733
     80          8           0        2.351709    3.789764   -2.680042
     81          1           0        1.419939    3.518591   -2.602113
     82          7           0        4.003833    2.460793    1.665475
     83          1           0        4.391096    1.656577    1.185556
     84          6           0        4.262148    2.516758    3.090826
     85          1           0        4.235811    3.567643    3.392680
     86          6           0        5.651265    1.913389    3.346283
     87          6           0        3.196329    1.729534    3.911424
     88          1           0        3.459291    1.855259    4.969005
     89          8           0        6.232151    1.263984    2.464894
     90          6           0        1.793022    2.301249    3.685533
     91          1           0        1.465559    2.145790    2.650944
     92          1           0        1.758422    3.376919    3.883015
     93          1           0        1.072561    1.803105    4.344625
     94          6           0        3.245774    0.228492    3.598349
     95          1           0        3.095404    0.039007    2.528525
     96          1           0        2.461598   -0.298765    4.152905
     97          1           0        4.205800   -0.211204    3.884882
     98          7           0        6.104254    2.101802    4.597100
     99          1           0        5.445655    2.432375    5.324295
    100          6           0        6.988410    1.168320    5.285617
    101          1           0        6.911395    0.181941    4.809785
    102          6           0        6.444536    1.053666    6.774834
    103          6           0        8.448105    1.601772    5.292537
    104          1           0        8.967846    0.936043    5.990204
    105          1           0        8.513259    2.620272    5.701050
    106          8           0        7.155856    0.373519    7.532750
    107          6           0        9.090511    1.562323    3.906004
    108          1           0        9.037998    0.542281    3.503991
    109          1           0        8.521944    2.189670    3.210766
    110          6           0       10.554592    2.023173    3.955604
    111          1           0       10.600749    3.049486    4.347533
    112          1           0       11.118319    1.381876    4.648319
    113          6           0       11.179616    1.970595    2.577096
    114          1           0       10.683723    2.633727    1.864776
    115          1           0       11.208986    0.959125    2.165810
    116          7           0       12.643828    2.439945    2.640803
    117          1           0       13.113298    2.420832    1.727972
    118          1           0       12.691663    3.398592    3.005374
    119          1           0       13.176611    1.846383    3.287428
    120          8           0        5.368557    1.681657    6.981463
    121          1           0        3.662406    4.607245   -6.219937
 ---------------------------------------------------------------------
 Rotational constants (GHZ):           0.0663954           0.0159868           0.0143821
 Standard basis: 6-31G(d) (6D, 7F)
  1009 basis functions,  1900 primitive gaussians,  1009 cartesian basis functions
   223 alpha electrons      223 beta electrons
       nuclear repulsion energy      8852.6182941437 Hartrees.
 NAtoms=  121 NActive=  121 NUniq=  121 SFac= 1.00D+00 NAtFMM=   60 NAOKFM=T Big=T
 Integral buffers will be    131072 words long.
 Raffenetti 2 integral format.
 Two-electron integral symmetry is turned off.
 Nuclear repulsion after empirical dispersion term =     8852.3500128129 Hartrees.
 One-electron integrals computed using PRISM.
 NBasis=  1009 RedAO= T EigKep=  3.68D-04  NBF=  1009
 NBsUse=  1009 1.00D-06 EigRej= -1.00D+00 NBFU=  1009
 Initial guess from the checkpoint file:  "conf-231.chk"
 B after Tr=     0.000000    0.000000    0.000000
         Rot=    1.000000    0.000000    0.000000    0.000000 Ang=   0.00 deg.
 Requested convergence on RMS density matrix=1.00D-08 within 128 cycles.
 Requested convergence on MAX density matrix=1.00D-06.
 Requested convergence on             energy=1.00D-06.
 No special actions if energy rises.
 SCF Done:  E(RB3LYP) =  -2843.83069693     A.U. after    3 cycles
            NFock=  3  Conv=0.97D-09     -V/T= 2.0093
 Hyperfine terms turned off by default for NAtoms > 100.

 **********************************************************************

            Population analysis using the SCF Density.

 **********************************************************************

 Alpha  occ. eigenvalues --  -19.28061 -19.24057 -19.23333 -19.20640 -19.18504
 Alpha  occ. eigenvalues --  -19.18326 -19.16783 -19.13503 -19.11898 -19.04372
 Alpha  occ. eigenvalues --  -19.03342 -14.61130 -14.60866 -14.50299 -14.46329
 Alpha  occ. eigenvalues --  -14.45383 -14.44862 -14.41437 -14.37546 -14.33546
 Alpha  occ. eigenvalues --  -10.44544 -10.42171 -10.39888 -10.37476 -10.37342
 Alpha  occ. eigenvalues --  -10.36831 -10.35016 -10.34697 -10.33999 -10.32179
 Alpha  occ. eigenvalues --  -10.30876 -10.30026 -10.29562 -10.29543 -10.29014
 Alpha  occ. eigenvalues --  -10.28716 -10.28409 -10.27747 -10.26624 -10.26374
 Alpha  occ. eigenvalues --  -10.26059 -10.26001 -10.25735 -10.25644 -10.25544
 Alpha  occ. eigenvalues --  -10.25544 -10.25099 -10.24889 -10.24839 -10.23687
 Alpha  occ. eigenvalues --  -10.23150 -10.22675 -10.22306 -10.21121 -10.20134
 Alpha  occ. eigenvalues --  -10.19725 -10.19270 -10.18527 -10.18175  -1.20422
 Alpha  occ. eigenvalues --   -1.15264  -1.15059  -1.14983  -1.14608  -1.12316
 Alpha  occ. eigenvalues --   -1.08778  -1.07136  -1.06054  -1.05965  -1.05303
 Alpha  occ. eigenvalues --   -1.05257  -1.03216  -1.03176  -1.01016  -0.97611
 Alpha  occ. eigenvalues --   -0.97376  -0.94489  -0.94193  -0.91195  -0.91125
 Alpha  occ. eigenvalues --   -0.90331  -0.90177  -0.88547  -0.88048  -0.87059
 Alpha  occ. eigenvalues --   -0.85374  -0.82706  -0.82301  -0.81610  -0.81006
 Alpha  occ. eigenvalues --   -0.80636  -0.80434  -0.79551  -0.78104  -0.76998
 Alpha  occ. eigenvalues --   -0.75872  -0.75086  -0.74874  -0.74819  -0.73638
 Alpha  occ. eigenvalues --   -0.73597  -0.73284  -0.72176  -0.71570  -0.70919
 Alpha  occ. eigenvalues --   -0.69435  -0.69390  -0.69216  -0.67530  -0.67142
 Alpha  occ. eigenvalues --   -0.66941  -0.66510  -0.64874  -0.64784  -0.64335
 Alpha  occ. eigenvalues --   -0.63883  -0.63542  -0.63294  -0.63142  -0.61612
 Alpha  occ. eigenvalues --   -0.61115  -0.60812  -0.60532  -0.60362  -0.59140
 Alpha  occ. eigenvalues --   -0.58975  -0.58154  -0.58006  -0.57959  -0.57118
 Alpha  occ. eigenvalues --   -0.56991  -0.56529  -0.56178  -0.55578  -0.55423
 Alpha  occ. eigenvalues --   -0.55126  -0.54919  -0.54516  -0.54225  -0.53834
 Alpha  occ. eigenvalues --   -0.53550  -0.52883  -0.52774  -0.52427  -0.52192
 Alpha  occ. eigenvalues --   -0.51734  -0.51279  -0.51038  -0.50891  -0.50485
 Alpha  occ. eigenvalues --   -0.50167  -0.50077  -0.49978  -0.49049  -0.48751
 Alpha  occ. eigenvalues --   -0.48683  -0.48299  -0.47998  -0.47734  -0.47607
 Alpha  occ. eigenvalues --   -0.47253  -0.46614  -0.46500  -0.46246  -0.46052
 Alpha  occ. eigenvalues --   -0.45639  -0.45409  -0.45235  -0.45058  -0.44726
 Alpha  occ. eigenvalues --   -0.44518  -0.44014  -0.43824  -0.43546  -0.43020
 Alpha  occ. eigenvalues --   -0.42649  -0.42562  -0.42419  -0.42302  -0.42156
 Alpha  occ. eigenvalues --   -0.41847  -0.41185  -0.41036  -0.40748  -0.40644
 Alpha  occ. eigenvalues --   -0.40616  -0.40374  -0.40310  -0.40210  -0.39954
 Alpha  occ. eigenvalues --   -0.39856  -0.39480  -0.39303  -0.39147  -0.38397
 Alpha  occ. eigenvalues --   -0.37939  -0.37343  -0.36813  -0.36602  -0.36295
 Alpha  occ. eigenvalues --   -0.36174  -0.35249  -0.35117  -0.34746  -0.34608
 Alpha  occ. eigenvalues --   -0.34316  -0.33899  -0.33666  -0.33619  -0.32309
 Alpha  occ. eigenvalues --   -0.31711  -0.31424  -0.31353  -0.30128  -0.29364
 Alpha  occ. eigenvalues --   -0.27788  -0.27343  -0.26589  -0.25789  -0.25228
 Alpha  occ. eigenvalues --   -0.19526  -0.19203  -0.17626
 Alpha virt. eigenvalues --   -0.13240  -0.12002  -0.11889  -0.09541  -0.08289
 Alpha virt. eigenvalues --   -0.07159  -0.06855  -0.05394  -0.05262  -0.05021
 Alpha virt. eigenvalues --   -0.04393  -0.03395  -0.03031  -0.02465  -0.01917
 Alpha virt. eigenvalues --   -0.01901  -0.01704  -0.00352   0.00006   0.00598
 Alpha virt. eigenvalues --    0.00753   0.01366   0.01402   0.01639   0.02016
 Alpha virt. eigenvalues --    0.02108   0.02563   0.02971   0.03067   0.03429
 Alpha virt. eigenvalues --    0.03757   0.04019   0.04673   0.05153   0.05173
[...]
 Alpha virt. eigenvalues --    0.85922   0.86261   0.86320   0.86436   0.86656
 Alpha virt. eigenvalues --    0.87065   0.87528   0.87690   0.87909   0.87971
 Alpha virt. eigenvalues --    0.88691   0.88781   0.89139   0.89403   0.89563
 Alpha virt. eigenvalues --    0.89903   0.90275   0.90428   0.90610   0.90932
 Alpha virt. eigenvalues --    0.90994   0.91604   0.91758   0.92182   0.92387
 Alpha virt. eigenvalues --    0.92855   0.93137   0.93285   0.93605   0.93668
 Alpha virt. eigenvalues --    0.93910   0.94700   0.95422   0.95622   0.96051
 Alpha virt. eigenvalues --    0.96644   0.96919   0.97225   0.97417   0.97873
 Alpha virt. eigenvalues --    0.98673   0.99148   0.99789   0.99854   1.00015
 Alpha virt. eigenvalues --    1.00597   1.01066   1.01627   1.02114   1.02429
 Alpha virt. eigenvalues --    1.02829   1.03802   1.04653   1.04772   1.05951
 Alpha virt. eigenvalues --    1.06423   1.07005   1.07103   1.07515   1.07748
 Alpha virt. eigenvalues --    1.07883   1.08612   1.08803   1.09384   1.09878
 Alpha virt. eigenvalues --    1.10474   1.11066   1.11806   1.12135   1.13127
 Alpha virt. eigenvalues --    1.13359   1.14156   1.14553   1.14847   1.15477
 Alpha virt. eigenvalues --    1.15750   1.15816   1.16210   1.16922   1.17067
 Alpha virt. eigenvalues --    1.17957   1.18169   1.18552   1.18842   1.19390
 Alpha virt. eigenvalues --    1.19776   1.20044   1.20306   1.20645   1.21154
 Alpha virt. eigenvalues --    1.21692   1.22086   1.22849   1.23518   1.23953
 Alpha virt. eigenvalues --    1.24867   1.25139   1.26136   1.26843   1.27639
 Alpha virt. eigenvalues --    1.27987   1.28585   1.28860   1.29337   1.29897
 Alpha virt. eigenvalues --    1.30284   1.30869   1.31381   1.31829   1.32044
 Alpha virt. eigenvalues --    1.32478   1.33839   1.34349   1.34710   1.35064
 Alpha virt. eigenvalues --    1.35660   1.36869   1.37533   1.37689   1.38176
 Alpha virt. eigenvalues --    1.38934   1.39560   1.40130   1.40315   1.40700
 Alpha virt. eigenvalues --    1.41262   1.41925   1.42302   1.42854   1.43221
 Alpha virt. eigenvalues --    1.43420   1.43464   1.43972   1.44132   1.44960
 Alpha virt. eigenvalues --    1.45498   1.46092   1.46369   1.47223   1.47901
 Alpha virt. eigenvalues --    1.48151   1.48569   1.49931   1.50630   1.51816
 Alpha virt. eigenvalues --    1.52734   1.53114   1.53225   1.53873   1.54030
 Alpha virt. eigenvalues --    1.54402   1.54678   1.55551   1.56124   1.57165
 Alpha virt. eigenvalues --    1.58016   1.58255   1.59052   1.59769   1.60991
 Alpha virt. eigenvalues --    1.61338   1.61766   1.62635   1.62895   1.63341
 Alpha virt. eigenvalues --    1.63439   1.64051   1.64607   1.65336   1.65911
 Alpha virt. eigenvalues --    1.66562   1.66634   1.67293   1.67402   1.68117
 Alpha virt. eigenvalues --    1.68561   1.68837   1.69610   1.69709   1.70339
 Alpha virt. eigenvalues --    1.70835   1.71160   1.71255   1.72094   1.72226
 Alpha virt. eigenvalues --    1.72416   1.72675   1.73809   1.74170   1.74258
 Alpha virt. eigenvalues --    1.74768   1.74931   1.75110   1.75229   1.75507
 Alpha virt. eigenvalues --    1.76023   1.76317   1.77140   1.77389   1.77497
 Alpha virt. eigenvalues --    1.78096   1.78255   1.78782   1.79013   1.79225
 Alpha virt. eigenvalues --    1.80209   1.80388   1.80682   1.81066   1.81541
 Alpha virt. eigenvalues --    1.81585   1.81775   1.82248   1.82704   1.83253
 Alpha virt. eigenvalues --    1.83476   1.83549   1.84120   1.84724   1.85070
 Alpha virt. eigenvalues --    1.85456   1.85644   1.86014   1.86205   1.86443
 Alpha virt. eigenvalues --    1.87351   1.87445   1.87614   1.87871   1.88579
 Alpha virt. eigenvalues --    1.89009   1.89590   1.89701   1.90027   1.90386
 Alpha virt. eigenvalues --    1.90628   1.90636   1.91095   1.91905   1.91989
 Alpha virt. eigenvalues --    1.92294   1.92710   1.93177   1.93346   1.93525
 Alpha virt. eigenvalues --    1.94110   1.94216   1.94391   1.94578   1.95172
 Alpha virt. eigenvalues --    1.95404   1.95531   1.95853   1.97013   1.97276
 Alpha virt. eigenvalues --    1.97357   1.98030   1.98321   1.98477   1.98656
 Alpha virt. eigenvalues --    1.99544   2.00062   2.00261   2.00710   2.00846
 Alpha virt. eigenvalues --    2.01639   2.02865   2.02880   2.03334   2.03623
 Alpha virt. eigenvalues --    2.03789   2.04553   2.04574   2.05133   2.05235
 Alpha virt. eigenvalues --    2.05979   2.06244   2.06560   2.07139   2.07615
 Alpha virt. eigenvalues --    2.07895   2.08449   2.08796   2.09749   2.10176
 Alpha virt. eigenvalues --    2.10628   2.10914   2.11019   2.11791   2.12400
 Alpha virt. eigenvalues --    2.12661   2.13039   2.13994   2.14178   2.14269
 Alpha virt. eigenvalues --    2.14566   2.14830   2.15023   2.16275   2.16777
 Alpha virt. eigenvalues --    2.17171   2.17942   2.18277   2.18434   2.19101
 Alpha virt. eigenvalues --    2.19266   2.19398   2.19587   2.20319   2.20392
 Alpha virt. eigenvalues --    2.21694   2.22248   2.22546   2.23554   2.23632
 Alpha virt. eigenvalues --    2.24187   2.24426   2.25018   2.25442   2.26221
 Alpha virt. eigenvalues --    2.26432   2.27889   2.28566   2.29453   2.30298
 Alpha virt. eigenvalues --    2.30644   2.31029   2.31282   2.31915   2.32092
 Alpha virt. eigenvalues --    2.32751   2.33051   2.33508   2.33674   2.34949
 Alpha virt. eigenvalues --    2.36010   2.36639   2.37134   2.37532   2.38109
 Alpha virt. eigenvalues --    2.38715   2.39759   2.40060   2.40386   2.41052
 Alpha virt. eigenvalues --    2.41668   2.42238   2.42532   2.43445   2.43734
 Alpha virt. eigenvalues --    2.44213   2.44438   2.45286   2.45780   2.46335
 Alpha virt. eigenvalues --    2.47312   2.47799   2.48733   2.49425   2.50326
 Alpha virt. eigenvalues --    2.50901   2.51420   2.51974   2.52358   2.53417
 Alpha virt. eigenvalues --    2.53818   2.54159   2.54215   2.55061   2.56254
 Alpha virt. eigenvalues --    2.56513   2.56865   2.57353   2.57799   2.58518
 Alpha virt. eigenvalues --    2.59374   2.59530   2.60277   2.61407   2.61875
 Alpha virt. eigenvalues --    2.62310   2.62368   2.64129   2.64290   2.66028
 Alpha virt. eigenvalues --    2.66799   2.67050   2.67484   2.68121   2.68810
 Alpha virt. eigenvalues --    2.69730   2.71222   2.71840   2.72144   2.73097
 Alpha virt. eigenvalues --    2.73703   2.75084   2.76358   2.76554   2.78777
 Alpha virt. eigenvalues --    2.78909   2.79318   2.79431   2.80484   2.81579
 Alpha virt. eigenvalues --    2.82218   2.82694   2.85505   2.86049   2.86133
 Alpha virt. eigenvalues --    2.87995   2.89096   2.89709   2.90833   2.91969
 Alpha virt. eigenvalues --    2.93012   2.93539   2.94814   2.95687   2.97031
 Alpha virt. eigenvalues --    2.98041   2.98889   2.99254   2.99622   3.01887
 Alpha virt. eigenvalues --    3.04046   3.05907   3.06491   3.07041   3.10109
 Alpha virt. eigenvalues --    3.11047   3.12642   3.13511   3.17942   3.19129
 Alpha virt. eigenvalues --    3.23336   3.37528   3.57969   3.62707   3.78589
 Alpha virt. eigenvalues --    3.89545   3.92334   3.94286   3.95989   3.96054
 Alpha virt. eigenvalues --    3.98177   3.99899   4.02001   4.03049   4.03265
 Alpha virt. eigenvalues --    4.05577   4.07040   4.07130   4.08251   4.10026
 Alpha virt. eigenvalues --    4.11029   4.14242   4.15291   4.16213   4.16700
 Alpha virt. eigenvalues --    4.18030   4.18826   4.20803   4.21335   4.21728
 Alpha virt. eigenvalues --    4.23182   4.24220   4.26437   4.26720   4.28709
 Alpha virt. eigenvalues --    4.29017   4.29352   4.33527   4.34103   4.34561
 Alpha virt. eigenvalues --    4.35892   4.36366   4.36828   4.38963   4.40350
 Alpha virt. eigenvalues --    4.41406   4.41572   4.46058   4.48952   4.49859
 Alpha virt. eigenvalues --    4.50651   4.52238   4.52519   4.54002   4.56061
 Alpha virt. eigenvalues --    4.59940   4.61048   4.64310   4.65948   4.71042
 Alpha virt. eigenvalues --    4.73143
          Condensed to atoms (all electrons):
 Mulliken charges:
               1
     1  N   -0.758467
     2  H    0.419825
     3  H    0.416234
     4  H    0.438689
     5  C   -0.107222
     6  H    0.229107
     7  C    0.657363
     8  C   -0.484622
     9  H    0.220862
    10  H    0.198785
    11  H    0.197629
    12  O   -0.540919
    13  N   -0.613201
    14  H    0.379507
    15  C   -0.062818
    16  H    0.210991
    17  C    0.628367
    18  C   -0.365419
    19  H    0.182493
    20  H    0.171885
    21  O   -0.560938
    22  C   -0.008258
    23  C   -0.012564
    24  H    0.198425
    25  C    0.093710
    26  C    0.309712
    27  C   -0.225068
    28  H    0.135892
    29  N   -0.681733
    30  H    0.348976
    31  C   -0.148337
    32  H    0.143225
    33  C   -0.156048
    34  H    0.145396
    35  C   -0.139328
    36  H    0.131959
    37  N   -0.602586
    38  H    0.373386
    39  C   -0.060388
    40  H    0.178723
    41  C    0.635380
    42  C   -0.286444
    43  H    0.159821
    44  H    0.188448
    45  O   -0.572569
    46  C   -0.391003
    47  H    0.215540
    48  H    0.174059
    49  C    0.611642
    50  O   -0.470861
    51  O   -0.566689
    52  N   -0.592065
    53  H    0.362889
    54  C   -0.036725
    55  H    0.154833
    56  C    0.633980
    57  C   -0.103048
    58  H    0.160085
    59  O   -0.533504
    60  C   -0.475765
    61  H    0.142659
    62  H    0.153035
    63  H    0.204998
    64  C   -0.476547
    65  H    0.139686
    66  H    0.141577
    67  H    0.148558
    68  N   -0.603361
    69  H    0.341645
    70  C   -0.058280
    71  H    0.168037
    72  C    0.640066
    73  C    0.110720
    74  H    0.145206
    75  O   -0.551031
    76  C   -0.460664
    77  H    0.173183
    78  H    0.146073
    79  H    0.156773
    80  O   -0.662825
    81  H    0.426545
    82  N   -0.596060
    83  H    0.354399
    84  C   -0.069702
    85  H    0.176142
    86  C    0.596469
    87  C   -0.086490
    88  H    0.181801
    89  O   -0.588179
    90  C   -0.452083
    91  H    0.125873
    92  H    0.160747
    93  H    0.136353
    94  C   -0.481719
    95  H    0.152680
    96  H    0.138251
    97  H    0.171750
    98  N   -0.601030
    99  H    0.360242
   100  C   -0.081642
   101  H    0.136546
   102  C    0.581163
   103  C   -0.253371
   104  H    0.163656
   105  H    0.125989
   106  O   -0.590099
   107  C   -0.263398
   108  H    0.149651
   109  H    0.170864
   110  C   -0.290860
   111  H    0.158101
   112  H    0.160597
   113  C   -0.205920
   114  H    0.225473
   115  H    0.223579
   116  N   -0.730416
   117  H    0.419829
   118  H    0.422084
   119  H    0.422437
   120  O   -0.614220
   121  H    0.413233
 Sum of Mulliken charges =   1.00000
 Mulliken charges with hydrogens summed into heavy atoms:
               1
     1  N    0.516281
     5  C    0.121885
     7  C    0.657363
     8  C    0.132654
    12  O   -0.540919
    13  N   -0.233694
    15  C    0.148173
    17  C    0.628367
    18  C   -0.011041
    21  O   -0.560938
    22  C   -0.008258
    23  C    0.185861
    25  C    0.093710
    26  C    0.309712
    27  C   -0.089176
    29  N   -0.332757
    31  C   -0.005112
    33  C   -0.010652
    35  C   -0.007369
    37  N   -0.229200
    39  C    0.118335
    41  C    0.635380
    42  C    0.061824
    45  O   -0.572569
    46  C   -0.001404
    49  C    0.611642
    50  O   -0.470861
    51  O   -0.153456
    52  N   -0.229176
    54  C    0.118108
    56  C    0.633980
    57  C    0.057037
    59  O   -0.533504
    60  C    0.024926
    64  C   -0.046727
    68  N   -0.261716
    70  C    0.109756
    72  C    0.640066
    73  C    0.255926
    75  O   -0.551031
    76  C    0.015365
    80  O   -0.236281
    82  N   -0.241661
    84  C    0.106440
    86  C    0.596469
    87  C    0.095310
    89  O   -0.588179
    90  C   -0.029111
    94  C   -0.019038
    98  N   -0.240788
   100  C    0.054905
   102  C    0.581163
   103  C    0.036274
   106  O   -0.590099
   107  C    0.057116
   110  C    0.027838
   113  C    0.243133
   116  N    0.533934
   120  O   -0.614220
 Electronic spatial extent (au):  <R**2>=          78520.9116
 Charge=              1.0000 electrons
 Dipole moment (field-independent basis, Debye):
    X=              2.6861    Y=            -10.4665    Z=            -28.2829  Tot=             30.2768
 Quadrupole moment (field-independent basis, Debye-Ang):
   XX=            293.6166   YY=           -240.6249   ZZ=           -417.2052
   XY=            205.2759   XZ=             72.8998   YZ=             52.0878
 Traceless Quadrupole moment (field-independent basis, Debye-Ang):
   XX=            415.0211   YY=           -119.2204   ZZ=           -295.8007
   XY=            205.2759   XZ=             72.8998   YZ=             52.0878
 Octapole moment (field-independent basis, Debye-Ang**2):
  XXX=           5154.4681  YYY=          -1625.0109  ZZZ=           -456.3382  XYY=           -639.8681
  XXY=            338.3700  XXZ=            538.3544  XZZ=          -1360.8197  YZZ=           -668.9755
  YYZ=            -14.3299  XYZ=           -140.2325
 Hexadecapole moment (field-independent basis, Debye-Ang**3):
 XXXX=          51334.9367 YYYY=         -11864.7803 ZZZZ=         -43500.9753 XXXY=          18534.3827
 XXXZ=           4116.3208 YYYX=          -2347.8430 YYYZ=           1837.4140 ZZZX=         -20154.2999
 ZZZY=            523.1499 XXYY=          -3203.9188 XXZZ=         -14190.0218 YYZZ=          -6676.2126
 XXYZ=           5792.7534 YYXZ=          -2055.6517 ZZXY=           -420.8033
 N-N= 8.852350012813D+03 E-N=-2.430441168357D+04  KE= 2.817671040788D+03
 Unable to Open any file for archive entry.
 1\1\GINC-LAC-251\SP\RB3LYP\6-31G(d)\C39H62N9O11(1+)\KENGMITH\10-Jul-20
 22\0\\# B3LYP/6-31G* empiricaldispersion=gd3bj guess=read geom=check n
 osymm integral(ultrafinegrid)\\Candidate Structure: Conf:231 Charge ca
 lc in gas phase\\1,1\N,0,-6.7904385726,-4.3349092563,-3.576983123\H,0,
 -7.2378325203,-4.4740872525,-2.6672731469\H,0,-7.0395587964,-5.1186193
 917,-4.1867527425\H,0,-7.1162751623,-3.4056140547,-4.0016717323\C,0,-5
 .2942530003,-4.1055858575,-3.4866673755\H,0,-5.0004615046,-4.224847113
 2,-2.4412851892\C,0,-5.1589774978,-2.620219973,-3.9231918469\C,0,-4.53
 23724163,-5.0713660132,-4.3899905989\H,0,-3.4601936957,-4.8679235122,-
 4.3278199985\H,0,-4.6899697332,-6.109822656,-4.0825349045\H,0,-4.83300
 84895,-4.9498826631,-5.4361446144\O,0,-6.1882023125,-2.0469099092,-4.3
 216804826\N,0,-3.9519859527,-2.0908722916,-3.8444866221\H,0,-3.1241233
 321,-2.6188150089,-3.5573421223\C,0,-3.6222588424,-0.7262014567,-4.241
 5368783\H,0,-4.049292501,-0.5245569886,-5.2283270086\C,0,-2.0878404555
 ,-0.7019143659,-4.2853466747\C,0,-4.1702452579,0.3283253196,-3.2292631
 395\H,0,-5.1955542735,0.0288253394,-2.9854990556\H,0,-3.582678152,0.27
 08588684,-2.3062114029\O,0,-1.4414938843,-1.6754244702,-3.8707006679\C
 ,0,-4.1626751876,1.7117934778,-3.7977955109\C,0,-3.3526093516,2.769724
 0514,-3.4395928906\H,0,-2.5703031856,2.8249716563,-2.69554577\C,0,-4.9
 882747125,2.1692655646,-4.8902616748\C,0,-4.6235977076,3.5189273839,-5
 .1484903881\C,0,-5.992605287,1.5678215447,-5.6687248947\H,0,-6.3020558
 757,0.5432513345,-5.4774061873\N,0,-3.6279515081,3.8506620541,-4.24737
 80332\H,0,-3.1608886309,4.7432909091,-4.1914636757\C,0,-6.2115622452,3
 .6502659966,-6.9174663269\H,0,-6.7006157152,4.2066347519,-7.7110363146
 \C,0,-5.2269782314,4.2722393975,-6.1591616356\H,0,-4.9389666373,5.3024
 283337,-6.345805159\C,0,-6.5919943225,2.3143309538,-6.6746821074\H,0,-
 7.3713272579,1.8674283652,-7.2846545643\N,0,-1.5360956217,0.4366299499
 ,-4.735403618\H,0,-2.1630839275,1.2238851583,-4.8822757134\C,0,-0.1306
 458998,0.7709146991,-4.4662318887\H,0,0.4536617065,-0.1378633483,-4.63
 22108447\C,0,-0.0559506237,1.1883231194,-2.9807150941\C,0,0.3244720924
 ,1.8996235824,-5.3827173171\H,0,0.0510698585,1.6505595858,-6.413466354
 8\H,0,-0.2119119133,2.8133518175,-5.1124456409\O,0,-0.2404950124,2.363
 5497534,-2.6315750932\C,0,1.8281737126,2.1624016089,-5.2808007777\H,0,
 2.1813089421,2.1388766406,-4.2426115255\H,0,2.4130422119,1.4152129339,
 -5.8279410384\C,0,2.1830824599,3.5426793118,-5.7885073046\O,0,1.392787
 4633,4.43271222,-6.0152606968\O,0,3.5156181718,3.6801550178,-5.9540461
 091\N,0,0.1227432424,0.1792605574,-2.1111702263\H,0,0.2644162064,-0.75
 4020036,-2.4767817622\C,0,0.2060578877,0.3831963849,-0.6601400903\H,0,
 -0.5328323806,1.1509348961,-0.4049400876\C,0,1.6322696114,0.908805427,
 -0.390145074\C,0,-0.1099560467,-0.904164114,0.1076461291\H,0,0.6729825
 807,-1.6308094346,-0.1457845769\O,0,2.5907680707,0.1517158231,-0.27477
 62812\C,0,-0.0425995703,-0.6359009971,1.615793931\H,0,-0.7805821076,0.
 1195998529,1.9138872364\H,0,-0.2581853813,-1.5516543187,2.175641178\H,
 0,0.9460961291,-0.2869928553,1.9189375649\C,0,-1.4828100728,-1.4678617
 066,-0.2850562797\H,0,-2.2758116496,-0.7428405635,-0.0559657653\H,0,-1
 .54565421,-1.7143876774,-1.3497511517\H,0,-1.6919889467,-2.377247554,0
 .2889940002\N,0,1.715113087,2.257902654,-0.4100109699\H,0,0.859959043,
 2.7856691412,-0.5165299799\C,0,2.9778796401,2.9888848668,-0.4589872025
 \H,0,3.7227891358,2.2967216614,-0.8621979161\C,0,3.3216498316,3.400994
 9796,0.9834990844\C,0,2.8311927257,4.1973743448,-1.397729272\H,0,2.126
 733119,4.8990717348,-0.9301077725\O,0,2.9078803872,4.4602691483,1.4540
 834224\C,0,4.1629440501,4.8983851593,-1.6088893618\H,0,4.5538354838,5.
 2646048551,-0.6560948009\H,0,4.8876967385,4.2102315214,-2.0586887843\H
 ,0,4.0296092349,5.7469589954,-2.2857328703\O,0,2.3517094731,3.78976405
 14,-2.6800416286\H,0,1.4199385966,3.5185906295,-2.6021133863\N,0,4.003
 8333727,2.4607931622,1.6654747532\H,0,4.3910960187,1.6565773988,1.1855
 560835\C,0,4.2621480574,2.516758411,3.0908263063\H,0,4.2358106977,3.56
 76432068,3.3926797848\C,0,5.6512649608,1.9133891767,3.3462830943\C,0,3
 .1963290298,1.7295339872,3.9114236347\H,0,3.4592909142,1.8552589924,4.
 9690045423\O,0,6.2321507235,1.2639840712,2.4648935591\C,0,1.7930222823
 ,2.3012486047,3.6855328787\H,0,1.4655588516,2.1457903243,2.6509440827\
 H,0,1.7584217782,3.3769193281,3.8830149994\H,0,1.0725609822,1.80310544
 72,4.3446246542\C,0,3.2457744701,0.228492397,3.5983485964\H,0,3.095403
 6847,0.0390065264,2.5285254463\H,0,2.4615979597,-0.2987653451,4.152905
 2886\H,0,4.2058003809,-0.2112037927,3.8848824493\N,0,6.1042535737,2.10
 18016111,4.5971002215\H,0,5.4456549368,2.4323751362,5.3242948789\C,0,6
 .9884098494,1.1683199268,5.2856167896\H,0,6.9113949752,0.1819413062,4.
 8097847444\C,0,6.4445361673,1.0536659628,6.7748336919\C,0,8.4481053713
 ,1.6017719694,5.2925370747\H,0,8.9678463852,0.9360429618,5.9902041386\
 H,0,8.5132586826,2.6202716303,5.7010497573\O,0,7.1558556205,0.37351853
 13,7.5327500585\C,0,9.0905110058,1.5623232546,3.9060039105\H,0,9.03799
 84855,0.5422814713,3.5039910105\H,0,8.5219437452,2.1896697577,3.210766
 1228\C,0,10.5545922204,2.0231732981,3.9556042755\H,0,10.6007491247,3.0
 494858052,4.3475325599\H,0,11.1183185204,1.3818763627,4.6483187133\C,0
 ,11.1796162021,1.9705954907,2.5770959967\H,0,10.6837234568,2.633727187
 1,1.8647764799\H,0,11.2089861707,0.9591246902,2.1658099691\N,0,12.6438
 27503,2.4399453446,2.6408026553\H,0,13.1132980166,2.4208317432,1.72797
 22907\H,0,12.6916634331,3.3985921957,3.0053744431\H,0,13.1766110372,1.
 8463833981,3.2874281012\O,0,5.3685574353,1.6816573202,6.9814629248\H,0
 ,3.6624056155,4.6072449224,-6.2199373714\\Version=ES64L-G16RevC.01\HF=
 -2843.8306969\RMSD=9.660e-10\Dipole=-0.9614361,-6.4787546,-9.227791\Qu
 adrupole=308.5580236,-88.6374532,-219.9205703,152.617598,54.1992298,38
 .7259888\PG=C01 [X(C39H62N9O11)]\\@
 The archive entry for this job was punched.


 WHEN HAVING A MEETING OF THE MINDS,
 MAKE SURE YOU HAVE THE EQUIPMENT FOR IT.
 Job cpu time:       0 days  0 hours  9 minutes  7.3 seconds.
 Elapsed time:       0 days  0 hours  2 minutes 17.7 seconds.
 File lengths (MBytes):  RWF=    648 Int=      0 D2E=      0 Chk=    104 Scr=     16
 Normal termination of Gaussian 16 at Sun Jul 10 13:38:35 2022.
