 Entering Gaussian System, Link 0=/opt/software/Gaussian/g16-AVX2-C.01/g16/g16
 Input=charge-conf-669.com
 Output=charge-conf-669.log
 Initial command:
 /opt/software/Gaussian/g16-AVX2-C.01/g16/l1.exe "/mnt/gs18/scratch/users/kengmith/Gau-822.inp" -scrdir="/mnt/gs18/scratch/users/kengmith/"
 Entering Link 1 = /opt/software/Gaussian/g16-AVX2-C.01/g16/l1.exe PID=       832.
  
 Copyright (c) 1988-2019, Gaussian, Inc.  All Rights Reserved.
  
 This is part of the Gaussian(R) 16 program.  It is based on
 the Gaussian(R) 09 system (copyright 2009, Gaussian, Inc.),
 the Gaussian(R) 03 system (copyright 2003, Gaussian, Inc.),
 the Gaussian(R) 98 system (copyright 1998, Gaussian, Inc.),
 the Gaussian(R) 94 system (copyright 1995, Gaussian, Inc.),
 the Gaussian 92(TM) system (copyright 1992, Gaussian, Inc.),
 the Gaussian 90(TM) system (copyright 1990, Gaussian, Inc.),
 the Gaussian 88(TM) system (copyright 1988, Gaussian, Inc.),
 the Gaussian 86(TM) system (copyright 1986, Carnegie Mellon
 University), and the Gaussian 82(TM) system (copyright 1983,
 Carnegie Mellon University). Gaussian is a federally registered
 trademark of Gaussian, Inc.
  
 This software contains proprietary and confidential information,
 including trade secrets, belonging to Gaussian, Inc.
  
 This software is provided under written license and may be
 used, copied, transmitted, or stored only in accord with that
 written license.
  
 The following legend is applicable only to US Government
 contracts under FAR:
  
                    RESTRICTED RIGHTS LEGEND
  
 Use, reproduction and disclosure by the US Government is
 subject to restrictions as set forth in subparagraphs (a)
 and (c) of the Commercial Computer Software - Restricted
 Rights clause in FAR 52.227-19.
  
 Gaussian, Inc.
 340 Quinnipiac St., Bldg. 40, Wallingford CT 06492
  
  
 ---------------------------------------------------------------
 Warning -- This program may not be used in any manner that
 competes with the business of Gaussian, Inc. or will provide
 assistance to any competitor of Gaussian, Inc.  The licensee
 of this program is prohibited from giving any competitor of
 Gaussian, Inc. access to this program.  By using this program,
 the user acknowledges that Gaussian, Inc. is engaged in the
 business of creating and licensing software in the field of
 computational chemistry and represents and warrants to the
 licensee that it is not a competitor of Gaussian, Inc. and that
 it will not use this program in any manner prohibited above.
 ---------------------------------------------------------------
  

 Cite this work as:
 Gaussian 16, Revision C.01,
 M. J. Frisch, G. W. Trucks, H. B. Schlegel, G. E. Scuseria, 
 M. A. Robb, J. R. Cheeseman, G. Scalmani, V. Barone, 
 G. A. Petersson, H. Nakatsuji, X. Li, M. Caricato, A. V. Marenich, 
 J. Bloino, B. G. Janesko, R. Gomperts, B. Mennucci, H. P. Hratchian, 
 J. V. Ortiz, A. F. Izmaylov, J. L. Sonnenberg, D. Williams-Young, 
 F. Ding, F. Lipparini, F. Egidi, J. Goings, B. Peng, A. Petrone, 
 T. Henderson, D. Ranasinghe, V. G. Zakrzewski, J. Gao, N. Rega, 
 G. Zheng, W. Liang, M. Hada, M. Ehara, K. Toyota, R. Fukuda, 
 J. Hasegawa, M. Ishida, T. Nakajima, Y. Honda, O. Kitao, H. Nakai, 
 T. Vreven, K. Throssell, J. A. Montgomery, Jr., J. E. Peralta, 
 F. Ogliaro, M. J. Bearpark, J. J. Heyd, E. N. Brothers, K. N. Kudin, 
 V. N. Staroverov, T. A. Keith, R. Kobayashi, J. Normand, 
 K. Raghavachari, A. P. Rendell, J. C. Burant, S. S. Iyengar, 
 J. Tomasi, M. Cossi, J. M. Millam, M. Klene, C. Adamo, R. Cammi, 
 J. W. Ochterski, R. L. Martin, K. Morokuma, O. Farkas, 
 J. B. Foresman, and D. J. Fox, Gaussian, Inc., Wallingford CT, 2019.
 
 ******************************************
 Gaussian 16:  ES64L-G16RevC.01  3-Jul-2019
                17-Jun-2022 
 ******************************************
 %mem=8gb
 %nproc=4
 Will use up to    4 processors via shared memory.
 %chk=conf-669.chk
 ----------------------------------------------------------------------
 # B3LYP/6-31G* empiricaldispersion=gd3 guess=read geom=check nosymm in
 tegral(ultrafinegrid)
 ----------------------------------------------------------------------
 1/29=2,38=1,172=1/1;
 2/12=2,15=1,40=1/2;
 3/5=1,6=6,7=1,11=2,14=-4,25=1,30=1,74=-5,75=-5,116=-2,124=31/1,2,3;
 4/5=1/1;
 5/5=2,38=6/2;
 6/7=2,8=2,9=2,10=2,28=1/1;
 99/5=1,9=1/99;
 ------------------------------------------------------
 Candidate Structure: Conf:669 Charge calc in gas phase
 ------------------------------------------------------
 Structure from the checkpoint file:  "conf-669.chk"
 Charge =  1 Multiplicity = 1
 Redundant internal coordinates found in file.  (old form).
 N,0,-5.9635452151,3.2832357511,2.6537212399
 H,0,-6.5511659927,3.7957099487,1.9906455626
 H,0,-6.0291306662,2.2557470669,2.4248134456
 H,0,-6.2766161051,3.5021753787,3.6121361343
 C,0,-4.4908704988,3.5717387801,2.478972375
 H,0,-4.3887957178,4.543756227,1.9920943732
 C,0,-3.999759792,2.4010140131,1.5937784938
 C,0,-3.7901373355,3.5751105387,3.8593146668
 H,0,-2.7493762952,3.8693942789,3.6882157065
 H,0,-3.771608638,2.5482518636,4.2434998756
 O,0,-4.7310933104,1.403870794,1.5027558379
 C,0,-4.4806835258,4.5028446117,4.8340577242
 C,0,-5.3707199177,3.986716931,5.7897853781
 H,0,-5.4783108847,2.9087325173,5.902781132
 C,0,-4.3102762191,5.8917978065,4.7423814734
 H,0,-3.615072335,6.3040912163,4.0139567675
 C,0,-6.0774630539,4.8454249593,6.6386958828
 H,0,-6.7519090355,4.4332284493,7.3832525642
 C,0,-5.0104607628,6.7462882996,5.5926451663
 H,0,-4.8600509022,7.8194591811,5.5221786024
 C,0,-5.8989999789,6.2248940548,6.5387464072
 H,0,-6.4408700214,6.8931075522,7.2010329934
 N,0,-2.7982771654,2.5413619387,1.0505535232
 H,0,-2.2419297799,3.3917755887,1.1440731313
 C,0,-2.1309495535,1.5137373652,0.248184506
 H,0,-2.2925445347,0.544089578,0.7267533127
 C,0,-0.6454732757,1.9143324744,0.2660365665
 C,0,-2.6968024712,1.5072180132,-1.1955076919
 H,0,-3.7793614073,1.3472451948,-1.1091502413
 H,0,-2.5469568445,2.5138672001,-1.6071313292
 O,0,-0.3311724752,3.0947877028,0.4408212456
 C,0,-2.108434712,0.4600917665,-2.1624743972
 H,0,-1.0264563549,0.614925248,-2.240283368
 C,0,-2.3471801607,-0.9809820147,-1.6897036591
 H,0,-3.4210808346,-1.1945320461,-1.6168682789
 H,0,-1.9015681882,-1.6905533481,-2.3930824965
 H,0,-1.9030157145,-1.1914304905,-0.709350673
 C,0,-2.7003081597,0.6696487058,-3.5643115018
 H,0,-3.7864120793,0.5123757927,-3.5633809351
 H,0,-2.505632403,1.6828930068,-3.9352804765
 H,0,-2.2612815116,-0.0384001032,-4.2757782506
 N,0,0.2276721986,0.9140275748,0.0478214858
 H,0,-0.1139533388,-0.011811356,-0.2010346471
 C,0,1.5970792746,1.1325167948,-0.3939562726
 H,0,1.7066560312,2.1881982019,-0.6552207564
 C,0,1.7885692742,0.2298615067,-1.6309148644
 C,0,2.6221978741,0.7541361973,0.7106710534
 H,0,2.5391937123,1.4829681423,1.524949631
 H,0,2.3825696096,-0.2391796697,1.0956950292
 O,0,1.1256801801,-0.8015893417,-1.7432507135
 C,0,4.0298237251,0.6825264975,0.1175694944
 N,0,4.6151955818,1.8946136862,-0.134172692
 H,0,5.5147089488,1.8856968323,-0.5992976106
 H,0,4.3362875855,2.7355611877,0.3504495458
 O,0,4.5171497793,-0.3759888348,-0.2464623015
 N,0,2.7068652775,0.6523877298,-2.5237509364
 H,0,3.2986168991,1.4426181169,-2.2821986435
 C,0,3.2925267663,-0.2617858079,-3.4996443346
 H,0,3.121622141,-1.2851211868,-3.1520515087
 C,0,4.79219514,0.0071742493,-3.5155265474
 C,0,2.6996574836,-0.0977705225,-4.9154353645
 H,0,3.2027250789,-0.8108059011,-5.576256076
 H,0,2.9315770337,0.9091349287,-5.2873195099
 O,0,5.3162080294,1.0119037946,-3.0762174424
 C,0,1.1830371713,-0.3257752269,-4.9422781321
 H,0,0.9566250161,-1.3307866796,-4.5624521946
 H,0,0.6896795908,0.3748500847,-4.2557725026
 C,0,0.5639164556,-0.1490559992,-6.3382255072
 H,0,-0.5254815583,-0.2609411,-6.2631646117
 H,0,0.754693145,0.8647417091,-6.7022967438
 N,0,1.046760137,-1.0984811764,-7.344491243
 H,0,1.0103456277,-2.0633777813,-7.0292562563
 N,0,2.3980817379,0.3966207315,-8.5296422116
 H,0,3.1847895299,0.5022158113,-9.1586194775
 H,0,1.5487768939,0.7834174403,-8.9285330261
 N,0,3.0905915403,-1.8712764565,-8.1000150692
 H,0,3.8532354668,-1.6553977126,-8.7449829295
 C,0,2.2517196528,-0.9016862673,-8.0226054212
 O,0,5.4601280777,-0.9830046401,-4.1225371366
 H,0,6.4057633493,-0.74097642,-4.1265492443
 Recover connectivity data from disk.
                           ----------------------------
                           !    Current Parameters    !
                           ! (Angstroms and Degrees)  !
 --------------------------                            --------------------------
 ! Name  Definition              Value                                          !
 --------------------------------------------------------------------------------
 ! R1    R(1,2)                  1.0235                                         !
 ! R2    R(1,3)                  1.0547                                         !
 ! R3    R(1,4)                  1.0317                                         !
 ! R4    R(1,5)                  1.5108                                         !
 ! R5    R(5,6)                  1.0919                                         !
 ! R6    R(5,7)                  1.5477                                         !
 ! R7    R(5,8)                  1.548                                          !
 ! R8    R(7,11)                 1.2399                                         !
 ! R9    R(7,23)                 1.326                                          !
 ! R10   R(8,9)                  1.095                                          !
 ! R11   R(8,10)                 1.0965                                         !
 ! R12   R(8,12)                 1.5125                                         !
 ! R13   R(12,13)                1.4043                                         !
 ! R14   R(12,15)                1.4024                                         !
 ! R15   R(13,14)                1.0892                                         !
 ! R16   R(13,17)                1.3991                                         !
 ! R17   R(15,16)                1.0881                                         !
 ! R18   R(15,19)                1.394                                          !
 ! R19   R(17,18)                1.0859                                         !
 ! R20   R(17,21)                1.3946                                         !
 ! R21   R(19,20)                1.0859                                         !
 ! R22   R(19,21)                1.3987                                         !
 ! R23   R(21,22)                1.0857                                         !
 ! R24   R(23,24)                1.0205                                         !
 ! R25   R(23,25)                1.4646                                         !
 ! R26   R(25,26)                1.0933                                         !
 ! R27   R(25,27)                1.5386                                         !
 ! R28   R(25,28)                1.5506                                         !
 ! R29   R(27,31)                1.234                                          !
 ! R30   R(27,42)                1.3456                                         !
 ! R31   R(28,29)                1.0977                                         !
 ! R32   R(28,30)                1.0978                                         !
 ! R33   R(28,32)                1.542                                          !
 ! R34   R(32,33)                1.0958                                         !
 ! R35   R(32,34)                1.5353                                         !
 ! R36   R(32,38)                1.536                                          !
 ! R37   R(34,35)                1.0973                                         !
 ! R38   R(34,36)                1.094                                          !
 ! R39   R(34,37)                1.0967                                         !
 ! R40   R(38,39)                1.0974                                         !
 ! R41   R(38,40)                1.0964                                         !
 ! R42   R(38,41)                1.0956                                         !
 ! R43   R(42,43)                1.0178                                         !
 ! R44   R(42,44)                1.4554                                         !
 ! R45   R(44,45)                1.093                                          !
 ! R46   R(44,46)                1.5432                                         !
 ! R47   R(44,47)                1.5538                                         !
 ! R48   R(46,50)                1.2312                                         !
 ! R49   R(46,56)                1.3487                                         !
 ! R50   R(47,48)                1.096                                          !
 ! R51   R(47,49)                1.0919                                         !
 ! R52   R(47,51)                1.5292                                         !
 ! R53   R(51,52)                1.3694                                         !
 ! R54   R(51,55)                1.2208                                         !
 ! R55   R(52,53)                1.0127                                         !
 ! R56   R(52,54)                1.0099                                         !
 ! R57   R(56,57)                1.0164                                         !
 ! R58   R(56,58)                1.4598                                         !
 ! R59   R(58,59)                1.0942                                         !
 ! R60   R(58,60)                1.5237                                         !
 ! R61   R(58,61)                1.5437                                         !
 ! R62   R(60,64)                1.2153                                         !
 ! R63   R(60,79)                1.3398                                         !
 ! R64   R(61,62)                1.0946                                         !
 ! R65   R(61,63)                1.0982                                         !
 ! R66   R(61,65)                1.5339                                         !
 ! R67   R(65,66)                1.098                                          !
 ! R68   R(65,67)                1.098                                          !
 ! R69   R(65,68)                1.5373                                         !
 ! R70   R(68,69)                1.0977                                         !
 ! R71   R(68,70)                1.094                                          !
 ! R72   R(68,71)                1.4653                                         !
 ! R73   R(71,72)                1.0157                                         !
 ! R74   R(71,78)                1.3966                                         !
 ! R75   R(73,74)                1.0128                                         !
 ! R76   R(73,75)                1.0149                                         !
 ! R77   R(73,78)                1.4015                                         !
 ! R78   R(76,77)                1.0219                                         !
 ! R79   R(76,78)                1.2844                                         !
 ! R80   R(79,80)                0.9761                                         !
 ! A1    A(2,1,3)              108.1477                                         !
 ! A2    A(2,1,4)              108.7436                                         !
 ! A3    A(2,1,5)              112.8973                                         !
 ! A4    A(3,1,4)              112.921                                          !
 ! A5    A(3,1,5)              102.7995                                         !
 ! A6    A(4,1,5)              111.2661                                         !
 ! A7    A(1,5,6)              108.2213                                         !
 ! A8    A(1,5,7)              103.3568                                         !
 ! A9    A(1,5,8)              109.7865                                         !
 ! A10   A(6,5,7)              112.8724                                         !
 ! A11   A(6,5,8)              110.6916                                         !
 ! A12   A(7,5,8)              111.5923                                         !
 ! A13   A(5,7,11)             117.5901                                         !
 ! A14   A(5,7,23)             116.216                                          !
 ! A15   A(11,7,23)            126.1189                                         !
 ! A16   A(5,8,9)              106.9473                                         !
 ! A17   A(5,8,10)             108.5433                                         !
 ! A18   A(5,8,12)             111.6735                                         !
 ! A19   A(9,8,10)             106.8793                                         !
 ! A20   A(9,8,12)             111.7027                                         !
 ! A21   A(10,8,12)            110.8746                                         !
 ! A22   A(8,12,13)            120.1681                                         !
 ! A23   A(8,12,15)            120.6572                                         !
 ! A24   A(13,12,15)           119.0475                                         !
 ! A25   A(12,13,14)           119.7993                                         !
 ! A26   A(12,13,17)           120.4992                                         !
 ! A27   A(14,13,17)           119.6422                                         !
 ! A28   A(12,15,16)           119.782                                          !
 ! A29   A(12,15,19)           120.4103                                         !
 ! A30   A(16,15,19)           119.8002                                         !
 ! A31   A(13,17,18)           119.7881                                         !
 ! A32   A(13,17,21)           119.9328                                         !
 ! A33   A(18,17,21)           120.2727                                         !
 ! A34   A(15,19,20)           119.7754                                         !
 ! A35   A(15,19,21)           120.2072                                         !
 ! A36   A(20,19,21)           120.0166                                         !
 ! A37   A(17,21,19)           119.9009                                         !
 ! A38   A(17,21,22)           120.0806                                         !
 ! A39   A(19,21,22)           120.0154                                         !
 ! A40   A(7,23,24)            122.9981                                         !
 ! A41   A(7,23,25)            124.2635                                         !
 ! A42   A(24,23,25)           112.7361                                         !
 ! A43   A(23,25,26)           108.3682                                         !
 ! A44   A(23,25,27)           104.5281                                         !
 ! A45   A(23,25,28)           110.2875                                         !
 ! A46   A(26,25,27)           111.6243                                         !
 ! A47   A(26,25,28)           110.4791                                         !
 ! A48   A(27,25,28)           111.3585                                         !
 ! A49   A(25,27,31)           119.7748                                         !
 ! A50   A(25,27,42)           115.5337                                         !
 ! A51   A(31,27,42)           124.6683                                         !
 ! A52   A(25,28,29)           106.6931                                         !
 ! A53   A(25,28,30)           107.1827                                         !
 ! A54   A(25,28,32)           116.581                                          !
 ! A55   A(29,28,30)           107.3215                                         !
 ! A56   A(29,28,32)           109.0667                                         !
 ! A57   A(30,28,32)           109.6014                                         !
 ! A58   A(28,32,33)           108.9862                                         !
 ! A59   A(28,32,34)           112.6413                                         !
 ! A60   A(28,32,38)           109.429                                          !
 ! A61   A(33,32,34)           107.9411                                         !
 ! A62   A(33,32,38)           107.2413                                         !
 ! A63   A(34,32,38)           110.4361                                         !
 ! A64   A(32,34,35)           110.8105                                         !
 ! A65   A(32,34,36)           110.3328                                         !
 ! A66   A(32,34,37)           113.1046                                         !
 ! A67   A(35,34,36)           108.3655                                         !
 ! A68   A(35,34,37)           107.4385                                         !
 ! A69   A(36,34,37)           106.578                                          !
 ! A70   A(32,38,39)           111.1632                                         !
 ! A71   A(32,38,40)           111.4964                                         !
 ! A72   A(32,38,41)           110.4928                                         !
 ! A73   A(39,38,40)           107.9654                                         !
 ! A74   A(39,38,41)           107.7296                                         !
 ! A75   A(40,38,41)           107.841                                          !
 ! A76   A(27,42,43)           119.8745                                         !
 ! A77   A(27,42,44)           123.2423                                         !
 ! A78   A(43,42,44)           112.221                                          !
 ! A79   A(42,44,45)           108.1722                                         !
 ! A80   A(42,44,46)           105.7981                                         !
 ! A81   A(42,44,47)           111.6182                                         !
 ! A82   A(45,44,46)           111.1553                                         !
 ! A83   A(45,44,47)           109.8153                                         !
 ! A84   A(46,44,47)           110.2144                                         !
 ! A85   A(44,46,50)           119.7577                                         !
 ! A86   A(44,46,56)           115.5861                                         !
 ! A87   A(50,46,56)           124.6552                                         !
 ! A88   A(44,47,48)           108.4388                                         !
 ! A89   A(44,47,49)           109.1121                                         !
 ! A90   A(44,47,51)           110.0589                                         !
 ! A91   A(48,47,49)           109.0474                                         !
 ! A92   A(48,47,51)           112.8944                                         !
 ! A93   A(49,47,51)           107.2279                                         !
 ! A94   A(47,51,52)           115.0465                                         !
 ! A95   A(47,51,55)           121.581                                          !
 ! A96   A(52,51,55)           122.8195                                         !
 ! A97   A(51,52,53)           117.1512                                         !
 ! A98   A(51,52,54)           122.0594                                         !
 ! A99   A(53,52,54)           118.2329                                         !
 ! A100  A(46,56,57)           118.8605                                         !
 ! A101  A(46,56,58)           121.3004                                         !
 ! A102  A(57,56,58)           114.3427                                         !
 ! A103  A(56,58,59)           108.0982                                         !
 ! A104  A(56,58,60)           106.9353                                         !
 ! A105  A(56,58,61)           113.1107                                         !
 ! A106  A(59,58,60)           108.792                                          !
 ! A107  A(59,58,61)           109.3138                                         !
 ! A108  A(60,58,61)           110.4691                                         !
 ! A109  A(58,60,64)           124.5087                                         !
 ! A110  A(58,60,79)           111.404                                          !
 ! A111  A(64,60,79)           124.0416                                         !
 ! A112  A(58,61,62)           107.9371                                         !
 ! A113  A(58,61,63)           109.0811                                         !
 ! A114  A(58,61,65)           112.3337                                         !
 ! A115  A(62,61,63)           107.2041                                         !
 ! A116  A(62,61,65)           110.3049                                         !
 ! A117  A(63,61,65)           109.8268                                         !
 ! A118  A(61,65,66)           109.5049                                         !
 ! A119  A(61,65,67)           109.7842                                         !
 ! A120  A(61,65,68)           113.3912                                         !
 ! A121  A(66,65,67)           105.9694                                         !
 ! A122  A(66,65,68)           109.6517                                         !
 ! A123  A(67,65,68)           108.267                                          !
 ! A124  A(65,68,69)           109.0191                                         !
 ! A125  A(65,68,70)           109.7859                                         !
 ! A126  A(65,68,71)           114.6076                                         !
 ! A127  A(69,68,70)           106.8753                                         !
 ! A128  A(69,68,71)           107.9353                                         !
 ! A129  A(70,68,71)           108.3277                                         !
 ! A130  A(68,71,72)           112.9897                                         !
 ! A131  A(68,71,78)           121.7651                                         !
 ! A132  A(72,71,78)           108.3896                                         !
 ! A133  A(74,73,75)           111.4825                                         !
 ! A134  A(74,73,78)           113.7288                                         !
 ! A135  A(75,73,78)           114.0706                                         !
 ! A136  A(77,76,78)           111.4685                                         !
 ! A137  A(71,78,73)           113.3476                                         !
 ! A138  A(71,78,76)           119.1026                                         !
 ! A139  A(73,78,76)           127.5385                                         !
 ! A140  A(60,79,80)           107.5524                                         !
 ! D1    D(2,1,5,6)             23.4779                                         !
 ! D2    D(2,1,5,7)            -96.4388                                         !
 ! D3    D(2,1,5,8)            144.3925                                         !
 ! D4    D(3,1,5,6)            139.7528                                         !
 ! D5    D(3,1,5,7)             19.8362                                         !
 ! D6    D(3,1,5,8)            -99.3325                                         !
 ! D7    D(4,1,5,6)            -99.1167                                         !
 ! D8    D(4,1,5,7)            140.9667                                         !
 ! D9    D(4,1,5,8)             21.798                                          !
 ! D10   D(1,5,7,11)           -16.4528                                         !
 ! D11   D(1,5,7,23)           166.4997                                         !
 ! D12   D(6,5,7,11)          -133.1304                                         !
 ! D13   D(6,5,7,23)            49.8221                                         !
 ! D14   D(8,5,7,11)           101.462                                          !
 ! D15   D(8,5,7,23)           -75.5855                                         !
 ! D16   D(1,5,8,9)           -175.3859                                         !
 ! D17   D(1,5,8,10)            69.6294                                         !
 ! D18   D(1,5,8,12)           -52.9001                                         !
 ! D19   D(6,5,8,9)            -55.973                                          !
 ! D20   D(6,5,8,10)          -170.9577                                         !
 ! D21   D(6,5,8,12)            66.5128                                         !
 ! D22   D(7,5,8,9)             70.6339                                         !
 ! D23   D(7,5,8,10)           -44.3508                                         !
 ! D24   D(7,5,8,12)          -166.8803                                         !
 ! D25   D(5,7,23,24)           -4.245                                          !
 ! D26   D(5,7,23,25)          176.3429                                         !
 ! D27   D(11,7,23,24)         178.9946                                         !
 ! D28   D(11,7,23,25)          -0.4174                                         !
 ! D29   D(5,8,12,13)           99.5697                                         !
 ! D30   D(5,8,12,15)          -76.2917                                         !
 ! D31   D(9,8,12,13)         -140.7098                                         !
 ! D32   D(9,8,12,15)           43.4288                                         !
 ! D33   D(10,8,12,13)         -21.6158                                         !
 ! D34   D(10,8,12,15)         162.5228                                         !
 ! D35   D(8,12,13,14)           6.877                                          !
 ! D36   D(8,12,13,17)        -175.9348                                         !
 ! D37   D(15,12,13,14)       -177.1953                                         !
 ! D38   D(15,12,13,17)         -0.0071                                         !
 ! D39   D(8,12,15,16)          -4.7987                                         !
 ! D40   D(8,12,15,19)         176.1993                                         !
 ! D41   D(13,12,15,16)        179.2941                                         !
 ! D42   D(13,12,15,19)          0.292                                          !
 ! D43   D(12,13,17,18)       -179.1149                                         !
 ! D44   D(12,13,17,21)         -0.0365                                         !
 ! D45   D(14,13,17,18)         -1.9223                                         !
 ! D46   D(14,13,17,21)        177.1562                                         !
 ! D47   D(12,15,19,20)        179.1341                                         !
 ! D48   D(12,15,19,21)         -0.5342                                         !
 ! D49   D(16,15,19,20)          0.1322                                         !
 ! D50   D(16,15,19,21)       -179.5361                                         !
 ! D51   D(13,17,21,19)         -0.2026                                         !
 ! D52   D(13,17,21,22)       -179.5642                                         !
 ! D53   D(18,17,21,19)        178.8713                                         !
 ! D54   D(18,17,21,22)         -0.4903                                         !
 ! D55   D(15,19,21,17)          0.4877                                         !
 ! D56   D(15,19,21,22)        179.8496                                         !
 ! D57   D(20,19,21,17)       -179.1799                                         !
 ! D58   D(20,19,21,22)          0.1821                                         !
 ! D59   D(7,23,25,26)         -41.8214                                         !
 ! D60   D(7,23,25,27)        -160.9764                                         !
 ! D61   D(7,23,25,28)          79.2277                                         !
 ! D62   D(24,23,25,26)        138.7132                                         !
 ! D63   D(24,23,25,27)         19.5582                                         !
 ! D64   D(24,23,25,28)       -100.2377                                         !
 ! D65   D(23,25,27,31)        -25.6717                                         !
 ! D66   D(23,25,27,42)        155.9988                                         !
 ! D67   D(26,25,27,31)       -142.6019                                         !
 ! D68   D(26,25,27,42)         39.0686                                         !
 ! D69   D(28,25,27,31)         93.4023                                         !
 ! D70   D(28,25,27,42)        -84.9272                                         !
 ! D71   D(23,25,28,29)        -56.965                                          !
 ! D72   D(23,25,28,30)         57.7486                                         !
 ! D73   D(23,25,28,32)       -179.0648                                         !
 ! D74   D(26,25,28,29)         62.816                                          !
 ! D75   D(26,25,28,30)        177.5297                                         !
 ! D76   D(26,25,28,32)        -59.2838                                         !
 ! D77   D(27,25,28,29)       -172.5425                                         !
 ! D78   D(27,25,28,30)        -57.8288                                         !
 ! D79   D(27,25,28,32)         65.3578                                         !
 ! D80   D(25,27,42,43)          5.7803                                         !
 ! D81   D(25,27,42,44)        159.6727                                         !
 ! D82   D(31,27,42,43)       -172.4568                                         !
 ! D83   D(31,27,42,44)        -18.5643                                         !
 ! D84   D(25,28,32,33)        -58.6164                                         !
 ! D85   D(25,28,32,34)         61.1504                                         !
 ! D86   D(25,28,32,38)       -175.6                                            !
 ! D87   D(29,28,32,33)       -179.4652                                         !
 ! D88   D(29,28,32,34)        -59.6984                                         !
 ! D89   D(29,28,32,38)         63.5512                                         !
 ! D90   D(30,28,32,33)         63.3104                                         !
 ! D91   D(30,28,32,34)       -176.9227                                         !
 ! D92   D(30,28,32,38)        -53.6732                                         !
 ! D93   D(28,32,34,35)         60.8938                                         !
 ! D94   D(28,32,34,36)       -179.0859                                         !
 ! D95   D(28,32,34,37)        -59.8171                                         !
 ! D96   D(33,32,34,35)       -178.7365                                         !
 ! D97   D(33,32,34,36)        -58.7162                                         !
 ! D98   D(33,32,34,37)         60.5525                                         !
 ! D99   D(38,32,34,35)        -61.7927                                         !
 ! D100  D(38,32,34,36)         58.2276                                         !
 ! D101  D(38,32,34,37)        177.4964                                         !
 ! D102  D(28,32,38,39)        -62.8778                                         !
 ! D103  D(28,32,38,40)         57.6492                                         !
 ! D104  D(28,32,38,41)        177.5646                                         !
 ! D105  D(33,32,38,39)        179.0436                                         !
 ! D106  D(33,32,38,40)        -60.4294                                         !
 ! D107  D(33,32,38,41)         59.4859                                         !
 ! D108  D(34,32,38,39)         61.6673                                         !
 ! D109  D(34,32,38,40)       -177.8057                                         !
 ! D110  D(34,32,38,41)        -57.8904                                         !
 ! D111  D(27,42,44,45)         -8.8717                                         !
 ! D112  D(27,42,44,46)       -128.0564                                         !
 ! D113  D(27,42,44,47)        112.0497                                         !
 ! D114  D(43,42,44,45)        146.7855                                         !
 ! D115  D(43,42,44,46)         27.6008                                         !
 ! D116  D(43,42,44,47)        -92.293                                          !
 ! D117  D(42,44,46,50)        -27.6742                                         !
 ! D118  D(42,44,46,56)        152.6791                                         !
 ! D119  D(45,44,46,50)       -144.8698                                         !
 ! D120  D(45,44,46,56)         35.4835                                         !
 ! D121  D(47,44,46,50)         93.1359                                         !
 ! D122  D(47,44,46,56)        -86.5108                                         !
 ! D123  D(42,44,47,48)        -69.179                                          !
 ! D124  D(42,44,47,49)         49.481                                          !
 ! D125  D(42,44,47,51)        166.8822                                         !
 ! D126  D(45,44,47,48)         50.78                                           !
 ! D127  D(45,44,47,49)        169.44                                           !
 ! D128  D(45,44,47,51)        -73.1589                                         !
 ! D129  D(46,44,47,48)        173.5635                                         !
 ! D130  D(46,44,47,49)        -67.7765                                         !
 ! D131  D(46,44,47,51)         49.6247                                         !
 ! D132  D(44,46,56,57)          8.3771                                         !
 ! D133  D(44,46,56,58)        160.7414                                         !
 ! D134  D(50,46,56,57)       -171.25                                           !
 ! D135  D(50,46,56,58)        -18.8857                                         !
 ! D136  D(44,47,51,52)         75.754                                          !
 ! D137  D(44,47,51,55)        -95.9456                                         !
 ! D138  D(48,47,51,52)        -45.5586                                         !
 ! D139  D(48,47,51,55)        142.7418                                         !
 ! D140  D(49,47,51,52)       -165.6809                                         !
 ! D141  D(49,47,51,55)         22.6195                                         !
 ! D142  D(47,51,52,53)       -174.9568                                         !
 ! D143  D(47,51,52,54)         23.5091                                         !
 ! D144  D(55,51,52,53)         -3.3717                                         !
 ! D145  D(55,51,52,54)       -164.9059                                         !
 ! D146  D(46,56,58,59)        -18.315                                          !
 ! D147  D(46,56,58,60)       -135.3013                                         !
 ! D148  D(46,56,58,61)        102.869                                          !
 ! D149  D(57,56,58,59)        135.2055                                         !
 ! D150  D(57,56,58,60)         18.2192                                         !
 ! D151  D(57,56,58,61)       -103.6105                                         !
 ! D152  D(56,58,60,64)        -17.6032                                         !
 ! D153  D(56,58,60,79)        164.7725                                         !
 ! D154  D(59,58,60,64)       -134.1305                                         !
 ! D155  D(59,58,60,79)         48.2452                                         !
 ! D156  D(61,58,60,64)        105.8746                                         !
 ! D157  D(61,58,60,79)        -71.7498                                         !
 ! D158  D(56,58,61,62)        179.4018                                         !
 ! D159  D(56,58,61,63)         63.2383                                         !
 ! D160  D(56,58,61,65)        -58.7744                                         !
 ! D161  D(59,58,61,62)        -60.1036                                         !
 ! D162  D(59,58,61,63)       -176.2671                                         !
 ! D163  D(59,58,61,65)         61.7201                                         !
 ! D164  D(60,58,61,62)         59.5771                                         !
 ! D165  D(60,58,61,63)        -56.5864                                         !
 ! D166  D(60,58,61,65)       -178.5992                                         !
 ! D167  D(58,60,79,80)        178.2125                                         !
 ! D168  D(64,60,79,80)          0.575                                          !
 ! D169  D(58,61,65,66)        -57.9868                                         !
 ! D170  D(58,61,65,67)         57.9638                                         !
 ! D171  D(58,61,65,68)        179.1974                                         !
 ! D172  D(62,61,65,66)         62.4784                                         !
 ! D173  D(62,61,65,67)        178.429                                          !
 ! D174  D(62,61,65,68)        -60.3374                                         !
 ! D175  D(63,61,65,66)       -179.5748                                         !
 ! D176  D(63,61,65,67)        -63.6241                                         !
 ! D177  D(63,61,65,68)         57.6095                                         !
 ! D178  D(61,65,68,69)       -176.2319                                         !
 ! D179  D(61,65,68,70)        -59.4676                                         !
 ! D180  D(61,65,68,71)         62.695                                          !
 ! D181  D(66,65,68,69)         61.0334                                         !
 ! D182  D(66,65,68,70)        177.7977                                         !
 ! D183  D(66,65,68,71)        -60.0397                                         !
 ! D184  D(67,65,68,69)        -54.1498                                         !
 ! D185  D(67,65,68,70)         62.6145                                         !
 ! D186  D(67,65,68,71)       -175.2229                                         !
 ! D187  D(65,68,71,72)         49.8908                                         !
 ! D188  D(65,68,71,78)        -81.8504                                         !
 ! D189  D(69,68,71,72)        -71.7764                                         !
 ! D190  D(69,68,71,78)        156.4824                                         !
 ! D191  D(70,68,71,72)        172.8424                                         !
 ! D192  D(70,68,71,78)         41.1011                                         !
 ! D193  D(68,71,78,73)        -47.6345                                         !
 ! D194  D(68,71,78,76)        131.2342                                         !
 ! D195  D(72,71,78,73)        178.7397                                         !
 ! D196  D(72,71,78,76)         -2.3916                                         !
 ! D197  D(74,73,78,71)       -169.7067                                         !
 ! D198  D(74,73,78,76)         11.54                                           !
 ! D199  D(75,73,78,71)        -40.3245                                         !
 ! D200  D(75,73,78,76)        140.9222                                         !
 ! D201  D(77,76,78,71)        170.5672                                         !
 ! D202  D(77,76,78,73)        -10.7428                                         !
 --------------------------------------------------------------------------------
 Symmetry turned off by external request.
 Stoichiometry    C25H41N8O6(1+)
 Framework group  C1[X(C25H41N8O6)]
 Deg. of freedom   234
 Full point group                 C1      NOp   1
                          Input orientation:                          
 ---------------------------------------------------------------------
 Center     Atomic      Atomic             Coordinates (Angstroms)
 Number     Number       Type             X           Y           Z
 ---------------------------------------------------------------------
      1          7           0       -5.963545    3.283236    2.653721
      2          1           0       -6.551166    3.795710    1.990646
      3          1           0       -6.029131    2.255747    2.424813
      4          1           0       -6.276616    3.502175    3.612136
      5          6           0       -4.490870    3.571739    2.478972
      6          1           0       -4.388796    4.543756    1.992094
      7          6           0       -3.999760    2.401014    1.593778
      8          6           0       -3.790137    3.575111    3.859315
      9          1           0       -2.749376    3.869394    3.688216
     10          1           0       -3.771609    2.548252    4.243500
     11          8           0       -4.731093    1.403871    1.502756
     12          6           0       -4.480684    4.502845    4.834058
     13          6           0       -5.370720    3.986717    5.789785
     14          1           0       -5.478311    2.908733    5.902781
     15          6           0       -4.310276    5.891798    4.742381
     16          1           0       -3.615072    6.304091    4.013957
     17          6           0       -6.077463    4.845425    6.638696
     18          1           0       -6.751909    4.433228    7.383253
     19          6           0       -5.010461    6.746288    5.592645
     20          1           0       -4.860051    7.819459    5.522179
     21          6           0       -5.899000    6.224894    6.538746
     22          1           0       -6.440870    6.893108    7.201033
     23          7           0       -2.798277    2.541362    1.050554
     24          1           0       -2.241930    3.391776    1.144073
     25          6           0       -2.130950    1.513737    0.248185
     26          1           0       -2.292545    0.544090    0.726753
     27          6           0       -0.645473    1.914332    0.266037
     28          6           0       -2.696802    1.507218   -1.195508
     29          1           0       -3.779361    1.347245   -1.109150
     30          1           0       -2.546957    2.513867   -1.607131
     31          8           0       -0.331172    3.094788    0.440821
     32          6           0       -2.108435    0.460092   -2.162474
     33          1           0       -1.026456    0.614925   -2.240283
     34          6           0       -2.347180   -0.980982   -1.689704
     35          1           0       -3.421081   -1.194532   -1.616868
     36          1           0       -1.901568   -1.690553   -2.393082
     37          1           0       -1.903016   -1.191430   -0.709351
     38          6           0       -2.700308    0.669649   -3.564312
     39          1           0       -3.786412    0.512376   -3.563381
     40          1           0       -2.505632    1.682893   -3.935280
     41          1           0       -2.261282   -0.038400   -4.275778
     42          7           0        0.227672    0.914028    0.047821
     43          1           0       -0.113953   -0.011811   -0.201035
     44          6           0        1.597079    1.132517   -0.393956
     45          1           0        1.706656    2.188198   -0.655221
     46          6           0        1.788569    0.229862   -1.630915
     47          6           0        2.622198    0.754136    0.710671
     48          1           0        2.539194    1.482968    1.524950
     49          1           0        2.382570   -0.239180    1.095695
     50          8           0        1.125680   -0.801589   -1.743251
     51          6           0        4.029824    0.682526    0.117569
     52          7           0        4.615196    1.894614   -0.134173
     53          1           0        5.514709    1.885697   -0.599298
     54          1           0        4.336288    2.735561    0.350450
     55          8           0        4.517150   -0.375989   -0.246462
     56          7           0        2.706865    0.652388   -2.523751
     57          1           0        3.298617    1.442618   -2.282199
     58          6           0        3.292527   -0.261786   -3.499644
     59          1           0        3.121622   -1.285121   -3.152052
     60          6           0        4.792195    0.007174   -3.515527
     61          6           0        2.699657   -0.097771   -4.915435
     62          1           0        3.202725   -0.810806   -5.576256
     63          1           0        2.931577    0.909135   -5.287320
     64          8           0        5.316208    1.011904   -3.076217
     65          6           0        1.183037   -0.325775   -4.942278
     66          1           0        0.956625   -1.330787   -4.562452
     67          1           0        0.689680    0.374850   -4.255773
     68          6           0        0.563916   -0.149056   -6.338226
     69          1           0       -0.525482   -0.260941   -6.263165
     70          1           0        0.754693    0.864742   -6.702297
     71          7           0        1.046760   -1.098481   -7.344491
     72          1           0        1.010346   -2.063378   -7.029256
     73          7           0        2.398082    0.396621   -8.529642
     74          1           0        3.184790    0.502216   -9.158619
     75          1           0        1.548777    0.783417   -8.928533
     76          7           0        3.090592   -1.871276   -8.100015
     77          1           0        3.853235   -1.655398   -8.744983
     78          6           0        2.251720   -0.901686   -8.022605
     79          8           0        5.460128   -0.983005   -4.122537
     80          1           0        6.405763   -0.740976   -4.126549
 ---------------------------------------------------------------------
 Rotational constants (GHZ):           0.1666772           0.0313091           0.0278269
 Standard basis: 6-31G(d) (6D, 7F)
   667 basis functions,  1256 primitive gaussians,   667 cartesian basis functions
   147 alpha electrons      147 beta electrons
       nuclear repulsion energy      4478.0047102663 Hartrees.
 NAtoms=   80 NActive=   80 NUniq=   80 SFac= 1.00D+00 NAtFMM=   60 NAOKFM=T Big=T
 Integral buffers will be    131072 words long.
 Raffenetti 2 integral format.
 Two-electron integral symmetry is turned off.
 Nuclear repulsion after empirical dispersion term =     4477.9039926561 Hartrees.
 One-electron integrals computed using PRISM.
 NBasis=   667 RedAO= T EigKep=  4.78D-04  NBF=   667
 NBsUse=   667 1.00D-06 EigRej= -1.00D+00 NBFU=   667
 Initial guess from the checkpoint file:  "conf-669.chk"
 B after Tr=     0.000000    0.000000    0.000000
         Rot=    1.000000    0.000000    0.000000    0.000000 Ang=   0.00 deg.
 Requested convergence on RMS density matrix=1.00D-08 within 128 cycles.
 Requested convergence on MAX density matrix=1.00D-06.
 Requested convergence on             energy=1.00D-06.
 No special actions if energy rises.
 SCF Done:  E(RB3LYP) =  -1866.68200598     A.U. after    3 cycles
            NFock=  3  Conv=0.76D-09     -V/T= 2.0094

 **********************************************************************

            Population analysis using the SCF Density.

 **********************************************************************

 Alpha  occ. eigenvalues --  -19.26686 -19.26441 -19.22258 -19.21063 -19.19928
 Alpha  occ. eigenvalues --  -19.18390 -14.59983 -14.49646 -14.45751 -14.43476
 Alpha  occ. eigenvalues --  -14.42952 -14.39597 -14.38595 -14.32898 -10.43606
 Alpha  occ. eigenvalues --  -10.41078 -10.39244 -10.39054 -10.36869 -10.36254
 Alpha  occ. eigenvalues --  -10.34567 -10.34496 -10.32800 -10.32742 -10.32400
 Alpha  occ. eigenvalues --  -10.31484 -10.31145 -10.30820 -10.30719 -10.30431
 Alpha  occ. eigenvalues --  -10.30288 -10.28358 -10.27898 -10.27209 -10.27176
 Alpha  occ. eigenvalues --  -10.24993 -10.24936 -10.24623 -10.24076  -1.19181
 Alpha  occ. eigenvalues --   -1.17555  -1.14394  -1.13878  -1.11867  -1.10287
 Alpha  occ. eigenvalues --   -1.08623  -1.06230  -1.02549  -1.01844  -1.00388
 Alpha  occ. eigenvalues --   -0.98215  -0.97548  -0.93795  -0.93190  -0.90601
 Alpha  occ. eigenvalues --   -0.88753  -0.87622  -0.87401  -0.86402  -0.85306
 Alpha  occ. eigenvalues --   -0.83976  -0.80261  -0.79894  -0.77004  -0.75920
 Alpha  occ. eigenvalues --   -0.75510  -0.74228  -0.73679  -0.73068  -0.72204
 Alpha  occ. eigenvalues --   -0.71478  -0.70689  -0.69760  -0.67903  -0.66691
 Alpha  occ. eigenvalues --   -0.66142  -0.65775  -0.64998  -0.64702  -0.64191
 Alpha  occ. eigenvalues --   -0.63355  -0.63197  -0.61436  -0.60964  -0.59476
 Alpha  occ. eigenvalues --   -0.58385  -0.57882  -0.57472  -0.57240  -0.57173
 Alpha  occ. eigenvalues --   -0.56665  -0.56147  -0.55688  -0.55324  -0.54915
 Alpha  occ. eigenvalues --   -0.54630  -0.54183  -0.53923  -0.53523  -0.53232
 Alpha  occ. eigenvalues --   -0.52870  -0.52537  -0.52297  -0.51498  -0.51436
 Alpha  occ. eigenvalues --   -0.50840  -0.50753  -0.50425  -0.50155  -0.48689
 Alpha  occ. eigenvalues --   -0.48392  -0.48114  -0.47884  -0.46925  -0.46728
 Alpha  occ. eigenvalues --   -0.46367  -0.46247  -0.46185  -0.45974  -0.45958
 Alpha  occ. eigenvalues --   -0.45842  -0.45095  -0.44803  -0.44070  -0.43151
 Alpha  occ. eigenvalues --   -0.42508  -0.42446  -0.42268  -0.41415  -0.40970
 Alpha  occ. eigenvalues --   -0.40371  -0.39768  -0.39424  -0.38493  -0.38467
 Alpha  occ. eigenvalues --   -0.37215  -0.36715  -0.36445  -0.36036  -0.35083
 Alpha  occ. eigenvalues --   -0.34075  -0.33555  -0.33194  -0.31842  -0.30820
 Alpha  occ. eigenvalues --   -0.30140  -0.26995
 Alpha virt. eigenvalues --   -0.13535  -0.12892  -0.11251  -0.10273  -0.08176
 Alpha virt. eigenvalues --   -0.06259  -0.05672  -0.05251  -0.05024  -0.03094
 Alpha virt. eigenvalues --   -0.02325  -0.01621  -0.00927  -0.00724  -0.00153
 Alpha virt. eigenvalues --    0.00178   0.00811   0.01052   0.01599   0.01818
 Alpha virt. eigenvalues --    0.02383   0.02815   0.03293   0.03695   0.04092
 Alpha virt. eigenvalues --    0.04337   0.05128   0.05429   0.05567   0.05878
 Alpha virt. eigenvalues --    0.06243   0.06562   0.06886   0.07451   0.07569
 Alpha virt. eigenvalues --    0.07949   0.08143   0.08285   0.08549   0.08742
 Alpha virt. eigenvalues --    0.09027   0.09156   0.09639   0.10492   0.10942
 Alpha virt. eigenvalues --    0.11178   0.11362   0.11492   0.11680   0.12144
 Alpha virt. eigenvalues --    0.12438   0.12986   0.13203   0.13651   0.14538
 Alpha virt. eigenvalues --    0.14888   0.14988   0.15207   0.15420   0.16183
 Alpha virt. eigenvalues --    0.16782   0.17320   0.18081   0.18112   0.18452
 Alpha virt. eigenvalues --    0.19104   0.19408   0.19682   0.20209   0.20551
 Alpha virt. eigenvalues --    0.20946   0.21201   0.22369   0.22447   0.23337
 Alpha virt. eigenvalues --    0.23891   0.25267   0.25951   0.27502   0.29290
 Alpha virt. eigenvalues --    0.29787   0.30288   0.30565   0.31150   0.32181
 Alpha virt. eigenvalues --    0.33433   0.35005   0.36154   0.37815   0.38273
 Alpha virt. eigenvalues --    0.40220   0.40902   0.41261   0.42062   0.42394
 Alpha virt. eigenvalues --    0.42673   0.43038   0.43735   0.43962   0.44220
 Alpha virt. eigenvalues --    0.44355   0.44572   0.45617   0.46291   0.46508
 Alpha virt. eigenvalues --    0.46907   0.47270   0.47510   0.47717   0.48384
 Alpha virt. eigenvalues --    0.48700   0.49171   0.49609   0.50148   0.50472
 Alpha virt. eigenvalues --    0.50783   0.51066   0.51431   0.51739   0.52049
 Alpha virt. eigenvalues --    0.52505   0.53068   0.53385   0.53679   0.53883
 Alpha virt. eigenvalues --    0.54334   0.55079   0.55359   0.55651   0.56426
 Alpha virt. eigenvalues --    0.56790   0.57163   0.57539   0.57793   0.58085
 Alpha virt. eigenvalues --    0.58703   0.59600   0.60598   0.60960   0.61051
 Alpha virt. eigenvalues --    0.61459   0.61824   0.62373   0.62942   0.63180
 Alpha virt. eigenvalues --    0.63455   0.63524   0.64485   0.64804   0.65441
 Alpha virt. eigenvalues --    0.66368   0.66751   0.67231   0.67498   0.67915
 Alpha virt. eigenvalues --    0.68543   0.68772   0.69228   0.69520   0.70437
 Alpha virt. eigenvalues --    0.70728   0.71029   0.71411   0.71791   0.72057
 Alpha virt. eigenvalues --    0.72667   0.73197   0.73364   0.73946   0.74246
 Alpha virt. eigenvalues --    0.74609   0.74927   0.75421   0.76068   0.76245
 Alpha virt. eigenvalues --    0.76767   0.76982   0.77440   0.77914   0.78030
 Alpha virt. eigenvalues --    0.78735   0.79166   0.79439   0.79654   0.80001
 Alpha virt. eigenvalues --    0.80411   0.81001   0.81132   0.81381   0.81835
 Alpha virt. eigenvalues --    0.82152   0.82694   0.83092   0.83426   0.83514
 Alpha virt. eigenvalues --    0.83687   0.84028   0.84555   0.84862   0.85030
 Alpha virt. eigenvalues --    0.85412   0.85834   0.86065   0.86255   0.86579
 Alpha virt. eigenvalues --    0.86787   0.87369   0.87758   0.88047   0.88301
 Alpha virt. eigenvalues --    0.88804   0.89097   0.89854   0.90439   0.90907
 Alpha virt. eigenvalues --    0.91202   0.91318   0.91633   0.92726   0.93845
 Alpha virt. eigenvalues --    0.94412   0.95015   0.96183   0.96815   0.97163
 Alpha virt. eigenvalues --    0.97442   0.98338   0.98729   0.99828   0.99980
 Alpha virt. eigenvalues --    1.00531   1.00973   1.01381   1.02156   1.02667
 Alpha virt. eigenvalues --    1.04100   1.04406   1.04936   1.05104   1.05997
 Alpha virt. eigenvalues --    1.06229   1.07935   1.08557   1.09484   1.10809
 Alpha virt. eigenvalues --    1.11350   1.11796   1.12471   1.13307   1.13508
 Alpha virt. eigenvalues --    1.13821   1.15275   1.16742   1.18624   1.19054
 Alpha virt. eigenvalues --    1.19423   1.20311   1.21281   1.21768   1.22133
 Alpha virt. eigenvalues --    1.24526   1.26590   1.27036   1.28270   1.29225
 Alpha virt. eigenvalues --    1.29359   1.29848   1.31310   1.32044   1.32445
 Alpha virt. eigenvalues --    1.33107   1.33824   1.34312   1.35001   1.35336
 Alpha virt. eigenvalues --    1.35958   1.36223   1.36932   1.37478   1.37939
 Alpha virt. eigenvalues --    1.38876   1.39047   1.39465   1.39900   1.41338
 Alpha virt. eigenvalues --    1.42095   1.43755   1.44167   1.45323   1.45695
 Alpha virt. eigenvalues --    1.47970   1.48872   1.49919   1.51701   1.53218
 Alpha virt. eigenvalues --    1.53642   1.53905   1.55121   1.56339   1.57550
 Alpha virt. eigenvalues --    1.58564   1.59310   1.60391   1.61327   1.62197
 Alpha virt. eigenvalues --    1.62361   1.62617   1.63995   1.64665   1.65910
 Alpha virt. eigenvalues --    1.66339   1.66823   1.67042   1.67888   1.68249
 Alpha virt. eigenvalues --    1.68467   1.69291   1.70173   1.70703   1.71233
 Alpha virt. eigenvalues --    1.72046   1.72300   1.72413   1.72988   1.73873
 Alpha virt. eigenvalues --    1.74070   1.74440   1.74919   1.75459   1.75533
 Alpha virt. eigenvalues --    1.76015   1.76523   1.77490   1.77835   1.78241
 Alpha virt. eigenvalues --    1.78826   1.79501   1.79962   1.80776   1.81120
 Alpha virt. eigenvalues --    1.82513   1.82723   1.83518   1.84394   1.84862
 Alpha virt. eigenvalues --    1.85303   1.85724   1.86348   1.87567   1.88159
 Alpha virt. eigenvalues --    1.88298   1.88524   1.89499   1.89872   1.90171
 Alpha virt. eigenvalues --    1.90645   1.91177   1.92033   1.92526   1.93523
 Alpha virt. eigenvalues --    1.93578   1.93912   1.94523   1.95181   1.96009
 Alpha virt. eigenvalues --    1.96828   1.97603   1.98021   1.98287   2.00078
 Alpha virt. eigenvalues --    2.00624   2.01353   2.01448   2.02202   2.02580
 Alpha virt. eigenvalues --    2.02754   2.02968   2.03657   2.04354   2.04712
 Alpha virt. eigenvalues --    2.05257   2.06617   2.08069   2.09031   2.10550
 Alpha virt. eigenvalues --    2.10847   2.11849   2.13240   2.13625   2.14892
 Alpha virt. eigenvalues --    2.15322   2.15667   2.16372   2.16712   2.17442
 Alpha virt. eigenvalues --    2.18234   2.18536   2.18698   2.19843   2.21605
 Alpha virt. eigenvalues --    2.22269   2.23159   2.24065   2.24512   2.24869
 Alpha virt. eigenvalues --    2.26691   2.27377   2.27745   2.28737   2.29693
 Alpha virt. eigenvalues --    2.30183   2.30237   2.32556   2.33716   2.34147
 Alpha virt. eigenvalues --    2.35246   2.36235   2.37887   2.38456   2.38701
 Alpha virt. eigenvalues --    2.39432   2.40707   2.41361   2.42836   2.44261
 Alpha virt. eigenvalues --    2.44890   2.45710   2.46134   2.46375   2.46735
 Alpha virt. eigenvalues --    2.47302   2.48834   2.49543   2.51504   2.52548
 Alpha virt. eigenvalues --    2.53072   2.54539   2.55140   2.56010   2.56599
 Alpha virt. eigenvalues --    2.57083   2.58053   2.58762   2.60133   2.60428
 Alpha virt. eigenvalues --    2.60989   2.61909   2.61963   2.62940   2.64142
 Alpha virt. eigenvalues --    2.64881   2.65542   2.66297   2.67821   2.69184
 Alpha virt. eigenvalues --    2.69809   2.71715   2.73216   2.73859   2.74291
 Alpha virt. eigenvalues --    2.75785   2.76934   2.77936   2.78334   2.82263
 Alpha virt. eigenvalues --    2.83898   2.86944   2.87823   2.90257   2.92386
 Alpha virt. eigenvalues --    2.92838   2.93121   2.93637   2.96198   2.96566
 Alpha virt. eigenvalues --    3.00308   3.01602   3.05275   3.09005   3.12274
 Alpha virt. eigenvalues --    3.28500   3.66930   3.76535   3.77004   3.81533
 Alpha virt. eigenvalues --    3.85715   3.91087   3.92628   3.95170   3.97610
 Alpha virt. eigenvalues --    3.98413   3.99419   4.00676   4.03808   4.04425
 Alpha virt. eigenvalues --    4.06037   4.08348   4.11687   4.17103   4.17833
 Alpha virt. eigenvalues --    4.20829   4.21759   4.22533   4.24080   4.25211
 Alpha virt. eigenvalues --    4.26765   4.28170   4.29921   4.30349   4.36101
 Alpha virt. eigenvalues --    4.36381   4.39263   4.41939   4.45957   4.46844
 Alpha virt. eigenvalues --    4.52866   4.58452   4.59643   4.61781   4.63377
          Condensed to atoms (all electrons):
 Mulliken charges:
               1
     1  N   -0.749684
     2  H    0.416024
     3  H    0.426780
     4  H    0.405592
     5  C   -0.114020
     6  H    0.212280
     7  C    0.660727
     8  C   -0.382982
     9  H    0.207610
    10  H    0.195268
    11  O   -0.542256
    12  C    0.138983
    13  C   -0.232209
    14  H    0.153168
    15  C   -0.181452
    16  H    0.146573
    17  C   -0.119711
    18  H    0.169535
    19  C   -0.122310
    20  H    0.169235
    21  C   -0.123877
    22  H    0.171216
    23  N   -0.611209
    24  H    0.367081
    25  C   -0.066358
    26  H    0.191281
    27  C    0.610585
    28  C   -0.257482
    29  H    0.160379
    30  H    0.148174
    31  O   -0.544987
    32  C   -0.105207
    33  H    0.151687
    34  C   -0.448700
    35  H    0.148423
    36  H    0.176746
    37  H    0.133260
    38  C   -0.453040
    39  H    0.146505
    40  H    0.145123
    41  H    0.165347
    42  N   -0.603305
    43  H    0.374728
    44  C   -0.073941
    45  H    0.186073
    46  C    0.624192
    47  C   -0.335356
    48  H    0.163840
    49  H    0.191634
    50  O   -0.542411
    51  C    0.558098
    52  N   -0.742818
    53  H    0.369360
    54  H    0.340619
    55  O   -0.484259
    56  N   -0.597347
    57  H    0.363291
    58  C   -0.046742
    59  H    0.210500
    60  C    0.605326
    61  C   -0.279222
    62  H    0.202821
    63  H    0.145962
    64  O   -0.489825
    65  C   -0.267783
    66  H    0.152584
    67  H    0.137625
    68  C   -0.158214
    69  H    0.147256
    70  H    0.154598
    71  N   -0.565697
    72  H    0.327387
    73  N   -0.742049
    74  H    0.325421
    75  H    0.329747
    76  N   -0.634821
    77  H    0.267123
    78  C    0.547583
    79  O   -0.548103
    80  H    0.424024
 Sum of Mulliken charges =   1.00000
 Mulliken charges with hydrogens summed into heavy atoms:
               1
     1  N    0.498713
     5  C    0.098260
     7  C    0.660727
     8  C    0.019896
    11  O   -0.542256
    12  C    0.138983
    13  C   -0.079040
    15  C   -0.034878
    17  C    0.049823
    19  C    0.046925
    21  C    0.047338
    23  N   -0.244128
    25  C    0.124924
    27  C    0.610585
    28  C    0.051071
    31  O   -0.544987
    32  C    0.046480
    34  C    0.009729
    38  C    0.003935
    42  N   -0.228576
    44  C    0.112132
    46  C    0.624192
    47  C    0.020118
    50  O   -0.542411
    51  C    0.558098
    52  N   -0.032839
    55  O   -0.484259
    56  N   -0.234056
    58  C    0.163758
    60  C    0.605326
    61  C    0.069560
    64  O   -0.489825
    65  C    0.022426
    68  C    0.143640
    71  N   -0.238310
    73  N   -0.086881
    76  N   -0.367698
    78  C    0.547583
    79  O   -0.124079
 Electronic spatial extent (au):  <R**2>=          39393.7728
 Charge=              1.0000 electrons
 Dipole moment (field-independent basis, Debye):
    X=            -17.9616    Y=             20.3222    Z=              8.3368  Tot=             28.3745
 Quadrupole moment (field-independent basis, Debye-Ang):
   XX=            -80.8038   YY=           -160.6098   ZZ=           -131.6244
   XY=            -71.1889   XZ=            -86.5703   YZ=             39.5488
 Traceless Quadrupole moment (field-independent basis, Debye-Ang):
   XX=             43.5422   YY=            -36.2638   ZZ=             -7.2784
   XY=            -71.1889   XZ=            -86.5703   YZ=             39.5488
 Octapole moment (field-independent basis, Debye-Ang**2):
  XXX=           -293.1506  YYY=           -589.7600  ZZZ=            447.1659  XYY=           -313.2603
  XXY=            242.7489  XXZ=            523.1724  XZZ=           -108.2626  YZZ=             88.4896
  YYZ=            532.9698  XYZ=           -363.4630
 Hexadecapole moment (field-independent basis, Debye-Ang**3):
 XXXX=         -12003.3657 YYYY=          -7102.5231 ZZZZ=         -18102.9304 XXXY=           1268.9210
 XXXZ=           3082.3572 YYYX=           2198.9793 YYYZ=          -2611.8197 ZZZX=           3304.8992
 ZZZY=          -4264.6796 XXYY=          -2261.8836 XXZZ=          -3970.4351 YYZZ=          -4387.3610
 XXYZ=            564.6998 YYXZ=            706.8000 ZZXY=             54.9930
 N-N= 4.477903992656D+03 E-N=-1.327675783094D+04  KE= 1.849292778873D+03
 Unable to Open any file for archive entry.
 1\1\GINC-AMR-138\SP\RB3LYP\6-31G(d)\C25H41N8O6(1+)\KENGMITH\17-Jun-202
 2\0\\# B3LYP/6-31G* empiricaldispersion=gd3 guess=read geom=check nosy
 mm integral(ultrafinegrid)\\Candidate Structure: Conf:669 Charge calc 
 in gas phase\\1,1\N,0,-5.9635452151,3.2832357511,2.6537212399\H,0,-6.5
 511659927,3.7957099487,1.9906455626\H,0,-6.0291306662,2.2557470669,2.4
 248134456\H,0,-6.2766161051,3.5021753787,3.6121361343\C,0,-4.490870498
 8,3.5717387801,2.478972375\H,0,-4.3887957178,4.543756227,1.9920943732\
 C,0,-3.999759792,2.4010140131,1.5937784938\C,0,-3.7901373355,3.5751105
 387,3.8593146668\H,0,-2.7493762952,3.8693942789,3.6882157065\H,0,-3.77
 1608638,2.5482518636,4.2434998756\O,0,-4.7310933104,1.403870794,1.5027
 558379\C,0,-4.4806835258,4.5028446117,4.8340577242\C,0,-5.3707199177,3
 .986716931,5.7897853781\H,0,-5.4783108847,2.9087325173,5.902781132\C,0
 ,-4.3102762191,5.8917978065,4.7423814734\H,0,-3.615072335,6.3040912163
 ,4.0139567675\C,0,-6.0774630539,4.8454249593,6.6386958828\H,0,-6.75190
 90355,4.4332284493,7.3832525642\C,0,-5.0104607628,6.7462882996,5.59264
 51663\H,0,-4.8600509022,7.8194591811,5.5221786024\C,0,-5.8989999789,6.
 2248940548,6.5387464072\H,0,-6.4408700214,6.8931075522,7.2010329934\N,
 0,-2.7982771654,2.5413619387,1.0505535232\H,0,-2.2419297799,3.39177558
 87,1.1440731313\C,0,-2.1309495535,1.5137373652,0.248184506\H,0,-2.2925
 445347,0.544089578,0.7267533127\C,0,-0.6454732757,1.9143324744,0.26603
 65665\C,0,-2.6968024712,1.5072180132,-1.1955076919\H,0,-3.7793614073,1
 .3472451948,-1.1091502413\H,0,-2.5469568445,2.5138672001,-1.6071313292
 \O,0,-0.3311724752,3.0947877028,0.4408212456\C,0,-2.108434712,0.460091
 7665,-2.1624743972\H,0,-1.0264563549,0.614925248,-2.240283368\C,0,-2.3
 471801607,-0.9809820147,-1.6897036591\H,0,-3.4210808346,-1.1945320461,
 -1.6168682789\H,0,-1.9015681882,-1.6905533481,-2.3930824965\H,0,-1.903
 0157145,-1.1914304905,-0.709350673\C,0,-2.7003081597,0.6696487058,-3.5
 643115018\H,0,-3.7864120793,0.5123757927,-3.5633809351\H,0,-2.50563240
 3,1.6828930068,-3.9352804765\H,0,-2.2612815116,-0.0384001032,-4.275778
 2506\N,0,0.2276721986,0.9140275748,0.0478214858\H,0,-0.1139533388,-0.0
 11811356,-0.2010346471\C,0,1.5970792746,1.1325167948,-0.3939562726\H,0
 ,1.7066560312,2.1881982019,-0.6552207564\C,0,1.7885692742,0.2298615067
 ,-1.6309148644\C,0,2.6221978741,0.7541361973,0.7106710534\H,0,2.539193
 7123,1.4829681423,1.524949631\H,0,2.3825696096,-0.2391796697,1.0956950
 292\O,0,1.1256801801,-0.8015893417,-1.7432507135\C,0,4.0298237251,0.68
 25264975,0.1175694944\N,0,4.6151955818,1.8946136862,-0.134172692\H,0,5
 .5147089488,1.8856968323,-0.5992976106\H,0,4.3362875855,2.7355611877,0
 .3504495458\O,0,4.5171497793,-0.3759888348,-0.2464623015\N,0,2.7068652
 775,0.6523877298,-2.5237509364\H,0,3.2986168991,1.4426181169,-2.282198
 6435\C,0,3.2925267663,-0.2617858079,-3.4996443346\H,0,3.121622141,-1.2
 851211868,-3.1520515087\C,0,4.79219514,0.0071742493,-3.5155265474\C,0,
 2.6996574836,-0.0977705225,-4.9154353645\H,0,3.2027250789,-0.810805901
 1,-5.576256076\H,0,2.9315770337,0.9091349287,-5.2873195099\O,0,5.31620
 80294,1.0119037946,-3.0762174424\C,0,1.1830371713,-0.3257752269,-4.942
 2781321\H,0,0.9566250161,-1.3307866796,-4.5624521946\H,0,0.6896795908,
 0.3748500847,-4.2557725026\C,0,0.5639164556,-0.1490559992,-6.338225507
 2\H,0,-0.5254815583,-0.2609411,-6.2631646117\H,0,0.754693145,0.8647417
 091,-6.7022967438\N,0,1.046760137,-1.0984811764,-7.344491243\H,0,1.010
 3456277,-2.0633777813,-7.0292562563\N,0,2.3980817379,0.3966207315,-8.5
 296422116\H,0,3.1847895299,0.5022158113,-9.1586194775\H,0,1.5487768939
 ,0.7834174403,-8.9285330261\N,0,3.0905915403,-1.8712764565,-8.10001506
 92\H,0,3.8532354668,-1.6553977126,-8.7449829295\C,0,2.2517196528,-0.90
 16862673,-8.0226054212\O,0,5.4601280777,-0.9830046401,-4.1225371366\H,
 0,6.4057633493,-0.74097642,-4.1265492443\\Version=ES64L-G16RevC.01\HF=
 -1866.682006\RMSD=7.553e-10\Dipole=-6.4446876,5.2964335,4.9136723\Quad
 rupole=32.3725497,-26.9612638,-5.4112859,-52.9271669,-64.3628966,29.40
 35316\PG=C01 [X(C25H41N8O6)]\\@
 The archive entry for this job was punched.


 SACRED COWS MAKE GREAT HAMBURGERS -- ROBERT REISNER
 Job cpu time:       0 days  0 hours  3 minutes 11.5 seconds.
 Elapsed time:       0 days  0 hours  0 minutes 49.0 seconds.
 File lengths (MBytes):  RWF=    344 Int=      0 D2E=      0 Chk=     48 Scr=     16
 Normal termination of Gaussian 16 at Fri Jun 17 23:19:57 2022.
