 Entering Gaussian System, Link 0=/opt/software/Gaussian/g16-AVX2-C.01/g16/g16
 Input=charge-conf-217.com
 Output=charge-conf-217.log
 Initial command:
 /opt/software/Gaussian/g16-AVX2-C.01/g16/l1.exe "/mnt/gs18/scratch/users/kengmith/Gau-94995.inp" -scrdir="/mnt/gs18/scratch/users/kengmith/"
 Entering Link 1 = /opt/software/Gaussian/g16-AVX2-C.01/g16/l1.exe PID=     95005.
  
 Copyright (c) 1988-2019, Gaussian, Inc.  All Rights Reserved.
  
 This is part of the Gaussian(R) 16 program.  It is based on
 the Gaussian(R) 09 system (copyright 2009, Gaussian, Inc.),
 the Gaussian(R) 03 system (copyright 2003, Gaussian, Inc.),
 the Gaussian(R) 98 system (copyright 1998, Gaussian, Inc.),
 the Gaussian(R) 94 system (copyright 1995, Gaussian, Inc.),
 the Gaussian 92(TM) system (copyright 1992, Gaussian, Inc.),
 the Gaussian 90(TM) system (copyright 1990, Gaussian, Inc.),
 the Gaussian 88(TM) system (copyright 1988, Gaussian, Inc.),
 the Gaussian 86(TM) system (copyright 1986, Carnegie Mellon
 University), and the Gaussian 82(TM) system (copyright 1983,
 Carnegie Mellon University). Gaussian is a federally registered
 trademark of Gaussian, Inc.
  
 This software contains proprietary and confidential information,
 including trade secrets, belonging to Gaussian, Inc.
  
 This software is provided under written license and may be
 used, copied, transmitted, or stored only in accord with that
 written license.
  
 The following legend is applicable only to US Government
 contracts under FAR:
  
                    RESTRICTED RIGHTS LEGEND
  
 Use, reproduction and disclosure by the US Government is
 subject to restrictions as set forth in subparagraphs (a)
 and (c) of the Commercial Computer Software - Restricted
 Rights clause in FAR 52.227-19.
  
 Gaussian, Inc.
 340 Quinnipiac St., Bldg. 40, Wallingford CT 06492
  
  
 ---------------------------------------------------------------
 Warning -- This program may not be used in any manner that
 competes with the business of Gaussian, Inc. or will provide
 assistance to any competitor of Gaussian, Inc.  The licensee
 of this program is prohibited from giving any competitor of
 Gaussian, Inc. access to this program.  By using this program,
 the user acknowledges that Gaussian, Inc. is engaged in the
 business of creating and licensing software in the field of
 computational chemistry and represents and warrants to the
 licensee that it is not a competitor of Gaussian, Inc. and that
 it will not use this program in any manner prohibited above.
 ---------------------------------------------------------------
  

 Cite this work as:
 Gaussian 16, Revision C.01,
 M. J. Frisch, G. W. Trucks, H. B. Schlegel, G. E. Scuseria, 
 M. A. Robb, J. R. Cheeseman, G. Scalmani, V. Barone, 
 G. A. Petersson, H. Nakatsuji, X. Li, M. Caricato, A. V. Marenich, 
 J. Bloino, B. G. Janesko, R. Gomperts, B. Mennucci, H. P. Hratchian, 
 J. V. Ortiz, A. F. Izmaylov, J. L. Sonnenberg, D. Williams-Young, 
 F. Ding, F. Lipparini, F. Egidi, J. Goings, B. Peng, A. Petrone, 
 T. Henderson, D. Ranasinghe, V. G. Zakrzewski, J. Gao, N. Rega, 
 G. Zheng, W. Liang, M. Hada, M. Ehara, K. Toyota, R. Fukuda, 
 J. Hasegawa, M. Ishida, T. Nakajima, Y. Honda, O. Kitao, H. Nakai, 
 T. Vreven, K. Throssell, J. A. Montgomery, Jr., J. E. Peralta, 
 F. Ogliaro, M. J. Bearpark, J. J. Heyd, E. N. Brothers, K. N. Kudin, 
 V. N. Staroverov, T. A. Keith, R. Kobayashi, J. Normand, 
 K. Raghavachari, A. P. Rendell, J. C. Burant, S. S. Iyengar, 
 J. Tomasi, M. Cossi, J. M. Millam, M. Klene, C. Adamo, R. Cammi, 
 J. W. Ochterski, R. L. Martin, K. Morokuma, O. Farkas, 
 J. B. Foresman, and D. J. Fox, Gaussian, Inc., Wallingford CT, 2019.
 
 ******************************************
 Gaussian 16:  ES64L-G16RevC.01  3-Jul-2019
                17-Jun-2022 
 ******************************************
 %mem=8gb
 %nproc=4
 Will use up to    4 processors via shared memory.
 %chk=conf-217.chk
 ----------------------------------------------------------------------
 # B3LYP/6-31G* empiricaldispersion=gd3 guess=read geom=check nosymm in
 tegral(ultrafinegrid)
 ----------------------------------------------------------------------
 1/29=2,38=1,172=1/1;
 2/12=2,15=1,40=1/2;
 3/5=1,6=6,7=1,11=2,14=-4,25=1,30=1,74=-5,75=-5,116=-2,124=31/1,2,3;
 4/5=1/1;
 5/5=2,38=6/2;
 6/7=2,8=2,9=2,10=2,28=1/1;
 99/5=1,9=1/99;
 ------------------------------------------------------
 Candidate Structure: Conf:217 Charge calc in gas phase
 ------------------------------------------------------
 Structure from the checkpoint file:  "conf-217.chk"
 Charge =  1 Multiplicity = 1
 Redundant internal coordinates found in file.  (old form).
 N,0,-1.2046228654,-0.9766960721,3.6972860516
 H,0,-1.0407823675,-1.1756444829,4.6866249677
 H,0,-1.8777250736,-1.6457527637,3.2952798924
 H,0,-0.276863697,-1.1031727269,3.1537720675
 C,0,-1.7527108927,0.4099206153,3.4729005445
 H,0,-2.5236812059,0.5877000338,4.229820967
 C,0,-2.4278541608,0.3216865157,2.0788652876
 C,0,-0.6047519428,1.4371807921,3.6198814572
 H,0,0.1425044347,1.2380962709,2.8454209948
 H,0,-0.1140131201,1.2429767718,4.5829645936
 O,0,-2.648093924,-0.7982183366,1.5976895538
 C,0,-1.0688205063,2.8799081763,3.5625974624
 C,0,-0.6939903397,3.7031487206,2.4892019097
 H,0,-0.0593934654,3.3104668704,1.6993212883
 C,0,-1.9195627975,3.3956180531,4.5513635203
 H,0,-2.2057992359,2.7762124273,5.3992662995
 C,0,-1.1764403174,5.0116457843,2.4008866581
 H,0,-0.8821101174,5.6343804598,1.5613939862
 C,0,-2.3988015891,4.7024325559,4.463078984
 H,0,-3.0564674031,5.089394947,5.2357124322
 C,0,-2.031556259,5.5118019841,3.3842107414
 H,0,-2.4077444371,6.5280080105,3.314416322
 N,0,-2.7172253754,1.4785690378,1.4674584307
 H,0,-2.4055811204,2.3389317245,1.9086268259
 C,0,-2.9437633925,1.5745367811,0.0093915333
 H,0,-3.6340149068,0.7776951134,-0.276112233
 C,0,-1.5303538801,1.3411560006,-0.5708037457
 C,0,-3.491629402,2.9565553021,-0.3478355656
 H,0,-2.6914922453,3.6870272926,-0.1794111834
 H,0,-3.6924183229,2.962133194,-1.4270485967
 O,0,-0.6871905686,2.2267622761,-0.5718487065
 C,0,-4.7606856594,3.3766312409,0.4173394381
 H,0,-4.5257056679,3.3873128433,1.4923511805
 C,0,-5.1490295544,4.806480977,0.0158877943
 H,0,-5.3955872044,4.8607686254,-1.0517260055
 H,0,-6.0256670067,5.1458426506,0.5780335495
 H,0,-4.3305626375,5.5101497276,0.2083139983
 C,0,-5.9250242586,2.4018407858,0.1944201654
 H,0,-6.1677409025,2.3219903991,-0.8729229865
 H,0,-5.6997871086,1.3954437857,0.5668655404
 H,0,-6.8252782748,2.7476519925,0.7135247907
 N,0,-1.2462400648,0.0397378129,-0.916726676
 H,0,-1.9728718468,-0.6388190976,-0.7201921584
 C,0,0.1298864012,-0.4383992672,-0.8153072598
 H,0,0.7088990094,0.4259465249,-0.4701253319
 C,0,0.8024908086,-0.8358567633,-2.1371820146
 C,0,0.25006133,-1.6045983536,0.2135866752
 H,0,-0.6827658301,-1.7073219717,0.7660857396
 H,0,0.4503189107,-2.5445793115,-0.3090721816
 O,0,1.9000079421,-1.4095361349,-2.1011981648
 C,0,1.3638438773,-1.3497424929,1.215521923
 N,0,2.5953762621,-1.3381324643,0.7039803782
 H,0,3.3863296174,-1.1390991943,1.3026281638
 H,0,2.7135179125,-1.4513660202,-0.3070402166
 O,0,1.1358250994,-1.1365987258,2.428739443
 N,0,0.1640102787,-0.495046074,-3.2614883388
 H,0,-0.7306047507,-0.0185879414,-3.2129944314
 C,0,0.7220914907,-0.7176777021,-4.5906484635
 H,0,1.7824300713,-0.4455468857,-4.5805567668
 C,0,-0.0332749758,0.2162139434,-5.5273835264
 C,0,0.5894499468,-2.2014772954,-5.016355306
 H,0,-0.4782245196,-2.4509420661,-5.0789428337
 H,0,1.0126917825,-2.7866319526,-4.1915049203
 O,0,-1.1229084577,0.6886532241,-5.27486982
 C,0,1.3051355252,-2.5584403766,-6.3223184387
 H,0,0.863024865,-2.0216915141,-7.1668718904
 H,0,2.356538321,-2.2451790387,-6.2677688676
 C,0,1.2423068158,-4.0666725775,-6.6116005558
 H,0,1.711913324,-4.6307212419,-5.7966851774
 H,0,0.1958939601,-4.3886409056,-6.649515817
 N,0,1.9084849917,-4.4615163628,-7.8536039753
 H,0,2.9153700631,-4.3331798904,-7.8169624852
 N,0,0.0615244088,-4.0484144468,-9.2281919032
 H,0,-0.2546507502,-3.8611229111,-10.1723750474
 H,0,-0.3336644503,-4.9152189559,-8.876866547
 N,0,2.3030658514,-3.4705089281,-9.9062835674
 H,0,1.8741120085,-3.276463274,-10.8134215703
 C,0,1.4544609066,-3.9605622091,-9.0795799702
 O,0,0.6355536194,0.4330530926,-6.6686673152
 H,0,0.0764210969,0.9970373226,-7.2375338108
 Recover connectivity data from disk.
                           ----------------------------
                           !    Current Parameters    !
                           ! (Angstroms and Degrees)  !
 --------------------------                            --------------------------
 ! Name  Definition              Value                                          !
 --------------------------------------------------------------------------------
 ! R1    R(1,2)                  1.0224                                         !
 ! R2    R(1,3)                  1.0307                                         !
 ! R3    R(1,4)                  1.0827                                         !
 ! R4    R(1,5)                  1.5078                                         !
 ! R5    R(5,6)                  1.095                                          !
 ! R6    R(5,7)                  1.5514                                         !
 ! R7    R(5,8)                  1.5475                                         !
 ! R8    R(7,11)                 1.2386                                         !
 ! R9    R(7,23)                 1.3401                                         !
 ! R10   R(8,9)                  1.0944                                         !
 ! R11   R(8,10)                 1.0982                                         !
 ! R12   R(8,12)                 1.5166                                         !
 ! R13   R(12,13)                1.4037                                         !
 ! R14   R(12,15)                1.4026                                         !
 ! R15   R(13,14)                1.0867                                         !
 ! R16   R(13,17)                1.3974                                         !
 ! R17   R(15,16)                1.0884                                         !
 ! R18   R(15,19)                1.3947                                         !
 ! R19   R(17,18)                1.0859                                         !
 ! R20   R(17,21)                1.3958                                         !
 ! R21   R(19,20)                1.0859                                         !
 ! R22   R(19,21)                1.3978                                         !
 ! R23   R(21,22)                1.0858                                         !
 ! R24   R(23,24)                1.0159                                         !
 ! R25   R(23,25)                1.4787                                         !
 ! R26   R(25,26)                1.0922                                         !
 ! R27   R(25,27)                1.5456                                         !
 ! R28   R(25,28)                1.529                                          !
 ! R29   R(27,31)                1.2228                                         !
 ! R30   R(27,42)                1.3763                                         !
 ! R31   R(28,29)                1.0964                                         !
 ! R32   R(28,30)                1.0977                                         !
 ! R33   R(28,32)                1.5403                                         !
 ! R34   R(32,33)                1.1004                                         !
 ! R35   R(32,34)                1.5351                                         !
 ! R36   R(32,38)                1.5348                                         !
 ! R37   R(34,35)                1.0971                                         !
 ! R38   R(34,36)                1.0953                                         !
 ! R39   R(34,37)                1.0964                                         !
 ! R40   R(38,39)                1.0975                                         !
 ! R41   R(38,40)                1.0965                                         !
 ! R42   R(38,41)                1.0952                                         !
 ! R43   R(42,43)                1.0134                                         !
 ! R44   R(42,44)                1.4604                                         !
 ! R45   R(44,45)                1.0961                                         !
 ! R46   R(44,46)                1.5355                                         !
 ! R47   R(44,47)                1.5598                                         !
 ! R48   R(46,50)                1.2389                                         !
 ! R49   R(46,56)                1.3371                                         !
 ! R50   R(47,48)                1.089                                          !
 ! R51   R(47,49)                1.094                                          !
 ! R52   R(47,51)                1.5197                                         !
 ! R53   R(51,52)                1.3336                                         !
 ! R54   R(51,55)                1.2527                                         !
 ! R55   R(52,53)                1.0117                                         !
 ! R56   R(52,54)                1.0242                                         !
 ! R57   R(56,57)                1.0147                                         !
 ! R58   R(56,58)                1.4587                                         !
 ! R59   R(58,59)                1.0947                                         !
 ! R60   R(58,60)                1.5232                                         !
 ! R61   R(58,61)                1.5493                                         !
 ! R62   R(60,64)                1.2142                                         !
 ! R63   R(60,79)                1.3405                                         !
 ! R64   R(61,62)                1.0982                                         !
 ! R65   R(61,63)                1.0963                                         !
 ! R66   R(61,65)                1.5314                                         !
 ! R67   R(65,66)                1.094                                          !
 ! R68   R(65,67)                1.0984                                         !
 ! R69   R(65,68)                1.537                                          !
 ! R70   R(68,69)                1.0967                                         !
 ! R71   R(68,70)                1.0955                                         !
 ! R72   R(68,71)                1.4636                                         !
 ! R73   R(71,72)                1.0157                                         !
 ! R74   R(71,78)                1.4                                            !
 ! R75   R(73,74)                1.0132                                         !
 ! R76   R(73,75)                1.0154                                         !
 ! R77   R(73,78)                1.4036                                         !
 ! R78   R(76,77)                1.022                                          !
 ! R79   R(76,78)                1.2821                                         !
 ! R80   R(79,80)                0.9769                                         !
 ! A1    A(2,1,3)              110.8411                                         !
 ! A2    A(2,1,4)              109.0106                                         !
 ! A3    A(2,1,5)              112.4094                                         !
 ! A4    A(3,1,4)              106.7376                                         !
 ! A5    A(3,1,5)              107.5497                                         !
 ! A6    A(4,1,5)              110.1341                                         !
 ! A7    A(1,5,6)              107.6009                                         !
 ! A8    A(1,5,7)              103.8632                                         !
 ! A9    A(1,5,8)              109.0678                                         !
 ! A10   A(6,5,7)              108.9032                                         !
 ! A11   A(6,5,8)              110.4194                                         !
 ! A12   A(7,5,8)              116.4824                                         !
 ! A13   A(5,7,11)             118.5457                                         !
 ! A14   A(5,7,23)             117.0531                                         !
 ! A15   A(11,7,23)            124.3945                                         !
 ! A16   A(5,8,9)              108.5742                                         !
 ! A17   A(5,8,10)             107.3011                                         !
 ! A18   A(5,8,12)             113.6352                                         !
 ! A19   A(9,8,10)             106.4568                                         !
 ! A20   A(9,8,12)             110.8079                                         !
 ! A21   A(10,8,12)            109.7598                                         !
 ! A22   A(8,12,13)            120.3366                                         !
 ! A23   A(8,12,15)            120.5792                                         !
 ! A24   A(13,12,15)           119.0377                                         !
 ! A25   A(12,13,14)           119.9902                                         !
 ! A26   A(12,13,17)           120.3513                                         !
 ! A27   A(14,13,17)           119.6078                                         !
 ! A28   A(12,15,16)           119.9641                                         !
 ! A29   A(12,15,19)           120.55                                           !
 ! A30   A(16,15,19)           119.4849                                         !
 ! A31   A(13,17,18)           119.4899                                         !
 ! A32   A(13,17,21)           120.1665                                         !
 ! A33   A(18,17,21)           120.3435                                         !
 ! A34   A(15,19,20)           119.7984                                         !
 ! A35   A(15,19,21)           120.0735                                         !
 ! A36   A(20,19,21)           120.1281                                         !
 ! A37   A(17,21,19)           119.8154                                         !
 ! A38   A(17,21,22)           120.1526                                         !
 ! A39   A(19,21,22)           120.0315                                         !
 ! A40   A(7,23,24)            117.8235                                         !
 ! A41   A(7,23,25)            122.6142                                         !
 ! A42   A(24,23,25)           114.851                                          !
 ! A43   A(23,25,26)           107.8923                                         !
 ! A44   A(23,25,27)           102.724                                          !
 ! A45   A(23,25,28)           110.1173                                         !
 ! A46   A(26,25,27)           111.6936                                         !
 ! A47   A(26,25,28)           111.8343                                         !
 ! A48   A(27,25,28)           112.1147                                         !
 ! A49   A(25,27,31)           121.4351                                         !
 ! A50   A(25,27,42)           115.2095                                         !
 ! A51   A(31,27,42)           122.8406                                         !
 ! A52   A(25,28,29)           107.7468                                         !
 ! A53   A(25,28,30)           107.4473                                         !
 ! A54   A(25,28,32)           115.1935                                         !
 ! A55   A(29,28,30)           106.3266                                         !
 ! A56   A(29,28,32)           110.0751                                         !
 ! A57   A(30,28,32)           109.6517                                         !
 ! A58   A(28,32,33)           108.1805                                         !
 ! A59   A(28,32,34)           109.4236                                         !
 ! A60   A(28,32,38)           112.3135                                         !
 ! A61   A(33,32,34)           107.4849                                         !
 ! A62   A(33,32,38)           108.0618                                         !
 ! A63   A(34,32,38)           111.204                                          !
 ! A64   A(32,34,35)           110.9436                                         !
 ! A65   A(32,34,36)           110.9071                                         !
 ! A66   A(32,34,37)           111.2883                                         !
 ! A67   A(35,34,36)           107.7132                                         !
 ! A68   A(35,34,37)           107.8673                                         !
 ! A69   A(36,34,37)           107.972                                          !
 ! A70   A(32,38,39)           110.8079                                         !
 ! A71   A(32,38,40)           112.1959                                         !
 ! A72   A(32,38,41)           110.7444                                         !
 ! A73   A(39,38,40)           107.9983                                         !
 ! A74   A(39,38,41)           107.5859                                         !
 ! A75   A(40,38,41)           107.317                                          !
 ! A76   A(27,42,43)           115.8738                                         !
 ! A77   A(27,42,44)           119.1231                                         !
 ! A78   A(43,42,44)           116.2925                                         !
 ! A79   A(42,44,45)           105.1567                                         !
 ! A80   A(42,44,46)           115.9597                                         !
 ! A81   A(42,44,47)           111.2967                                         !
 ! A82   A(45,44,46)           104.1125                                         !
 ! A83   A(45,44,47)           109.9459                                         !
 ! A84   A(46,44,47)           109.9122                                         !
 ! A85   A(44,46,50)           118.8747                                         !
 ! A86   A(44,46,56)           116.662                                          !
 ! A87   A(50,46,56)           124.4334                                         !
 ! A88   A(44,47,48)           109.8266                                         !
 ! A89   A(44,47,49)           109.9595                                         !
 ! A90   A(44,47,51)           111.4679                                         !
 ! A91   A(48,47,49)           108.5498                                         !
 ! A92   A(48,47,51)           108.0064                                         !
 ! A93   A(49,47,51)           108.961                                          !
 ! A94   A(47,51,52)           115.1751                                         !
 ! A95   A(47,51,55)           122.2528                                         !
 ! A96   A(52,51,55)           122.5537                                         !
 ! A97   A(51,52,53)           119.7816                                         !
 ! A98   A(51,52,54)           118.961                                          !
 ! A99   A(53,52,54)           121.0425                                         !
 ! A100  A(46,56,57)           120.0313                                         !
 ! A101  A(46,56,58)           122.9973                                         !
 ! A102  A(57,56,58)           116.9053                                         !
 ! A103  A(56,58,59)           108.9191                                         !
 ! A104  A(56,58,60)           106.0851                                         !
 ! A105  A(56,58,61)           111.333                                          !
 ! A106  A(59,58,60)           109.4861                                         !
 ! A107  A(59,58,61)           108.8756                                         !
 ! A108  A(60,58,61)           112.0699                                         !
 ! A109  A(58,60,64)           123.7583                                         !
 ! A110  A(58,60,79)           112.045                                          !
 ! A111  A(64,60,79)           124.1863                                         !
 ! A112  A(58,61,62)           108.4474                                         !
 ! A113  A(58,61,63)           105.7467                                         !
 ! A114  A(58,61,65)           114.6796                                         !
 ! A115  A(62,61,63)           107.2749                                         !
 ! A116  A(62,61,65)           110.6584                                         !
 ! A117  A(63,61,65)           109.6815                                         !
 ! A118  A(61,65,66)           110.8007                                         !
 ! A119  A(61,65,67)           109.7858                                         !
 ! A120  A(61,65,68)           111.7239                                         !
 ! A121  A(66,65,67)           106.573                                          !
 ! A122  A(66,65,68)           108.6405                                         !
 ! A123  A(67,65,68)           109.1671                                         !
 ! A124  A(65,68,69)           110.3239                                         !
 ! A125  A(65,68,70)           109.5095                                         !
 ! A126  A(65,68,71)           113.9426                                         !
 ! A127  A(69,68,70)           106.4737                                         !
 ! A128  A(69,68,71)           107.2712                                         !
 ! A129  A(70,68,71)           109.0326                                         !
 ! A130  A(68,71,72)           112.7371                                         !
 ! A131  A(68,71,78)           119.9298                                         !
 ! A132  A(72,71,78)           107.9304                                         !
 ! A133  A(74,73,75)           111.0266                                         !
 ! A134  A(74,73,78)           113.3779                                         !
 ! A135  A(75,73,78)           113.7692                                         !
 ! A136  A(77,76,78)           111.5366                                         !
 ! A137  A(71,78,73)           113.0884                                         !
 ! A138  A(71,78,76)           119.1283                                         !
 ! A139  A(73,78,76)           127.7723                                         !
 ! A140  A(60,79,80)           107.6741                                         !
 ! D1    D(2,1,5,6)            -43.4441                                         !
 ! D2    D(2,1,5,7)           -158.8083                                         !
 ! D3    D(2,1,5,8)             76.3528                                         !
 ! D4    D(3,1,5,6)             78.8345                                         !
 ! D5    D(3,1,5,7)            -36.5297                                         !
 ! D6    D(3,1,5,8)           -161.3686                                         !
 ! D7    D(4,1,5,6)           -165.2112                                         !
 ! D8    D(4,1,5,7)             79.4246                                         !
 ! D9    D(4,1,5,8)            -45.4143                                         !
 ! D10   D(1,5,7,11)            15.0671                                         !
 ! D11   D(1,5,7,23)          -164.0352                                         !
 ! D12   D(6,5,7,11)           -99.3719                                         !
 ! D13   D(6,5,7,23)            81.5257                                         !
 ! D14   D(8,5,7,11)           134.9935                                         !
 ! D15   D(8,5,7,23)           -44.1088                                         !
 ! D16   D(1,5,8,9)             62.4607                                         !
 ! D17   D(1,5,8,10)           -52.2283                                         !
 ! D18   D(1,5,8,12)          -173.7509                                         !
 ! D19   D(6,5,8,9)           -179.5004                                         !
 ! D20   D(6,5,8,10)            65.8106                                         !
 ! D21   D(6,5,8,12)           -55.712                                          !
 ! D22   D(7,5,8,9)            -54.6324                                         !
 ! D23   D(7,5,8,10)          -169.3214                                         !
 ! D24   D(7,5,8,12)            69.156                                          !
 ! D25   D(5,7,23,24)            5.3631                                         !
 ! D26   D(5,7,23,25)          159.7666                                         !
 ! D27   D(11,7,23,24)        -173.6812                                         !
 ! D28   D(11,7,23,25)         -19.2778                                         !
 ! D29   D(5,8,12,13)         -113.2635                                         !
 ! D30   D(5,8,12,15)           64.2323                                         !
 ! D31   D(9,8,12,13)            9.3021                                         !
 ! D32   D(9,8,12,15)         -173.202                                          !
 ! D33   D(10,8,12,13)         126.5948                                         !
 ! D34   D(10,8,12,15)         -55.9093                                         !
 ! D35   D(8,12,13,14)          -0.6583                                         !
 ! D36   D(8,12,13,17)         176.7404                                         !
 ! D37   D(15,12,13,14)       -178.1925                                         !
 ! D38   D(15,12,13,17)         -0.7938                                         !
 ! D39   D(8,12,15,16)           3.5393                                         !
 ! D40   D(8,12,15,19)        -176.8283                                         !
 ! D41   D(13,12,15,16)       -178.9327                                         !
 ! D42   D(13,12,15,19)          0.6998                                         !
 ! D43   D(12,13,17,18)       -179.6396                                         !
 ! D44   D(12,13,17,21)          0.2674                                         !
 ! D45   D(14,13,17,18)         -2.231                                          !
 ! D46   D(14,13,17,21)        177.676                                          !
 ! D47   D(12,15,19,20)       -179.9739                                         !
 ! D48   D(12,15,19,21)         -0.0776                                         !
 ! D49   D(16,15,19,20)         -0.3397                                         !
 ! D50   D(16,15,19,21)        179.5566                                         !
 ! D51   D(13,17,21,19)          0.364                                          !
 ! D52   D(13,17,21,22)       -179.8891                                         !
 ! D53   D(18,17,21,19)       -179.7298                                         !
 ! D54   D(18,17,21,22)          0.0171                                         !
 ! D55   D(15,19,21,17)         -0.4589                                         !
 ! D56   D(15,19,21,22)        179.7939                                         !
 ! D57   D(20,19,21,17)        179.4371                                         !
 ! D58   D(20,19,21,22)         -0.3101                                         !
 ! D59   D(7,23,25,26)          47.6799                                         !
 ! D60   D(7,23,25,27)         -70.4262                                         !
 ! D61   D(7,23,25,28)         169.9881                                         !
 ! D62   D(24,23,25,26)       -157.2224                                         !
 ! D63   D(24,23,25,27)         84.6714                                         !
 ! D64   D(24,23,25,28)        -34.9142                                         !
 ! D65   D(23,25,27,31)        -78.0266                                         !
 ! D66   D(23,25,27,42)         93.9657                                         !
 ! D67   D(26,25,27,31)        166.5821                                         !
 ! D68   D(26,25,27,42)        -21.4257                                         !
 ! D69   D(28,25,27,31)         40.1609                                         !
 ! D70   D(28,25,27,42)       -147.8469                                         !
 ! D71   D(23,25,28,29)         68.6992                                         !
 ! D72   D(23,25,28,30)       -177.0974                                         !
 ! D73   D(23,25,28,32)        -54.5887                                         !
 ! D74   D(26,25,28,29)       -171.3514                                         !
 ! D75   D(26,25,28,30)        -57.148                                          !
 ! D76   D(26,25,28,32)         65.3607                                         !
 ! D77   D(27,25,28,29)        -45.0064                                         !
 ! D78   D(27,25,28,30)         69.197                                          !
 ! D79   D(27,25,28,32)       -168.2943                                         !
 ! D80   D(25,27,42,43)         -2.5604                                         !
 ! D81   D(25,27,42,44)       -149.047                                          !
 ! D82   D(31,27,42,43)        169.3067                                         !
 ! D83   D(31,27,42,44)         22.82                                           !
 ! D84   D(25,28,32,33)         60.0813                                         !
 ! D85   D(25,28,32,34)        176.8973                                         !
 ! D86   D(25,28,32,38)        -59.0969                                         !
 ! D87   D(29,28,32,33)        -61.9624                                         !
 ! D88   D(29,28,32,34)         54.8537                                         !
 ! D89   D(29,28,32,38)        178.8595                                         !
 ! D90   D(30,28,32,33)       -178.5978                                         !
 ! D91   D(30,28,32,34)        -61.7818                                         !
 ! D92   D(30,28,32,38)         62.224                                          !
 ! D93   D(28,32,34,35)         62.7235                                         !
 ! D94   D(28,32,34,36)       -177.6105                                         !
 ! D95   D(28,32,34,37)        -57.3896                                         !
 ! D96   D(33,32,34,35)        179.9781                                         !
 ! D97   D(33,32,34,36)        -60.3559                                         !
 ! D98   D(33,32,34,37)         59.865                                          !
 ! D99   D(38,32,34,35)        -61.9307                                         !
 ! D100  D(38,32,34,36)         57.7353                                         !
 ! D101  D(38,32,34,37)        177.9562                                         !
 ! D102  D(28,32,38,39)        -58.2055                                         !
 ! D103  D(28,32,38,40)         62.5952                                         !
 ! D104  D(28,32,38,41)       -177.5171                                         !
 ! D105  D(33,32,38,39)       -177.4531                                         !
 ! D106  D(33,32,38,40)        -56.6523                                         !
 ! D107  D(33,32,38,41)         63.2353                                         !
 ! D108  D(34,32,38,39)         64.8048                                         !
 ! D109  D(34,32,38,40)       -174.3945                                         !
 ! D110  D(34,32,38,41)        -54.5068                                         !
 ! D111  D(27,42,44,45)         -1.1492                                         !
 ! D112  D(27,42,44,46)       -115.5328                                         !
 ! D113  D(27,42,44,47)        117.8583                                         !
 ! D114  D(43,42,44,45)       -147.4997                                         !
 ! D115  D(43,42,44,46)         98.1166                                         !
 ! D116  D(43,42,44,47)        -28.4923                                         !
 ! D117  D(42,44,46,50)       -170.7154                                         !
 ! D118  D(42,44,46,56)         11.1845                                         !
 ! D119  D(45,44,46,50)         74.3076                                         !
 ! D120  D(45,44,46,56)       -103.7925                                         !
 ! D121  D(47,44,46,50)        -43.4146                                         !
 ! D122  D(47,44,46,56)        138.4853                                         !
 ! D123  D(42,44,47,48)         -9.588                                          !
 ! D124  D(42,44,47,49)        109.8002                                         !
 ! D125  D(42,44,47,51)       -129.2504                                         !
 ! D126  D(45,44,47,48)        106.5155                                         !
 ! D127  D(45,44,47,49)       -134.0963                                         !
 ! D128  D(45,44,47,51)        -13.1469                                         !
 ! D129  D(46,44,47,48)       -139.4471                                         !
 ! D130  D(46,44,47,49)        -20.0589                                         !
 ! D131  D(46,44,47,51)        100.8905                                         !
 ! D132  D(44,46,56,57)         -1.4775                                         !
 ! D133  D(44,46,56,58)        175.4731                                         !
 ! D134  D(50,46,56,57)       -179.4603                                         !
 ! D135  D(50,46,56,58)         -2.5098                                         !
 ! D136  D(44,47,51,52)        -65.8885                                         !
 ! D137  D(44,47,51,55)        112.5862                                         !
 ! D138  D(48,47,51,52)        173.3772                                         !
 ! D139  D(48,47,51,55)         -8.1481                                         !
 ! D140  D(49,47,51,52)         55.6426                                         !
 ! D141  D(49,47,51,55)       -125.8827                                         !
 ! D142  D(47,51,52,53)        177.6329                                         !
 ! D143  D(47,51,52,54)          2.903                                          !
 ! D144  D(55,51,52,53)         -0.8368                                         !
 ! D145  D(55,51,52,54)       -175.5666                                         !
 ! D146  D(46,56,58,59)        -42.6579                                         !
 ! D147  D(46,56,58,60)       -160.4218                                         !
 ! D148  D(46,56,58,61)         77.4086                                         !
 ! D149  D(57,56,58,59)        134.3817                                         !
 ! D150  D(57,56,58,60)         16.6178                                         !
 ! D151  D(57,56,58,61)       -105.5518                                         !
 ! D152  D(56,58,60,64)        -20.9154                                         !
 ! D153  D(56,58,60,79)        160.2149                                         !
 ! D154  D(59,58,60,64)       -138.3011                                         !
 ! D155  D(59,58,60,79)         42.8292                                         !
 ! D156  D(61,58,60,64)        100.7837                                         !
 ! D157  D(61,58,60,79)        -78.0861                                         !
 ! D158  D(56,58,61,62)         63.0496                                         !
 ! D159  D(56,58,61,63)        -51.7411                                         !
 ! D160  D(56,58,61,65)       -172.7163                                         !
 ! D161  D(59,58,61,62)       -176.8581                                         !
 ! D162  D(59,58,61,63)         68.3512                                         !
 ! D163  D(59,58,61,65)        -52.6241                                         !
 ! D164  D(60,58,61,62)        -55.5907                                         !
 ! D165  D(60,58,61,63)       -170.3814                                         !
 ! D166  D(60,58,61,65)         68.6433                                         !
 ! D167  D(58,60,79,80)        177.0284                                         !
 ! D168  D(64,60,79,80)         -1.8357                                         !
 ! D169  D(58,61,65,66)        -64.0697                                         !
 ! D170  D(58,61,65,67)         53.3771                                         !
 ! D171  D(58,61,65,68)        174.6377                                         !
 ! D172  D(62,61,65,66)         58.9843                                         !
 ! D173  D(62,61,65,67)        176.4311                                         !
 ! D174  D(62,61,65,68)        -62.3083                                         !
 ! D175  D(63,61,65,66)        177.143                                          !
 ! D176  D(63,61,65,67)        -65.4102                                         !
 ! D177  D(63,61,65,68)         55.8504                                         !
 ! D178  D(61,65,68,69)        -59.4929                                         !
 ! D179  D(61,65,68,70)         57.3825                                         !
 ! D180  D(61,65,68,71)        179.785                                          !
 ! D181  D(66,65,68,69)        177.9711                                         !
 ! D182  D(66,65,68,70)        -65.1536                                         !
 ! D183  D(66,65,68,71)         57.2489                                         !
 ! D184  D(67,65,68,69)         62.1256                                         !
 ! D185  D(67,65,68,70)        179.001                                          !
 ! D186  D(67,65,68,71)        -58.5965                                         !
 ! D187  D(65,68,71,72)         67.089                                          !
 ! D188  D(65,68,71,78)        -61.6985                                         !
 ! D189  D(69,68,71,72)        -55.3245                                         !
 ! D190  D(69,68,71,78)        175.8879                                         !
 ! D191  D(70,68,71,72)       -170.2471                                         !
 ! D192  D(70,68,71,78)         60.9654                                         !
 ! D193  D(68,71,78,73)        -47.3021                                         !
 ! D194  D(68,71,78,76)        131.5833                                         !
 ! D195  D(72,71,78,73)       -178.2245                                         !
 ! D196  D(72,71,78,76)          0.661                                          !
 ! D197  D(74,73,78,71)       -168.6201                                         !
 ! D198  D(74,73,78,76)         12.6117                                         !
 ! D199  D(75,73,78,71)        -40.4863                                         !
 ! D200  D(75,73,78,76)        140.7455                                         !
 ! D201  D(77,76,78,71)        171.0192                                         !
 ! D202  D(77,76,78,73)        -10.2779                                         !
 --------------------------------------------------------------------------------
 Symmetry turned off by external request.
 Stoichiometry    C25H41N8O6(1+)
 Framework group  C1[X(C25H41N8O6)]
 Deg. of freedom   234
 Full point group                 C1      NOp   1
                          Input orientation:                          
 ---------------------------------------------------------------------
 Center     Atomic      Atomic             Coordinates (Angstroms)
 Number     Number       Type             X           Y           Z
 ---------------------------------------------------------------------
      1          7           0       -1.204623   -0.976696    3.697286
      2          1           0       -1.040782   -1.175644    4.686625
      3          1           0       -1.877725   -1.645753    3.295280
      4          1           0       -0.276864   -1.103173    3.153772
      5          6           0       -1.752711    0.409921    3.472901
      6          1           0       -2.523681    0.587700    4.229821
      7          6           0       -2.427854    0.321687    2.078865
      8          6           0       -0.604752    1.437181    3.619881
      9          1           0        0.142504    1.238096    2.845421
     10          1           0       -0.114013    1.242977    4.582965
     11          8           0       -2.648094   -0.798218    1.597690
     12          6           0       -1.068821    2.879908    3.562597
     13          6           0       -0.693990    3.703149    2.489202
     14          1           0       -0.059393    3.310467    1.699321
     15          6           0       -1.919563    3.395618    4.551364
     16          1           0       -2.205799    2.776212    5.399266
     17          6           0       -1.176440    5.011646    2.400887
     18          1           0       -0.882110    5.634380    1.561394
     19          6           0       -2.398802    4.702433    4.463079
     20          1           0       -3.056467    5.089395    5.235712
     21          6           0       -2.031556    5.511802    3.384211
     22          1           0       -2.407744    6.528008    3.314416
     23          7           0       -2.717225    1.478569    1.467458
     24          1           0       -2.405581    2.338932    1.908627
     25          6           0       -2.943763    1.574537    0.009392
     26          1           0       -3.634015    0.777695   -0.276112
     27          6           0       -1.530354    1.341156   -0.570804
     28          6           0       -3.491629    2.956555   -0.347836
     29          1           0       -2.691492    3.687027   -0.179411
     30          1           0       -3.692418    2.962133   -1.427049
     31          8           0       -0.687191    2.226762   -0.571849
     32          6           0       -4.760686    3.376631    0.417339
     33          1           0       -4.525706    3.387313    1.492351
     34          6           0       -5.149030    4.806481    0.015888
     35          1           0       -5.395587    4.860769   -1.051726
     36          1           0       -6.025667    5.145843    0.578034
     37          1           0       -4.330563    5.510150    0.208314
     38          6           0       -5.925024    2.401841    0.194420
     39          1           0       -6.167741    2.321990   -0.872923
     40          1           0       -5.699787    1.395444    0.566866
     41          1           0       -6.825278    2.747652    0.713525
     42          7           0       -1.246240    0.039738   -0.916727
     43          1           0       -1.972872   -0.638819   -0.720192
     44          6           0        0.129886   -0.438399   -0.815307
     45          1           0        0.708899    0.425947   -0.470125
     46          6           0        0.802491   -0.835857   -2.137182
     47          6           0        0.250061   -1.604598    0.213587
     48          1           0       -0.682766   -1.707322    0.766086
     49          1           0        0.450319   -2.544579   -0.309072
     50          8           0        1.900008   -1.409536   -2.101198
     51          6           0        1.363844   -1.349742    1.215522
     52          7           0        2.595376   -1.338132    0.703980
     53          1           0        3.386330   -1.139099    1.302628
     54          1           0        2.713518   -1.451366   -0.307040
     55          8           0        1.135825   -1.136599    2.428739
     56          7           0        0.164010   -0.495046   -3.261488
     57          1           0       -0.730605   -0.018588   -3.212994
     58          6           0        0.722091   -0.717678   -4.590648
     59          1           0        1.782430   -0.445547   -4.580557
     60          6           0       -0.033275    0.216214   -5.527384
     61          6           0        0.589450   -2.201477   -5.016355
     62          1           0       -0.478225   -2.450942   -5.078943
     63          1           0        1.012692   -2.786632   -4.191505
     64          8           0       -1.122908    0.688653   -5.274870
     65          6           0        1.305136   -2.558440   -6.322318
     66          1           0        0.863025   -2.021692   -7.166872
     67          1           0        2.356538   -2.245179   -6.267769
     68          6           0        1.242307   -4.066673   -6.611601
     69          1           0        1.711913   -4.630721   -5.796685
     70          1           0        0.195894   -4.388641   -6.649516
     71          7           0        1.908485   -4.461516   -7.853604
     72          1           0        2.915370   -4.333180   -7.816962
     73          7           0        0.061524   -4.048414   -9.228192
     74          1           0       -0.254651   -3.861123  -10.172375
     75          1           0       -0.333664   -4.915219   -8.876867
     76          7           0        2.303066   -3.470509   -9.906284
     77          1           0        1.874112   -3.276463  -10.813422
     78          6           0        1.454461   -3.960562   -9.079580
     79          8           0        0.635554    0.433053   -6.668667
     80          1           0        0.076421    0.997037   -7.237534
 ---------------------------------------------------------------------
 Rotational constants (GHZ):           0.1607371           0.0378746           0.0339054
 Standard basis: 6-31G(d) (6D, 7F)
   667 basis functions,  1256 primitive gaussians,   667 cartesian basis functions
   147 alpha electrons      147 beta electrons
       nuclear repulsion energy      4638.0202139393 Hartrees.
 NAtoms=   80 NActive=   80 NUniq=   80 SFac= 1.00D+00 NAtFMM=   60 NAOKFM=T Big=T
 Integral buffers will be    131072 words long.
 Raffenetti 2 integral format.
 Two-electron integral symmetry is turned off.
 Nuclear repulsion after empirical dispersion term =     4637.9147272946 Hartrees.
 One-electron integrals computed using PRISM.
 NBasis=   667 RedAO= T EigKep=  4.67D-04  NBF=   667
 NBsUse=   667 1.00D-06 EigRej= -1.00D+00 NBFU=   667
 Initial guess from the checkpoint file:  "conf-217.chk"
 B after Tr=     0.000000    0.000000    0.000000
         Rot=    1.000000    0.000000    0.000000    0.000000 Ang=   0.00 deg.
 Requested convergence on RMS density matrix=1.00D-08 within 128 cycles.
 Requested convergence on MAX density matrix=1.00D-06.
 Requested convergence on             energy=1.00D-06.
 No special actions if energy rises.
 SCF Done:  E(RB3LYP) =  -1866.71029400     A.U. after    2 cycles
            NFock=  2  Conv=0.76D-08     -V/T= 2.0094

 **********************************************************************

            Population analysis using the SCF Density.

 **********************************************************************

 Alpha  occ. eigenvalues --  -19.28672 -19.26463 -19.25193 -19.23467 -19.23221
 Alpha  occ. eigenvalues --  -19.22136 -14.56824 -14.49379 -14.47850 -14.46821
 Alpha  occ. eigenvalues --  -14.46091 -14.39791 -14.38839 -14.33112 -10.43465
 Alpha  occ. eigenvalues --  -10.41795 -10.41224 -10.40374 -10.39840 -10.39222
 Alpha  occ. eigenvalues --  -10.35274 -10.35013 -10.33181 -10.32923 -10.32483
 Alpha  occ. eigenvalues --  -10.31408 -10.31321 -10.30009 -10.29544 -10.29474
 Alpha  occ. eigenvalues --  -10.29325 -10.29229 -10.28210 -10.27918 -10.27750
 Alpha  occ. eigenvalues --  -10.27123 -10.25621 -10.25191 -10.24796  -1.19755
 Alpha  occ. eigenvalues --   -1.18575  -1.15937  -1.15488  -1.13792  -1.11638
 Alpha  occ. eigenvalues --   -1.10861  -1.06246  -1.04554  -1.02748  -1.02099
 Alpha  occ. eigenvalues --   -1.02051  -0.96878  -0.93452  -0.92623  -0.90535
 Alpha  occ. eigenvalues --   -0.89729  -0.89072  -0.87706  -0.86182  -0.85057
 Alpha  occ. eigenvalues --   -0.84399  -0.82055  -0.79307  -0.79033  -0.76498
 Alpha  occ. eigenvalues --   -0.74923  -0.74286  -0.72941  -0.72534  -0.72036
 Alpha  occ. eigenvalues --   -0.71049  -0.70854  -0.70226  -0.69204  -0.68513
 Alpha  occ. eigenvalues --   -0.67693  -0.66529  -0.66197  -0.65042  -0.64641
 Alpha  occ. eigenvalues --   -0.64183  -0.63170  -0.62405  -0.61365  -0.61229
 Alpha  occ. eigenvalues --   -0.60479  -0.59592  -0.58680  -0.58236  -0.57670
 Alpha  occ. eigenvalues --   -0.57389  -0.57076  -0.56453  -0.56142  -0.56046
 Alpha  occ. eigenvalues --   -0.55614  -0.54928  -0.54492  -0.54128  -0.53847
 Alpha  occ. eigenvalues --   -0.53212  -0.53073  -0.52772  -0.52382  -0.52196
 Alpha  occ. eigenvalues --   -0.51793  -0.51729  -0.51101  -0.50903  -0.50381
 Alpha  occ. eigenvalues --   -0.49861  -0.49589  -0.49468  -0.48980  -0.48205
 Alpha  occ. eigenvalues --   -0.47809  -0.47741  -0.47425  -0.46611  -0.46431
 Alpha  occ. eigenvalues --   -0.46184  -0.45021  -0.44925  -0.44577  -0.44504
 Alpha  occ. eigenvalues --   -0.43914  -0.42488  -0.41651  -0.41590  -0.41449
 Alpha  occ. eigenvalues --   -0.41307  -0.40953  -0.40758  -0.40431  -0.39774
 Alpha  occ. eigenvalues --   -0.39628  -0.39090  -0.38829  -0.36958  -0.36532
 Alpha  occ. eigenvalues --   -0.35593  -0.35528  -0.35418  -0.35012  -0.31135
 Alpha  occ. eigenvalues --   -0.30359  -0.27341
 Alpha virt. eigenvalues --   -0.13623  -0.11333  -0.11045  -0.10557  -0.09165
 Alpha virt. eigenvalues --   -0.08601  -0.07850  -0.07377  -0.03185  -0.02155
 Alpha virt. eigenvalues --   -0.01269  -0.01147  -0.00575  -0.00101   0.00005
 Alpha virt. eigenvalues --    0.00086   0.00273   0.01224   0.01642   0.01845
 Alpha virt. eigenvalues --    0.02146   0.02769   0.03165   0.03615   0.04092
 Alpha virt. eigenvalues --    0.04396   0.04641   0.04795   0.05026   0.05674
 Alpha virt. eigenvalues --    0.05970   0.06151   0.06373   0.06622   0.06957
 Alpha virt. eigenvalues --    0.07372   0.07484   0.07541   0.07818   0.08220
 Alpha virt. eigenvalues --    0.09078   0.09279   0.09521   0.09911   0.10064
 Alpha virt. eigenvalues --    0.10242   0.10859   0.11018   0.11215   0.11339
 Alpha virt. eigenvalues --    0.12098   0.12468   0.12587   0.12883   0.13097
 Alpha virt. eigenvalues --    0.13647   0.13743   0.13944   0.14076   0.15281
 Alpha virt. eigenvalues --    0.15346   0.15952   0.16687   0.16886   0.17498
 Alpha virt. eigenvalues --    0.18279   0.18807   0.19368   0.20400   0.20611
 Alpha virt. eigenvalues --    0.21183   0.21899   0.22187   0.22358   0.22664
 Alpha virt. eigenvalues --    0.23169   0.24321   0.24930   0.25777   0.25945
 Alpha virt. eigenvalues --    0.27707   0.28306   0.29858   0.30158   0.31376
 Alpha virt. eigenvalues --    0.33986   0.35470   0.37047   0.37316   0.38539
 Alpha virt. eigenvalues --    0.39129   0.39834   0.40938   0.41979   0.42031
 Alpha virt. eigenvalues --    0.42367   0.42913   0.43331   0.43727   0.44132
 Alpha virt. eigenvalues --    0.44301   0.44474   0.44622   0.45011   0.45779
 Alpha virt. eigenvalues --    0.46216   0.46543   0.47544   0.48073   0.48181
 Alpha virt. eigenvalues --    0.48522   0.48799   0.48947   0.49441   0.49512
 Alpha virt. eigenvalues --    0.49859   0.50540   0.51223   0.51459   0.51623
 Alpha virt. eigenvalues --    0.51842   0.51932   0.52763   0.53124   0.53347
 Alpha virt. eigenvalues --    0.54022   0.54444   0.54924   0.55387   0.55790
 Alpha virt. eigenvalues --    0.55873   0.56121   0.56227   0.56593   0.57042
 Alpha virt. eigenvalues --    0.57477   0.58622   0.58842   0.59525   0.59929
 Alpha virt. eigenvalues --    0.60380   0.60820   0.61324   0.62199   0.62598
 Alpha virt. eigenvalues --    0.63323   0.63687   0.64205   0.64750   0.65154
 Alpha virt. eigenvalues --    0.65569   0.65753   0.66335   0.66532   0.66986
 Alpha virt. eigenvalues --    0.67202   0.67952   0.68474   0.69318   0.69466
 Alpha virt. eigenvalues --    0.70279   0.70727   0.71685   0.72122   0.72378
 Alpha virt. eigenvalues --    0.72726   0.72920   0.73306   0.74204   0.74386
 Alpha virt. eigenvalues --    0.74500   0.74686   0.75064   0.75542   0.75637
 Alpha virt. eigenvalues --    0.76085   0.76422   0.76612   0.77080   0.77371
 Alpha virt. eigenvalues --    0.77768   0.78423   0.78563   0.78867   0.79269
 Alpha virt. eigenvalues --    0.79664   0.80015   0.80511   0.81077   0.81451
 Alpha virt. eigenvalues --    0.81773   0.81939   0.82236   0.82755   0.82884
 Alpha virt. eigenvalues --    0.83296   0.83626   0.83805   0.84078   0.84569
 Alpha virt. eigenvalues --    0.84612   0.84754   0.85317   0.85705   0.86228
 Alpha virt. eigenvalues --    0.86764   0.87193   0.87291   0.87594   0.88020
 Alpha virt. eigenvalues --    0.88654   0.88826   0.89648   0.90253   0.90685
 Alpha virt. eigenvalues --    0.91034   0.91321   0.92164   0.92624   0.93069
 Alpha virt. eigenvalues --    0.93327   0.94386   0.94800   0.95826   0.96306
 Alpha virt. eigenvalues --    0.96575   0.97542   0.98423   0.99463   1.00473
 Alpha virt. eigenvalues --    1.00852   1.01198   1.02029   1.02503   1.03348
 Alpha virt. eigenvalues --    1.04180   1.04395   1.05560   1.06005   1.06513
 Alpha virt. eigenvalues --    1.07244   1.07403   1.08643   1.10323   1.10874
 Alpha virt. eigenvalues --    1.11698   1.12506   1.13292   1.13357   1.13779
 Alpha virt. eigenvalues --    1.15362   1.17007   1.17929   1.19864   1.20756
 Alpha virt. eigenvalues --    1.21192   1.22615   1.22723   1.23760   1.24193
 Alpha virt. eigenvalues --    1.25412   1.26074   1.26930   1.27120   1.28038
 Alpha virt. eigenvalues --    1.28578   1.29136   1.30640   1.30995   1.31728
 Alpha virt. eigenvalues --    1.31953   1.33216   1.33872   1.34301   1.35172
 Alpha virt. eigenvalues --    1.35369   1.36260   1.36554   1.37547   1.38065
 Alpha virt. eigenvalues --    1.38975   1.39220   1.40407   1.41048   1.41159
 Alpha virt. eigenvalues --    1.42515   1.42999   1.43149   1.44354   1.45490
 Alpha virt. eigenvalues --    1.46691   1.47438   1.48935   1.49461   1.50610
 Alpha virt. eigenvalues --    1.51699   1.52992   1.53447   1.54484   1.55056
 Alpha virt. eigenvalues --    1.56146   1.57741   1.58653   1.58947   1.60489
 Alpha virt. eigenvalues --    1.60983   1.62116   1.62238   1.62671   1.64400
 Alpha virt. eigenvalues --    1.65203   1.65458   1.66999   1.67207   1.67586
 Alpha virt. eigenvalues --    1.68436   1.68506   1.69005   1.69482   1.70050
 Alpha virt. eigenvalues --    1.70595   1.71207   1.71603   1.72654   1.72884
 Alpha virt. eigenvalues --    1.72970   1.73769   1.74647   1.74887   1.75311
 Alpha virt. eigenvalues --    1.75854   1.75954   1.76206   1.77747   1.78159
 Alpha virt. eigenvalues --    1.78204   1.78802   1.79518   1.80068   1.80431
 Alpha virt. eigenvalues --    1.81289   1.81748   1.82356   1.82541   1.82894
 Alpha virt. eigenvalues --    1.83443   1.84653   1.84748   1.85635   1.85701
 Alpha virt. eigenvalues --    1.86350   1.87401   1.87757   1.87953   1.88322
 Alpha virt. eigenvalues --    1.88950   1.89729   1.89892   1.91707   1.92497
 Alpha virt. eigenvalues --    1.93602   1.94019   1.94217   1.94827   1.95061
 Alpha virt. eigenvalues --    1.95666   1.95792   1.96803   1.97204   1.97512
 Alpha virt. eigenvalues --    1.98822   1.99312   2.00418   2.00766   2.02027
 Alpha virt. eigenvalues --    2.02348   2.03270   2.03626   2.04114   2.04789
 Alpha virt. eigenvalues --    2.05878   2.06050   2.06664   2.07424   2.08424
 Alpha virt. eigenvalues --    2.09625   2.10561   2.11843   2.12936   2.15255
 Alpha virt. eigenvalues --    2.15822   2.16655   2.17324   2.18049   2.18759
 Alpha virt. eigenvalues --    2.19515   2.20045   2.20314   2.21050   2.21390
 Alpha virt. eigenvalues --    2.22166   2.24196   2.24840   2.25731   2.26332
 Alpha virt. eigenvalues --    2.26619   2.28277   2.28826   2.29349   2.30199
 Alpha virt. eigenvalues --    2.30306   2.31631   2.32144   2.32640   2.33002
 Alpha virt. eigenvalues --    2.33477   2.34671   2.35680   2.36020   2.37912
 Alpha virt. eigenvalues --    2.38199   2.38906   2.40521   2.41953   2.42630
 Alpha virt. eigenvalues --    2.43360   2.43850   2.44315   2.44933   2.45547
 Alpha virt. eigenvalues --    2.46179   2.48053   2.48570   2.48901   2.50656
 Alpha virt. eigenvalues --    2.50901   2.53188   2.53830   2.54747   2.54965
 Alpha virt. eigenvalues --    2.55329   2.56500   2.56920   2.57266   2.58484
 Alpha virt. eigenvalues --    2.60476   2.61200   2.61578   2.62507   2.63637
 Alpha virt. eigenvalues --    2.64444   2.65278   2.65990   2.67158   2.67569
 Alpha virt. eigenvalues --    2.69088   2.69549   2.69900   2.71306   2.72131
 Alpha virt. eigenvalues --    2.74744   2.76958   2.78543   2.79291   2.80805
 Alpha virt. eigenvalues --    2.84665   2.87143   2.88416   2.88701   2.89401
 Alpha virt. eigenvalues --    2.91721   2.92978   2.94268   2.94821   2.96429
 Alpha virt. eigenvalues --    2.96629   3.00494   3.03102   3.03394   3.11108
 Alpha virt. eigenvalues --    3.30110   3.71508   3.76732   3.76980   3.81255
 Alpha virt. eigenvalues --    3.85078   3.89979   3.93398   3.94815   3.95867
 Alpha virt. eigenvalues --    3.99305   4.01187   4.02474   4.04153   4.06844
 Alpha virt. eigenvalues --    4.08890   4.09706   4.11922   4.14774   4.16702
 Alpha virt. eigenvalues --    4.18693   4.20843   4.22256   4.24038   4.25231
 Alpha virt. eigenvalues --    4.25514   4.27177   4.28993   4.31527   4.35160
 Alpha virt. eigenvalues --    4.35606   4.37610   4.44423   4.44750   4.46998
 Alpha virt. eigenvalues --    4.49318   4.56328   4.59426   4.60096   4.60816
          Condensed to atoms (all electrons):
 Mulliken charges:
               1
     1  N   -0.777209
     2  H    0.398745
     3  H    0.410427
     4  H    0.457321
     5  C   -0.129452
     6  H    0.219791
     7  C    0.643490
     8  C   -0.366402
     9  H    0.195094
    10  H    0.184059
    11  O   -0.546799
    12  C    0.103313
    13  C   -0.216984
    14  H    0.177487
    15  C   -0.171516
    16  H    0.135051
    17  C   -0.124905
    18  H    0.167069
    19  C   -0.125067
    20  H    0.162712
    21  C   -0.125076
    22  H    0.164616
    23  N   -0.598611
    24  H    0.385856
    25  C   -0.068966
    26  H    0.184103
    27  C    0.600520
    28  C   -0.297118
    29  H    0.172372
    30  H    0.165532
    31  O   -0.497878
    32  C   -0.081414
    33  H    0.125156
    34  C   -0.444819
    35  H    0.154589
    36  H    0.157099
    37  H    0.145064
    38  C   -0.453970
    39  H    0.152988
    40  H    0.140685
    41  H    0.161954
    42  N   -0.623436
    43  H    0.357694
    44  C   -0.060838
    45  H    0.220964
    46  C    0.648348
    47  C   -0.406195
    48  H    0.183020
    49  H    0.210989
    50  O   -0.557952
    51  C    0.598862
    52  N   -0.719554
    53  H    0.361780
    54  H    0.406042
    55  O   -0.579139
    56  N   -0.616877
    57  H    0.369154
    58  C   -0.023972
    59  H    0.200979
    60  C    0.583862
    61  C   -0.279914
    62  H    0.148160
    63  H    0.171406
    64  O   -0.468979
    65  C   -0.269839
    66  H    0.176546
    67  H    0.147506
    68  C   -0.145002
    69  H    0.148506
    70  H    0.145589
    71  N   -0.567230
    72  H    0.328871
    73  N   -0.743959
    74  H    0.324866
    75  H    0.329679
    76  N   -0.628075
    77  H    0.267651
    78  C    0.538870
    79  O   -0.545461
    80  H    0.428171
 Sum of Mulliken charges =   1.00000
 Mulliken charges with hydrogens summed into heavy atoms:
               1
     1  N    0.489284
     5  C    0.090339
     7  C    0.643490
     8  C    0.012750
    11  O   -0.546799
    12  C    0.103313
    13  C   -0.039497
    15  C   -0.036465
    17  C    0.042164
    19  C    0.037645
    21  C    0.039539
    23  N   -0.212755
    25  C    0.115137
    27  C    0.600520
    28  C    0.040785
    31  O   -0.497878
    32  C    0.043742
    34  C    0.011933
    38  C    0.001657
    42  N   -0.265742
    44  C    0.160126
    46  C    0.648348
    47  C   -0.012186
    50  O   -0.557952
    51  C    0.598862
    52  N    0.048268
    55  O   -0.579139
    56  N   -0.247724
    58  C    0.177007
    60  C    0.583862
    61  C    0.039652
    64  O   -0.468979
    65  C    0.054212
    68  C    0.149093
    71  N   -0.238359
    73  N   -0.089413
    76  N   -0.360424
    78  C    0.538870
    79  O   -0.117290
 Electronic spatial extent (au):  <R**2>=          33305.9359
 Charge=              1.0000 electrons
 Dipole moment (field-independent basis, Debye):
    X=             -8.3086    Y=              0.7387    Z=              7.2215  Tot=             11.0331
 Quadrupole moment (field-independent basis, Debye-Ang):
   XX=           -207.9075   YY=           -190.4918   ZZ=           -134.8429
   XY=             -8.8461   XZ=              3.9638   YZ=             15.4308
 Traceless Quadrupole moment (field-independent basis, Debye-Ang):
   XX=            -30.1601   YY=            -12.7444   ZZ=             42.9045
   XY=             -8.8461   XZ=              3.9638   YZ=             15.4308
 Octapole moment (field-independent basis, Debye-Ang**2):
  XXX=            493.1699  YYY=           -124.0088  ZZZ=            646.4437  XYY=             55.2994
  XXY=              2.8089  XXZ=            393.7808  XZZ=           -175.2311  YZZ=           -136.6034
  YYZ=            275.9716  XYZ=           -133.2583
 Hexadecapole moment (field-independent basis, Debye-Ang**3):
 XXXX=          -6828.9277 YYYY=          -9434.1695 ZZZZ=         -20087.8031 XXXY=           2705.2888
 XXXZ=           2525.1786 YYYX=           2741.6478 YYYZ=          -4414.3307 ZZZX=           4439.3045
 ZZZY=          -4127.4570 XXYY=          -2728.2700 XXZZ=          -6111.9714 YYZZ=          -5076.2811
 XXYZ=          -1799.4321 YYXZ=            912.6680 ZZXY=           1830.5441
 N-N= 4.637914727295D+03 E-N=-1.359415402876D+04  KE= 1.849284854703D+03
 Unable to Open any file for archive entry.
 1\1\GINC-AMR-096\SP\RB3LYP\6-31G(d)\C25H41N8O6(1+)\KENGMITH\17-Jun-202
 2\0\\# B3LYP/6-31G* empiricaldispersion=gd3 guess=read geom=check nosy
 mm integral(ultrafinegrid)\\Candidate Structure: Conf:217 Charge calc 
 in gas phase\\1,1\N,0,-1.2046228654,-0.9766960721,3.6972860516\H,0,-1.
 0407823675,-1.1756444829,4.6866249677\H,0,-1.8777250736,-1.6457527637,
 3.2952798924\H,0,-0.276863697,-1.1031727269,3.1537720675\C,0,-1.752710
 8927,0.4099206153,3.4729005445\H,0,-2.5236812059,0.5877000338,4.229820
 967\C,0,-2.4278541608,0.3216865157,2.0788652876\C,0,-0.6047519428,1.43
 71807921,3.6198814572\H,0,0.1425044347,1.2380962709,2.8454209948\H,0,-
 0.1140131201,1.2429767718,4.5829645936\O,0,-2.648093924,-0.7982183366,
 1.5976895538\C,0,-1.0688205063,2.8799081763,3.5625974624\C,0,-0.693990
 3397,3.7031487206,2.4892019097\H,0,-0.0593934654,3.3104668704,1.699321
 2883\C,0,-1.9195627975,3.3956180531,4.5513635203\H,0,-2.2057992359,2.7
 762124273,5.3992662995\C,0,-1.1764403174,5.0116457843,2.4008866581\H,0
 ,-0.8821101174,5.6343804598,1.5613939862\C,0,-2.3988015891,4.702432555
 9,4.463078984\H,0,-3.0564674031,5.089394947,5.2357124322\C,0,-2.031556
 259,5.5118019841,3.3842107414\H,0,-2.4077444371,6.5280080105,3.3144163
 22\N,0,-2.7172253754,1.4785690378,1.4674584307\H,0,-2.4055811204,2.338
 9317245,1.9086268259\C,0,-2.9437633925,1.5745367811,0.0093915333\H,0,-
 3.6340149068,0.7776951134,-0.276112233\C,0,-1.5303538801,1.3411560006,
 -0.5708037457\C,0,-3.491629402,2.9565553021,-0.3478355656\H,0,-2.69149
 22453,3.6870272926,-0.1794111834\H,0,-3.6924183229,2.962133194,-1.4270
 485967\O,0,-0.6871905686,2.2267622761,-0.5718487065\C,0,-4.7606856594,
 3.3766312409,0.4173394381\H,0,-4.5257056679,3.3873128433,1.4923511805\
 C,0,-5.1490295544,4.806480977,0.0158877943\H,0,-5.3955872044,4.8607686
 254,-1.0517260055\H,0,-6.0256670067,5.1458426506,0.5780335495\H,0,-4.3
 305626375,5.5101497276,0.2083139983\C,0,-5.9250242586,2.4018407858,0.1
 944201654\H,0,-6.1677409025,2.3219903991,-0.8729229865\H,0,-5.69978710
 86,1.3954437857,0.5668655404\H,0,-6.8252782748,2.7476519925,0.71352479
 07\N,0,-1.2462400648,0.0397378129,-0.916726676\H,0,-1.9728718468,-0.63
 88190976,-0.7201921584\C,0,0.1298864012,-0.4383992672,-0.8153072598\H,
 0,0.7088990094,0.4259465249,-0.4701253319\C,0,0.8024908086,-0.83585676
 33,-2.1371820146\C,0,0.25006133,-1.6045983536,0.2135866752\H,0,-0.6827
 658301,-1.7073219717,0.7660857396\H,0,0.4503189107,-2.5445793115,-0.30
 90721816\O,0,1.9000079421,-1.4095361349,-2.1011981648\C,0,1.3638438773
 ,-1.3497424929,1.215521923\N,0,2.5953762621,-1.3381324643,0.7039803782
 \H,0,3.3863296174,-1.1390991943,1.3026281638\H,0,2.7135179125,-1.45136
 60202,-0.3070402166\O,0,1.1358250994,-1.1365987258,2.428739443\N,0,0.1
 640102787,-0.495046074,-3.2614883388\H,0,-0.7306047507,-0.0185879414,-
 3.2129944314\C,0,0.7220914907,-0.7176777021,-4.5906484635\H,0,1.782430
 0713,-0.4455468857,-4.5805567668\C,0,-0.0332749758,0.2162139434,-5.527
 3835264\C,0,0.5894499468,-2.2014772954,-5.016355306\H,0,-0.4782245196,
 -2.4509420661,-5.0789428337\H,0,1.0126917825,-2.7866319526,-4.19150492
 03\O,0,-1.1229084577,0.6886532241,-5.27486982\C,0,1.3051355252,-2.5584
 403766,-6.3223184387\H,0,0.863024865,-2.0216915141,-7.1668718904\H,0,2
 .356538321,-2.2451790387,-6.2677688676\C,0,1.2423068158,-4.0666725775,
 -6.6116005558\H,0,1.711913324,-4.6307212419,-5.7966851774\H,0,0.195893
 9601,-4.3886409056,-6.649515817\N,0,1.9084849917,-4.4615163628,-7.8536
 039753\H,0,2.9153700631,-4.3331798904,-7.8169624852\N,0,0.0615244088,-
 4.0484144468,-9.2281919032\H,0,-0.2546507502,-3.8611229111,-10.1723750
 474\H,0,-0.3336644503,-4.9152189559,-8.876866547\N,0,2.3030658514,-3.4
 705089281,-9.9062835674\H,0,1.8741120085,-3.276463274,-10.8134215703\C
 ,0,1.4544609066,-3.9605622091,-9.0795799702\O,0,0.6355536194,0.4330530
 926,-6.6686673152\H,0,0.0764210969,0.9970373226,-7.2375338108\\Version
 =ES64L-G16RevC.01\HF=-1866.710294\RMSD=7.592e-09\Dipole=-1.8362915,-0.
 2294983,5.1557109\Quadrupole=-22.4232767,-9.4751359,31.8984126,-6.5768
 644,2.9469712,11.4724453\PG=C01 [X(C25H41N8O6)]\\@
 The archive entry for this job was punched.


 EXPERIENCE IS A WONDERFUL THING.  IT ENABLES
 YOU TO RECOGNIZE A MISTAKE WHEN YOU MAKE IT AGAIN.
           - BACK OF A SUGAR PACKET
 Job cpu time:       0 days  0 hours  2 minutes 45.7 seconds.
 Elapsed time:       0 days  0 hours  0 minutes 43.7 seconds.
 File lengths (MBytes):  RWF=    344 Int=      0 D2E=      0 Chk=     48 Scr=     16
 Normal termination of Gaussian 16 at Fri Jun 17 23:19:48 2022.
