 Entering Gaussian System, Link 0=/opt/software/Gaussian/g16-AVX2-C.01/g16/g16
 Input=charge-conf-684.com
 Output=charge-conf-684.log
 Initial command:
 /opt/software/Gaussian/g16-AVX2-C.01/g16/l1.exe "/mnt/gs18/scratch/users/kengmith/Gau-15083.inp" -scrdir="/mnt/gs18/scratch/users/kengmith/"
 Entering Link 1 = /opt/software/Gaussian/g16-AVX2-C.01/g16/l1.exe PID=     15093.
  
 Copyright (c) 1988-2019, Gaussian, Inc.  All Rights Reserved.
  
 This is part of the Gaussian(R) 16 program.  It is based on
 the Gaussian(R) 09 system (copyright 2009, Gaussian, Inc.),
 the Gaussian(R) 03 system (copyright 2003, Gaussian, Inc.),
 the Gaussian(R) 98 system (copyright 1998, Gaussian, Inc.),
 the Gaussian(R) 94 system (copyright 1995, Gaussian, Inc.),
 the Gaussian 92(TM) system (copyright 1992, Gaussian, Inc.),
 the Gaussian 90(TM) system (copyright 1990, Gaussian, Inc.),
 the Gaussian 88(TM) system (copyright 1988, Gaussian, Inc.),
 the Gaussian 86(TM) system (copyright 1986, Carnegie Mellon
 University), and the Gaussian 82(TM) system (copyright 1983,
 Carnegie Mellon University). Gaussian is a federally registered
 trademark of Gaussian, Inc.
  
 This software contains proprietary and confidential information,
 including trade secrets, belonging to Gaussian, Inc.
  
 This software is provided under written license and may be
 used, copied, transmitted, or stored only in accord with that
 written license.
  
 The following legend is applicable only to US Government
 contracts under FAR:
  
                    RESTRICTED RIGHTS LEGEND
  
 Use, reproduction and disclosure by the US Government is
 subject to restrictions as set forth in subparagraphs (a)
 and (c) of the Commercial Computer Software - Restricted
 Rights clause in FAR 52.227-19.
  
 Gaussian, Inc.
 340 Quinnipiac St., Bldg. 40, Wallingford CT 06492
  
  
 ---------------------------------------------------------------
 Warning -- This program may not be used in any manner that
 competes with the business of Gaussian, Inc. or will provide
 assistance to any competitor of Gaussian, Inc.  The licensee
 of this program is prohibited from giving any competitor of
 Gaussian, Inc. access to this program.  By using this program,
 the user acknowledges that Gaussian, Inc. is engaged in the
 business of creating and licensing software in the field of
 computational chemistry and represents and warrants to the
 licensee that it is not a competitor of Gaussian, Inc. and that
 it will not use this program in any manner prohibited above.
 ---------------------------------------------------------------
  

 Cite this work as:
 Gaussian 16, Revision C.01,
 M. J. Frisch, G. W. Trucks, H. B. Schlegel, G. E. Scuseria, 
 M. A. Robb, J. R. Cheeseman, G. Scalmani, V. Barone, 
 G. A. Petersson, H. Nakatsuji, X. Li, M. Caricato, A. V. Marenich, 
 J. Bloino, B. G. Janesko, R. Gomperts, B. Mennucci, H. P. Hratchian, 
 J. V. Ortiz, A. F. Izmaylov, J. L. Sonnenberg, D. Williams-Young, 
 F. Ding, F. Lipparini, F. Egidi, J. Goings, B. Peng, A. Petrone, 
 T. Henderson, D. Ranasinghe, V. G. Zakrzewski, J. Gao, N. Rega, 
 G. Zheng, W. Liang, M. Hada, M. Ehara, K. Toyota, R. Fukuda, 
 J. Hasegawa, M. Ishida, T. Nakajima, Y. Honda, O. Kitao, H. Nakai, 
 T. Vreven, K. Throssell, J. A. Montgomery, Jr., J. E. Peralta, 
 F. Ogliaro, M. J. Bearpark, J. J. Heyd, E. N. Brothers, K. N. Kudin, 
 V. N. Staroverov, T. A. Keith, R. Kobayashi, J. Normand, 
 K. Raghavachari, A. P. Rendell, J. C. Burant, S. S. Iyengar, 
 J. Tomasi, M. Cossi, J. M. Millam, M. Klene, C. Adamo, R. Cammi, 
 J. W. Ochterski, R. L. Martin, K. Morokuma, O. Farkas, 
 J. B. Foresman, and D. J. Fox, Gaussian, Inc., Wallingford CT, 2019.
 
 ******************************************
 Gaussian 16:  ES64L-G16RevC.01  3-Jul-2019
                11-Jul-2022 
 ******************************************
 %mem=8gb
 %nproc=4
 Will use up to    4 processors via shared memory.
 %chk=conf-684.chk
 -------------------------------------------------------------------
 # B3LYP/6-31G* guess=read geom=check nosymm integral(ultrafinegrid)
 -------------------------------------------------------------------
 1/29=2,38=1,172=1/1;
 2/12=2,15=1,40=1/2;
 3/5=1,6=6,7=1,11=2,14=-4,25=1,30=1,74=-5,75=-5,116=-2/1,2,3;
 4/5=1/1;
 5/5=2,38=6/2;
 6/7=2,8=2,9=2,10=2,28=1/1;
 99/5=1,9=1/99;
 ------------------------------------------------------
 Candidate Structure: Conf:684 Charge calc in gas phase
 ------------------------------------------------------
 Structure from the checkpoint file:  "conf-684.chk"
 Charge =  1 Multiplicity = 1
 Redundant internal coordinates found in file.  (old form).
 N,0,-10.1470848053,-3.6475124806,-10.2987128645
 H,0,-9.7657299548,-2.8097947569,-10.8090185843
 H,0,-11.1509122565,-3.7667554179,-10.4591981809
 H,0,-9.6232860066,-4.4585923657,-10.6575024372
 C,0,-9.7817043738,-3.5088078258,-8.8301914464
 H,0,-10.2546265265,-2.5892570896,-8.478756044
 C,0,-8.2479268745,-3.3671809407,-8.932936756
 C,0,-10.2398894314,-4.7291711156,-8.0430913467
 H,0,-9.9957083221,-4.5867283812,-6.9863477247
 H,0,-9.7278758833,-5.6315825048,-8.3920947293
 H,0,-11.3234115689,-4.8735046842,-8.1158108268
 O,0,-7.6481551315,-4.1661717955,-9.6530857005
 N,0,-7.708266064,-2.3045606269,-8.3181816009
 H,0,-8.2843890606,-1.7077490771,-7.7193790402
 C,0,-6.4094866321,-1.7702922952,-8.7341991382
 H,0,-5.7578843718,-2.6186620858,-8.9584552874
 C,0,-5.9028251793,-0.9483483811,-7.5259290884
 C,0,-6.5427823938,-0.8330168521,-9.9631742339
 H,0,-5.5346638285,-0.5651869466,-10.2972633398
 H,0,-7.0200872917,0.0869499758,-9.6114138874
 O,0,-6.2175495836,0.2326488005,-7.4114207755
 C,0,-7.3773884695,-1.3678308878,-11.1181534466
 N,0,-6.7279461653,-1.5956014421,-12.275885728
 H,0,-7.253130362,-1.8950795353,-13.0870505919
 H,0,-5.7394027698,-1.4232392608,-12.3869597884
 O,0,-8.6038111216,-1.5459582086,-11.014550777
 N,0,-5.2552031658,-1.6590342947,-6.575306478
 H,0,-4.8267344123,-2.5591781007,-6.7724679243
 C,0,-4.8826568675,-1.074144074,-5.2950560169
 H,0,-4.9519554503,0.0102332934,-5.406995335
 C,0,-3.4387111393,-1.5289174811,-5.0070837097
 C,0,-5.8070806323,-1.5427106809,-4.1304788183
 H,0,-5.4177137775,-2.4848577789,-3.7273294647
 H,0,-5.7486091255,-0.8026606353,-3.3263850503
 O,0,-3.0374599627,-2.6011687235,-5.4654640783
 C,0,-7.2783868946,-1.8041513187,-4.5055044201
 H,0,-7.8135939761,-2.0795973569,-3.5862634963
 H,0,-7.3601556546,-2.6524513922,-5.1881123121
 C,0,-8.0553085293,-0.6641022259,-5.1286779364
 O,0,-8.8201894349,-0.7792196218,-6.0750604848
 O,0,-7.8600042488,0.5025825952,-4.5011759991
 N,0,-2.7191010178,-0.720553971,-4.2108425394
 H,0,-3.0782066574,0.1671267022,-3.8693041419
 C,0,-1.3575381585,-1.0150806697,-3.7720841963
 H,0,-1.3036180997,-2.0781118181,-3.519399368
 C,0,-1.1447076389,-0.1434700805,-2.5199143363
 C,0,-0.3409124853,-0.6881261497,-4.8980854744
 H,0,-0.378156477,0.3952205936,-5.0732662851
 H,0,-0.7218919079,-1.1739098144,-5.8049667247
 O,0,-1.7955869483,0.8945597187,-2.3751723501
 C,0,1.1207777175,-1.1310561039,-4.6814310736
 H,0,1.5059635075,-0.672391661,-3.761469909
 C,0,1.2594391951,-2.6561218648,-4.5464865212
 H,0,0.8664057783,-3.1660802167,-5.4352073449
 H,0,0.7252735261,-3.0568171187,-3.6764164225
 H,0,2.3116431156,-2.9377111755,-4.4322881976
 C,0,1.9830214342,-0.6171219458,-5.8455107132
 H,0,1.6537240006,-1.0480504937,-6.7999890218
 H,0,1.9280754853,0.4743110965,-5.9342946148
 H,0,3.034457693,-0.8899887483,-5.7027752847
 N,0,-0.2311962939,-0.5921703704,-1.6306258938
 H,0,0.3859486601,-1.3592889687,-1.8835973856
 C,0,0.2774761161,0.2146637355,-0.5266595428
 H,0,-0.0239791376,1.2503518844,-0.7060713797
 C,0,1.8142349422,0.0896537069,-0.5726869589
 C,0,-0.2471809242,-0.2657591824,0.8475078199
 H,0,0.074058302,-1.3080325317,0.9788042765
 H,0,0.2595492606,0.3157261246,1.6308464597
 O,0,2.3508988407,-0.8619144925,-1.1466846896
 C,0,-1.7705862596,-0.1672398098,1.0569788766
 H,0,-2.2580518511,-0.7060636476,0.2323510685
 C,0,-2.1559302814,-0.8666824048,2.3699706097
 H,0,-1.6914248437,-0.3702444734,3.2319793683
 H,0,-1.8367363497,-1.9157797198,2.3775654851
 H,0,-3.2410899698,-0.8442639548,2.5224057625
 C,0,-2.2733391439,1.2841331808,1.0403500845
 H,0,-1.766465719,1.884981387,1.807545114
 H,0,-2.1181049348,1.7552802933,0.0653330978
 H,0,-3.3481284081,1.3203863712,1.2538289929
 N,0,2.5005229573,1.057054703,0.0690477111
 H,0,2.0316703418,1.8026929401,0.5741725065
 C,0,3.9509000277,1.041541542,0.215423408
 H,0,4.258474081,0.0070007104,0.3975967541
 C,0,4.2528441919,1.9030036277,1.4512063254
 C,0,4.6595408038,1.5446430585,-1.0855644582
 H,0,4.1799998803,0.960495113,-1.8814939522
 O,0,3.4257533821,2.7085195448,1.8894825968
 C,0,6.1694873759,1.2316921117,-1.1499252617
 H,0,6.5268550081,1.6057018416,-2.1182524495
 H,0,6.7158041883,1.8136122313,-0.3960363258
 C,0,4.3905719134,3.0331470589,-1.346961098
 H,0,4.8879173514,3.671086833,-0.6064430086
 H,0,3.3201209953,3.262116916,-1.3207955891
 H,0,4.7694235922,3.3186303741,-2.3342964604
 C,0,6.5406721164,-0.2529389929,-1.0353311923
 H,0,7.6056733077,-0.3986047863,-1.2428441526
 H,0,5.9692792189,-0.8608648275,-1.7465426051
 H,0,6.3552687689,-0.6628051978,-0.0347534717
 N,0,5.4715792625,1.7393609484,2.0118387111
 H,0,6.1649577967,1.0894097922,1.6502875932
 C,0,5.9607219015,2.5887398122,3.078060922
 H,0,5.616083735,3.6106074741,2.8845721699
 C,0,7.5076466911,2.5236874917,3.0080550963
 C,0,5.3927704343,2.1109479396,4.4509338804
 H,0,5.6156505113,1.0506429775,4.5859268741
 H,0,4.3038295154,2.2350497146,4.4043619996
 O,0,8.0575219363,1.5481663717,2.4972510621
 C,0,5.9452527366,2.8426400094,5.6600183708
 N,0,5.8136604601,4.1938129103,5.7143158522
 H,0,5.3936442074,4.6691230877,4.9246470039
 H,0,6.6064943481,4.6887171334,6.1311506322
 O,0,6.496809806,2.2092211298,6.5764129424
 N,0,8.1312176001,3.5951904911,3.5294105839
 H,0,7.5960208832,4.2945188795,4.0333679541
 C,0,9.5563643257,3.6975951871,3.8382038963
 H,0,9.9708711949,2.6851739238,3.8496993487
 C,0,9.6067429176,4.3053958445,5.264690705
 C,0,10.3087450154,4.5297332426,2.754572943
 H,0,9.9773714239,4.0887485975,1.8037842185
 O,0,8.5996009449,4.9104204052,5.7070739279
 C,0,9.8986414336,6.0093315997,2.7630033885
 H,0,10.2196128473,6.5082731047,3.6843159234
 H,0,10.3668631939,6.5339027036,1.9230428955
 H,0,8.8133899183,6.1348969059,2.6687792564
 C,0,11.834411161,4.3668650299,2.8358012486
 H,0,12.2691479366,4.8033853406,3.7416212624
 H,0,12.3013360383,4.8594675884,1.9752103618
 H,0,12.1230288689,3.3088622841,2.8025725852
 N,0,10.7357293946,4.1268745924,5.9391990819
 H,0,11.6279391046,3.8599232897,5.4787211638
 C,0,11.1124313756,4.8208706349,7.1700880325
 H,0,10.5644575636,5.7664192455,7.2330142317
 C,0,12.6720107089,5.0990973229,7.0552281274
 C,0,10.8459635468,3.9789400453,8.4248595767
 H,0,11.1121356126,4.6002954227,9.2867929838
 H,0,11.5326357901,3.1205623541,8.432638311
 O,0,13.1535038366,5.7318615367,8.0046667367
 C,0,9.4088701578,3.4580050993,8.5197519527
 H,0,9.2195342071,2.7972172284,7.6632403933
 H,0,8.7162458786,4.3045144394,8.4082710505
 C,0,9.1194449706,2.6976398448,9.822491176
 H,0,9.9467034036,2.0147818127,10.0526386772
 H,0,9.0551955531,3.3926798943,10.6713153392
 C,0,7.8557400468,1.8439223426,9.757364417
 H,0,7.9705781217,0.9995050736,9.0732410868
 H,0,7.5534336139,1.4683353759,10.7385073823
 N,0,6.6872217982,2.6454297519,9.2029040717
 H,0,5.7907293617,2.2250233656,9.4619319276
 H,0,6.7073516366,2.6662887687,8.131812931
 H,0,6.6997280517,3.605544684,9.5593630293
 O,0,13.2055112685,4.5911069538,6.0258116791
 H,0,-8.3706730788,1.182741149,-4.9815167124
 Recover connectivity data from disk.
                           ----------------------------
                           !    Current Parameters    !
                           ! (Angstroms and Degrees)  !
 --------------------------                            --------------------------
 ! Name  Definition              Value                                          !
 --------------------------------------------------------------------------------
 ! R1    R(1,2)                  1.0524                                         !
 ! R2    R(1,3)                  1.0235                                         !
 ! R3    R(1,4)                  1.03                                           !
 ! R4    R(1,5)                  1.5196                                         !
 ! R5    R(5,6)                  1.0921                                         !
 ! R6    R(5,7)                  1.5437                                         !
 ! R7    R(5,8)                  1.5227                                         !
 ! R8    R(7,12)                 1.2316                                         !
 ! R9    R(7,13)                 1.341                                          !
 ! R10   R(8,9)                  1.0939                                         !
 ! R11   R(8,10)                 1.0947                                         !
 ! R12   R(8,11)                 1.0955                                         !
 ! R13   R(13,14)                1.0231                                         !
 ! R14   R(13,15)                1.4647                                         !
 ! R15   R(15,16)                1.093                                          !
 ! R16   R(15,17)                1.5467                                         !
 ! R17   R(15,18)                1.5513                                         !
 ! R18   R(17,21)                1.2276                                         !
 ! R19   R(17,27)                1.3521                                         !
 ! R20   R(18,19)                1.0953                                         !
 ! R21   R(18,20)                1.0945                                         !
 ! R22   R(18,22)                1.522                                          !
 ! R23   R(22,23)                1.3468                                         !
 ! R24   R(22,26)                1.2436                                         !
 ! R25   R(23,24)                1.0117                                         !
 ! R26   R(23,25)                1.0096                                         !
 ! R27   R(27,28)                1.0162                                         !
 ! R28   R(27,29)                1.456                                          !
 ! R29   R(29,30)                1.0923                                         !
 ! R30   R(29,31)                1.541                                          !
 ! R31   R(29,32)                1.559                                          !
 ! R32   R(31,35)                1.2332                                         !
 ! R33   R(31,42)                1.3436                                         !
 ! R34   R(32,33)                1.0963                                         !
 ! R35   R(32,34)                1.0944                                         !
 ! R36   R(32,36)                1.5407                                         !
 ! R37   R(36,37)                1.0988                                         !
 ! R38   R(36,38)                1.0919                                         !
 ! R39   R(36,39)                1.5138                                         !
 ! R40   R(39,40)                1.2223                                         !
 ! R41   R(39,41)                1.3391                                         !
 ! R42   R(41,152)               0.9768                                         !
 ! R43   R(42,43)                1.0167                                         !
 ! R44   R(42,44)                1.4605                                         !
 ! R45   R(44,45)                1.094                                          !
 ! R46   R(44,46)                1.5404                                         !
 ! R47   R(44,47)                1.5519                                         !
 ! R48   R(46,50)                1.2337                                         !
 ! R49   R(46,61)                1.3515                                         !
 ! R50   R(47,48)                1.0981                                         !
 ! R51   R(47,49)                1.0971                                         !
 ! R52   R(47,51)                1.5426                                         !
 ! R53   R(51,52)                1.0978                                         !
 ! R54   R(51,53)                1.5373                                         !
 ! R55   R(51,57)                1.5371                                         !
 ! R56   R(53,54)                1.0974                                         !
 ! R57   R(53,55)                1.0968                                         !
 ! R58   R(53,56)                1.0952                                         !
 ! R59   R(57,58)                1.0978                                         !
 ! R60   R(57,59)                1.0964                                         !
 ! R61   R(57,60)                1.0956                                         !
 ! R62   R(61,62)                1.0165                                         !
 ! R63   R(61,63)                1.4589                                         !
 ! R64   R(63,64)                1.0935                                         !
 ! R65   R(63,65)                1.5425                                         !
 ! R66   R(63,66)                1.5474                                         !
 ! R67   R(65,69)                1.2341                                         !
 ! R68   R(65,80)                1.3486                                         !
 ! R69   R(66,67)                1.0985                                         !
 ! R70   R(66,68)                1.0993                                         !
 ! R71   R(66,70)                1.5409                                         !
 ! R72   R(70,71)                1.0991                                         !
 ! R73   R(70,72)                1.5368                                         !
 ! R74   R(70,76)                1.5361                                         !
 ! R75   R(72,73)                1.0979                                         !
 ! R76   R(72,74)                1.0966                                         !
 ! R77   R(72,75)                1.096                                          !
 ! R78   R(76,77)                1.0984                                         !
 ! R79   R(76,78)                1.094                                          !
 ! R80   R(76,79)                1.0964                                         !
 ! R81   R(80,81)                1.0154                                         !
 ! R82   R(80,82)                1.4578                                         !
 ! R83   R(82,83)                1.0946                                         !
 ! R84   R(82,84)                1.5364                                         !
 ! R85   R(82,85)                1.5646                                         !
 ! R86   R(84,87)                1.2349                                         !
 ! R87   R(84,99)                1.3514                                         !
 ! R88   R(85,86)                1.0976                                         !
 ! R89   R(85,88)                1.5434                                         !
 ! R90   R(85,91)                1.535                                          !
 ! R91   R(88,89)                1.0978                                         !
 ! R92   R(88,90)                1.0979                                         !
 ! R93   R(88,95)                1.5346                                         !
 ! R94   R(91,92)                1.0967                                         !
 ! R95   R(91,93)                1.095                                          !
 ! R96   R(91,94)                1.0954                                         !
 ! R97   R(95,96)                1.0948                                         !
 ! R98   R(95,97)                1.0963                                         !
 ! R99   R(95,98)                1.0971                                         !
 ! R100  R(99,100)               1.0168                                         !
 ! R101  R(99,101)               1.4483                                         !
 ! R102  R(101,102)              1.0956                                         !
 ! R103  R(101,103)              1.5499                                         !
 ! R104  R(101,104)              1.5607                                         !
 ! R105  R(103,107)              1.2308                                         !
 ! R106  R(103,113)              1.3449                                         !
 ! R107  R(104,105)              1.0919                                         !
 ! R108  R(104,106)              1.097                                          !
 ! R109  R(104,108)              1.5174                                         !
 ! R110  R(108,109)              1.3587                                         !
 ! R111  R(108,112)              1.2431                                         !
 ! R112  R(109,110)              1.0129                                         !
 ! R113  R(109,111)              1.0234                                         !
 ! R114  R(113,114)              1.0146                                         !
 ! R115  R(113,115)              1.4618                                         !
 ! R116  R(115,116)              1.094                                          !
 ! R117  R(115,117)              1.5514                                         !
 ! R118  R(115,118)              1.5597                                         !
 ! R119  R(117,120)              1.2554                                         !
 ! R120  R(117,129)              1.3272                                         !
 ! R121  R(118,119)              1.0992                                         !
 ! R122  R(118,121)              1.5354                                         !
 ! R123  R(118,125)              1.5365                                         !
 ! R124  R(121,122)              1.0958                                         !
 ! R125  R(121,123)              1.0954                                         !
 ! R126  R(121,124)              1.0965                                         !
 ! R127  R(125,126)              1.0955                                         !
 ! R128  R(125,127)              1.096                                          !
 ! R129  R(125,128)              1.0972                                         !
 ! R130  R(129,130)              1.0389                                         !
 ! R131  R(129,131)              1.4624                                         !
 ! R132  R(131,132)              1.0947                                         !
 ! R133  R(131,133)              1.5884                                         !
 ! R134  R(131,134)              1.5344                                         !
 ! R135  R(133,137)              1.2384                                         !
 ! R136  R(133,151)              1.2658                                         !
 ! R137  R(134,135)              1.0954                                         !
 ! R138  R(134,136)              1.0993                                         !
 ! R139  R(134,138)              1.5315                                         !
 ! R140  R(138,139)              1.0982                                         !
 ! R141  R(138,140)              1.0994                                         !
 ! R142  R(138,141)              1.5359                                         !
 ! R143  R(141,142)              1.0971                                         !
 ! R144  R(141,143)              1.099                                          !
 ! R145  R(141,144)              1.5264                                         !
 ! R146  R(144,145)              1.0928                                         !
 ! R147  R(144,146)              1.0932                                         !
 ! R148  R(144,147)              1.5216                                         !
 ! R149  R(147,148)              1.0235                                         !
 ! R150  R(147,149)              1.0715                                         !
 ! R151  R(147,150)              1.0242                                         !
 ! A1    A(2,1,3)              111.844                                          !
 ! A2    A(2,1,4)              105.8797                                         !
 ! A3    A(2,1,5)              107.9866                                         !
 ! A4    A(3,1,4)              110.6331                                         !
 ! A5    A(3,1,5)              113.4507                                         !
 ! A6    A(4,1,5)              106.6316                                         !
 ! A7    A(1,5,6)              106.4812                                         !
 ! A8    A(1,5,7)              100.5414                                         !
 ! A9    A(1,5,8)              110.7329                                         !
 ! A10   A(6,5,7)              111.9878                                         !
 ! A11   A(6,5,8)              112.2196                                         !
 ! A12   A(7,5,8)              114.0092                                         !
 ! A13   A(5,7,12)             117.5979                                         !
 ! A14   A(5,7,13)             116.2329                                         !
 ! A15   A(12,7,13)            125.8851                                         !
 ! A16   A(5,8,9)              109.1362                                         !
 ! A17   A(5,8,10)             110.8016                                         !
 ! A18   A(5,8,11)             111.6465                                         !
 ! A19   A(9,8,10)             108.1152                                         !
 ! A20   A(9,8,11)             107.5813                                         !
 ! A21   A(10,8,11)            109.4413                                         !
 ! A22   A(7,13,14)            120.2615                                         !
 ! A23   A(7,13,15)            121.0425                                         !
 ! A24   A(14,13,15)           116.9234                                         !
 ! A25   A(13,15,16)           107.6851                                         !
 ! A26   A(13,15,17)           105.2144                                         !
 ! A27   A(13,15,18)           111.6663                                         !
 ! A28   A(16,15,17)           112.1779                                         !
 ! A29   A(16,15,18)           110.9554                                         !
 ! A30   A(17,15,18)           109.023                                          !
 ! A31   A(15,17,21)           120.01                                           !
 ! A32   A(15,17,27)           115.2658                                         !
 ! A33   A(21,17,27)           124.2562                                         !
 ! A34   A(15,18,19)           108.077                                          !
 ! A35   A(15,18,20)           106.8998                                         !
 ! A36   A(15,18,22)           115.8476                                         !
 ! A37   A(19,18,20)           107.0909                                         !
 ! A38   A(19,18,22)           111.0492                                         !
 ! A39   A(20,18,22)           107.4639                                         !
 ! A40   A(18,22,23)           116.5707                                         !
 ! A41   A(18,22,26)           121.8626                                         !
 ! A42   A(23,22,26)           121.5281                                         !
 ! A43   A(22,23,24)           119.2723                                         !
 ! A44   A(22,23,25)           122.5369                                         !
 ! A45   A(24,23,25)           118.0749                                         !
 ! A46   A(17,27,28)           122.0811                                         !
 ! A47   A(17,27,29)           121.9795                                         !
 ! A48   A(28,27,29)           114.7422                                         !
 ! A49   A(27,29,30)           107.0043                                         !
 ! A50   A(27,29,31)           106.5898                                         !
 ! A51   A(27,29,32)           112.6058                                         !
 ! A52   A(30,29,31)           111.8116                                         !
 ! A53   A(30,29,32)           109.7129                                         !
 ! A54   A(31,29,32)           109.1065                                         !
 ! A55   A(29,31,35)           119.4725                                         !
 ! A56   A(29,31,42)           115.7875                                         !
 ! A57   A(35,31,42)           124.6885                                         !
 ! A58   A(29,32,33)           108.8092                                         !
 ! A59   A(29,32,34)           108.297                                          !
 ! A60   A(29,32,36)           115.8131                                         !
 ! A61   A(33,32,34)           106.9768                                         !
 ! A62   A(33,32,36)           106.4311                                         !
 ! A63   A(34,32,36)           110.1586                                         !
 ! A64   A(32,36,37)           107.7012                                         !
 ! A65   A(32,36,38)           110.8251                                         !
 ! A66   A(32,36,39)           117.5495                                         !
 ! A67   A(37,36,38)           106.9641                                         !
 ! A68   A(37,36,39)           106.4509                                         !
 ! A69   A(38,36,39)           106.8158                                         !
 ! A70   A(36,39,40)           124.6788                                         !
 ! A71   A(36,39,41)           112.8543                                         !
 ! A72   A(40,39,41)           122.4237                                         !
 ! A73   A(39,41,152)          107.457                                          !
 ! A74   A(31,42,43)           122.3587                                         !
 ! A75   A(31,42,44)           123.7793                                         !
 ! A76   A(43,42,44)           113.8565                                         !
 ! A77   A(42,44,45)           108.1371                                         !
 ! A78   A(42,44,46)           105.0045                                         !
 ! A79   A(42,44,47)           110.5028                                         !
 ! A80   A(45,44,46)           110.8088                                         !
 ! A81   A(45,44,47)           109.8785                                         !
 ! A82   A(46,44,47)           112.3386                                         !
 ! A83   A(44,46,50)           119.9036                                         !
 ! A84   A(44,46,61)           116.1287                                         !
 ! A85   A(50,46,61)           123.9672                                         !
 ! A86   A(44,47,48)           107.5417                                         !
 ! A87   A(44,47,49)           106.2007                                         !
 ! A88   A(44,47,51)           117.2795                                         !
 ! A89   A(48,47,49)           107.0503                                         !
 ! A90   A(48,47,51)           109.7447                                         !
 ! A91   A(49,47,51)           108.5426                                         !
 ! A92   A(47,51,52)           109.2814                                         !
 ! A93   A(47,51,53)           112.4974                                         !
 ! A94   A(47,51,57)           109.2179                                         !
 ! A95   A(52,51,53)           108.0161                                         !
 ! A96   A(52,51,57)           107.3456                                         !
 ! A97   A(53,51,57)           110.3391                                         !
 ! A98   A(51,53,54)           110.9527                                         !
 ! A99   A(51,53,55)           112.8389                                         !
 ! A100  A(51,53,56)           110.541                                          !
 ! A101  A(54,53,55)           107.3517                                         !
 ! A102  A(54,53,56)           108.0016                                         !
 ! A103  A(55,53,56)           106.9335                                         !
 ! A104  A(51,57,58)           111.0351                                         !
 ! A105  A(51,57,59)           111.472                                          !
 ! A106  A(51,57,60)           110.8795                                         !
 ! A107  A(58,57,59)           107.7773                                         !
 ! A108  A(58,57,60)           107.6605                                         !
 ! A109  A(59,57,60)           107.8525                                         !
 ! A110  A(46,61,62)           119.8109                                         !
 ! A111  A(46,61,63)           123.3637                                         !
 ! A112  A(62,61,63)           113.2022                                         !
 ! A113  A(61,63,64)           107.6696                                         !
 ! A114  A(61,63,65)           106.2579                                         !
 ! A115  A(61,63,66)           112.462                                          !
 ! A116  A(64,63,65)           110.2743                                         !
 ! A117  A(64,63,66)           110.2609                                         !
 ! A118  A(65,63,66)           109.8239                                         !
 ! A119  A(63,65,69)           120.638                                          !
 ! A120  A(63,65,80)           115.7636                                         !
 ! A121  A(69,65,80)           123.5837                                         !
 ! A122  A(63,66,67)           107.5516                                         !
 ! A123  A(63,66,68)           108.1969                                         !
 ! A124  A(63,66,70)           115.8544                                         !
 ! A125  A(67,66,68)           106.3737                                         !
 ! A126  A(67,66,70)           109.4827                                         !
 ! A127  A(68,66,70)           108.9673                                         !
 ! A128  A(66,70,71)           107.7672                                         !
 ! A129  A(66,70,72)           109.5695                                         !
 ! A130  A(66,70,76)           112.49                                           !
 ! A131  A(71,70,72)           107.86                                           !
 ! A132  A(71,70,76)           108.0552                                         !
 ! A133  A(72,70,76)           110.9296                                         !
 ! A134  A(70,72,73)           111.0352                                         !
 ! A135  A(70,72,74)           111.6139                                         !
 ! A136  A(70,72,75)           110.9637                                         !
 ! A137  A(73,72,74)           107.6984                                         !
 ! A138  A(73,72,75)           107.4848                                         !
 ! A139  A(74,72,75)           107.8658                                         !
 ! A140  A(70,76,77)           110.993                                          !
 ! A141  A(70,76,78)           111.7242                                         !
 ! A142  A(70,76,79)           110.4864                                         !
 ! A143  A(77,76,78)           108.7504                                         !
 ! A144  A(77,76,79)           107.3545                                         !
 ! A145  A(78,76,79)           107.362                                          !
 ! A146  A(65,80,81)           121.9065                                         !
 ! A147  A(65,80,82)           123.1232                                         !
 ! A148  A(81,80,82)           114.662                                          !
 ! A149  A(80,82,83)           107.8385                                         !
 ! A150  A(80,82,84)           105.6834                                         !
 ! A151  A(80,82,85)           111.3279                                         !
 ! A152  A(83,82,84)           109.9297                                         !
 ! A153  A(83,82,85)           108.3638                                         !
 ! A154  A(84,82,85)           113.5487                                         !
 ! A155  A(82,84,87)           121.3042                                         !
 ! A156  A(82,84,99)           116.2962                                         !
 ! A157  A(87,84,99)           122.3941                                         !
 ! A158  A(82,85,86)           103.5311                                         !
 ! A159  A(82,85,88)           114.3679                                         !
 ! A160  A(82,85,91)           111.9657                                         !
 ! A161  A(86,85,88)           106.8151                                         !
 ! A162  A(86,85,91)           108.4236                                         !
 ! A163  A(88,85,91)           111.1584                                         !
 ! A164  A(85,88,89)           106.6288                                         !
 ! A165  A(85,88,90)           110.5305                                         !
 ! A166  A(85,88,95)           115.4477                                         !
 ! A167  A(89,88,90)           105.2543                                         !
 ! A168  A(89,88,95)           108.4641                                         !
 ! A169  A(90,88,95)           109.9455                                         !
 ! A170  A(85,91,92)           111.6925                                         !
 ! A171  A(85,91,93)           111.7155                                         !
 ! A172  A(85,91,94)           110.2193                                         !
 ! A173  A(92,91,93)           107.7925                                         !
 ! A174  A(92,91,94)           107.4684                                         !
 ! A175  A(93,91,94)           107.7675                                         !
 ! A176  A(88,95,96)           110.4793                                         !
 ! A177  A(88,95,97)           111.2202                                         !
 ! A178  A(88,95,98)           112.8716                                         !
 ! A179  A(96,95,97)           108.076                                          !
 ! A180  A(96,95,98)           106.713                                          !
 ! A181  A(97,95,98)           107.2432                                         !
 ! A182  A(84,99,100)          123.0137                                         !
 ! A183  A(84,99,101)          122.613                                          !
 ! A184  A(100,99,101)         113.9747                                         !
 ! A185  A(99,101,102)         108.1035                                         !
 ! A186  A(99,101,103)         106.2141                                         !
 ! A187  A(99,101,104)         110.1915                                         !
 ! A188  A(102,101,103)        110.1895                                         !
 ! A189  A(102,101,104)        109.0512                                         !
 ! A190  A(103,101,104)        112.9614                                         !
 ! A191  A(101,103,107)        119.8622                                         !
 ! A192  A(101,103,113)        114.3193                                         !
 ! A193  A(107,103,113)        125.8168                                         !
 ! A194  A(101,104,105)        109.3766                                         !
 ! A195  A(101,104,106)        106.8144                                         !
 ! A196  A(101,104,108)        114.8859                                         !
 ! A197  A(105,104,106)        108.5266                                         !
 ! A198  A(105,104,108)        107.1833                                         !
 ! A199  A(106,104,108)        109.92                                           !
 ! A200  A(104,108,109)        118.4328                                         !
 ! A201  A(104,108,112)        120.2157                                         !
 ! A202  A(109,108,112)        121.3504                                         !
 ! A203  A(108,109,110)        118.4045                                         !
 ! A204  A(108,109,111)        114.9727                                         !
 ! A205  A(110,109,111)        114.3232                                         !
 ! A206  A(103,113,114)        119.8087                                         !
 ! A207  A(103,113,115)        126.1376                                         !
 ! A208  A(114,113,115)        111.1645                                         !
 ! A209  A(113,115,116)        107.8644                                         !
 ! A210  A(113,115,117)        104.6751                                         !
 ! A211  A(113,115,118)        111.155                                          !
 ! A212  A(116,115,117)        109.9123                                         !
 ! A213  A(116,115,118)        108.5568                                         !
 ! A214  A(117,115,118)        114.4647                                         !
 ! A215  A(115,117,120)        119.1281                                         !
 ! A216  A(115,117,129)        116.2462                                         !
 ! A217  A(120,117,129)        124.6222                                         !
 ! A218  A(115,118,119)        103.9742                                         !
 ! A219  A(115,118,121)        112.4244                                         !
 ! A220  A(115,118,125)        112.6871                                         !
 ! A221  A(119,118,121)        108.1092                                         !
 ! A222  A(119,118,125)        107.6104                                         !
 ! A223  A(121,118,125)        111.5354                                         !
 ! A224  A(118,121,122)        111.417                                          !
 ! A225  A(118,121,123)        110.0655                                         !
 ! A226  A(118,121,124)        111.9763                                         !
 ! A227  A(122,121,123)        107.5448                                         !
 ! A228  A(122,121,124)        108.0592                                         !
 ! A229  A(123,121,124)        107.5963                                         !
 ! A230  A(118,125,126)        113.2991                                         !
 ! A231  A(118,125,127)        109.5034                                         !
 ! A232  A(118,125,128)        111.2121                                         !
 ! A233  A(126,125,127)        107.5235                                         !
 ! A234  A(126,125,128)        107.7523                                         !
 ! A235  A(127,125,128)        107.3106                                         !
 ! A236  A(117,129,130)        122.6728                                         !
 ! A237  A(117,129,131)        125.6656                                         !
 ! A238  A(130,129,131)        105.8896                                         !
 ! A239  A(129,131,132)        109.2294                                         !
 ! A240  A(129,131,133)        105.973                                          !
 ! A241  A(129,131,134)        112.5308                                         !
 ! A242  A(132,131,133)        110.1431                                         !
 ! A243  A(132,131,134)        109.8782                                         !
 ! A244  A(133,131,134)        109.0123                                         !
 ! A245  A(131,133,137)        114.5707                                         !
 ! A246  A(131,133,151)        113.724                                          !
 ! A247  A(137,133,151)        131.6553                                         !
 ! A248  A(131,134,135)        106.8599                                         !
 ! A249  A(131,134,136)        109.0125                                         !
 ! A250  A(131,134,138)        113.5946                                         !
 ! A251  A(135,134,136)        106.5939                                         !
 ! A252  A(135,134,138)        111.8513                                         !
 ! A253  A(136,134,138)        108.6691                                         !
 ! A254  A(134,138,139)        108.5483                                         !
 ! A255  A(134,138,140)        108.8423                                         !
 ! A256  A(134,138,141)        113.438                                          !
 ! A257  A(139,138,140)        105.9966                                         !
 ! A258  A(139,138,141)        109.3383                                         !
 ! A259  A(140,138,141)        110.3933                                         !
 ! A260  A(138,141,142)        110.1192                                         !
 ! A261  A(138,141,143)        110.6736                                         !
 ! A262  A(138,141,144)        113.3715                                         !
 ! A263  A(142,141,143)        106.0041                                         !
 ! A264  A(142,141,144)        106.5644                                         !
 ! A265  A(143,141,144)        109.7719                                         !
 ! A266  A(141,144,145)        111.8311                                         !
 ! A267  A(141,144,146)        112.5068                                         !
 ! A268  A(141,144,147)        110.8984                                         !
 ! A269  A(145,144,146)        108.9918                                         !
 ! A270  A(145,144,147)        105.0465                                         !
 ! A271  A(146,144,147)        107.1965                                         !
 ! A272  A(144,147,148)        111.3505                                         !
 ! A273  A(144,147,149)        111.1055                                         !
 ! A274  A(144,147,150)        110.9519                                         !
 ! A275  A(148,147,149)        106.1076                                         !
 ! A276  A(148,147,150)        107.9183                                         !
 ! A277  A(149,147,150)        109.2337                                         !
 ! D1    D(2,1,5,6)             60.806                                          !
 ! D2    D(2,1,5,7)            -56.0795                                         !
 ! D3    D(2,1,5,8)           -176.9411                                         !
 ! D4    D(3,1,5,6)            -63.753                                          !
 ! D5    D(3,1,5,7)            179.3614                                         !
 ! D6    D(3,1,5,8)             58.4999                                         !
 ! D7    D(4,1,5,6)            174.2105                                         !
 ! D8    D(4,1,5,7)             57.3249                                         !
 ! D9    D(4,1,5,8)            -63.5366                                         !
 ! D10   D(1,5,7,12)           -47.2018                                         !
 ! D11   D(1,5,7,13)           127.0411                                         !
 ! D12   D(6,5,7,12)          -159.9291                                         !
 ! D13   D(6,5,7,13)            14.3138                                         !
 ! D14   D(8,5,7,12)            71.2932                                         !
 ! D15   D(8,5,7,13)          -114.4639                                         !
 ! D16   D(1,5,8,9)           -178.0377                                         !
 ! D17   D(1,5,8,10)            63.0231                                         !
 ! D18   D(1,5,8,11)           -59.2417                                         !
 ! D19   D(6,5,8,9)            -59.2017                                         !
 ! D20   D(6,5,8,10)          -178.141                                          !
 ! D21   D(6,5,8,11)            59.5943                                         !
 ! D22   D(7,5,8,9)             69.4585                                         !
 ! D23   D(7,5,8,10)           -49.4807                                         !
 ! D24   D(7,5,8,11)          -171.7455                                         !
 ! D25   D(5,7,13,14)            7.7505                                         !
 ! D26   D(5,7,13,15)         -156.6199                                         !
 ! D27   D(12,7,13,14)        -178.549                                          !
 ! D28   D(12,7,13,15)          17.0806                                         !
 ! D29   D(7,13,15,16)         -39.941                                          !
 ! D30   D(7,13,15,17)        -159.7637                                         !
 ! D31   D(7,13,15,18)          82.1041                                         !
 ! D32   D(14,13,15,16)        155.188                                          !
 ! D33   D(14,13,15,17)         35.3653                                         !
 ! D34   D(14,13,15,18)        -82.7669                                         !
 ! D35   D(13,15,17,21)        -87.6568                                         !
 ! D36   D(13,15,17,27)         84.8249                                         !
 ! D37   D(16,15,17,21)        155.5459                                         !
 ! D38   D(16,15,17,27)        -31.9724                                         !
 ! D39   D(18,15,17,21)         32.2427                                         !
 ! D40   D(18,15,17,27)       -155.2756                                         !
 ! D41   D(13,15,18,19)       -173.2883                                         !
 ! D42   D(13,15,18,20)         71.7337                                         !
 ! D43   D(13,15,18,22)        -47.9822                                         !
 ! D44   D(16,15,18,19)        -53.1446                                         !
 ! D45   D(16,15,18,20)       -168.1225                                         !
 ! D46   D(16,15,18,22)         72.1615                                         !
 ! D47   D(17,15,18,19)         70.8842                                         !
 ! D48   D(17,15,18,20)        -44.0938                                         !
 ! D49   D(17,15,18,22)       -163.8098                                         !
 ! D50   D(15,17,27,28)         21.9176                                         !
 ! D51   D(15,17,27,29)       -171.2451                                         !
 ! D52   D(21,17,27,28)       -165.9614                                         !
 ! D53   D(21,17,27,29)          0.8759                                         !
 ! D54   D(15,18,22,23)       -115.1714                                         !
 ! D55   D(15,18,22,26)         67.0577                                         !
 ! D56   D(19,18,22,23)          8.5999                                         !
 ! D57   D(19,18,22,26)       -169.171                                          !
 ! D58   D(20,18,22,23)        125.4201                                         !
 ! D59   D(20,18,22,26)        -52.3507                                         !
 ! D60   D(18,22,23,24)       -176.1388                                         !
 ! D61   D(18,22,23,25)         -0.1287                                         !
 ! D62   D(26,22,23,24)          1.6401                                         !
 ! D63   D(26,22,23,25)        177.6501                                         !
 ! D64   D(17,27,29,30)        -16.1605                                         !
 ! D65   D(17,27,29,31)       -135.9309                                         !
 ! D66   D(17,27,29,32)        104.4643                                         !
 ! D67   D(28,27,29,30)        151.5737                                         !
 ! D68   D(28,27,29,31)         31.8033                                         !
 ! D69   D(28,27,29,32)        -87.8014                                         !
 ! D70   D(27,29,31,35)        -28.4876                                         !
 ! D71   D(27,29,31,42)        153.9992                                         !
 ! D72   D(30,29,31,35)       -145.0969                                         !
 ! D73   D(30,29,31,42)         37.3899                                         !
 ! D74   D(32,29,31,35)         93.3604                                         !
 ! D75   D(32,29,31,42)        -84.1527                                         !
 ! D76   D(27,29,32,33)         86.396                                          !
 ! D77   D(27,29,32,34)       -157.659                                          !
 ! D78   D(27,29,32,36)        -33.3855                                         !
 ! D79   D(30,29,32,33)       -154.5462                                         !
 ! D80   D(30,29,32,34)        -38.6012                                         !
 ! D81   D(30,29,32,36)         85.6723                                         !
 ! D82   D(31,29,32,33)        -31.7388                                         !
 ! D83   D(31,29,32,34)         84.2062                                         !
 ! D84   D(31,29,32,36)       -151.5203                                         !
 ! D85   D(29,31,42,43)         -4.0323                                         !
 ! D86   D(29,31,42,44)        176.8763                                         !
 ! D87   D(35,31,42,43)        178.6008                                         !
 ! D88   D(35,31,42,44)         -0.4905                                         !
 ! D89   D(29,32,36,37)       -177.4395                                         !
 ! D90   D(29,32,36,38)         65.8759                                         !
 ! D91   D(29,32,36,39)        -57.3215                                         !
 ! D92   D(33,32,36,37)         61.4928                                         !
 ! D93   D(33,32,36,38)        -55.1918                                         !
 ! D94   D(33,32,36,39)       -178.3892                                         !
 ! D95   D(34,32,36,37)        -54.1364                                         !
 ! D96   D(34,32,36,38)       -170.821                                          !
 ! D97   D(34,32,36,39)         65.9816                                         !
 ! D98   D(32,36,39,40)        137.6566                                         !
 ! D99   D(32,36,39,41)        -44.6895                                         !
 ! D100  D(37,36,39,40)       -101.5719                                         !
 ! D101  D(37,36,39,41)         76.082                                          !
 ! D102  D(38,36,39,40)         12.4481                                         !
 ! D103  D(38,36,39,41)       -169.898                                          !
 ! D104  D(36,39,41,152)       178.2041                                         !
 ! D105  D(40,39,41,152)        -4.0815                                         !
 ! D106  D(31,42,44,45)        -41.19                                           !
 ! D107  D(31,42,44,46)       -159.5375                                         !
 ! D108  D(31,42,44,47)         79.1077                                         !
 ! D109  D(43,42,44,45)        139.6492                                         !
 ! D110  D(43,42,44,46)         21.3017                                         !
 ! D111  D(43,42,44,47)       -100.0531                                         !
 ! D112  D(42,44,46,50)        -25.5671                                         !
 ! D113  D(42,44,46,61)        154.1932                                         !
 ! D114  D(45,44,46,50)       -142.0949                                         !
 ! D115  D(45,44,46,61)         37.6654                                         !
 ! D116  D(47,44,46,50)         94.577                                          !
 ! D117  D(47,44,46,61)        -85.6627                                         !
 ! D118  D(42,44,47,48)         64.5296                                         !
 ! D119  D(42,44,47,49)        -49.8052                                         !
 ! D120  D(42,44,47,51)       -171.3004                                         !
 ! D121  D(45,44,47,48)       -176.2213                                         !
 ! D122  D(45,44,47,49)         69.4439                                         !
 ! D123  D(45,44,47,51)        -52.0514                                         !
 ! D124  D(46,44,47,48)        -52.3739                                         !
 ! D125  D(46,44,47,49)       -166.7087                                         !
 ! D126  D(46,44,47,51)         71.7961                                         !
 ! D127  D(44,46,61,62)         11.1348                                         !
 ! D128  D(44,46,61,63)        168.1977                                         !
 ! D129  D(50,46,61,62)       -169.1158                                         !
 ! D130  D(50,46,61,63)        -12.0528                                         !
 ! D131  D(44,47,51,52)        -58.2453                                         !
 ! D132  D(44,47,51,53)         61.7242                                         !
 ! D133  D(44,47,51,57)       -175.4028                                         !
 ! D134  D(48,47,51,52)         64.8064                                         !
 ! D135  D(48,47,51,53)       -175.2241                                         !
 ! D136  D(48,47,51,57)        -52.3511                                         !
 ! D137  D(49,47,51,52)       -178.5154                                         !
 ! D138  D(49,47,51,53)        -58.5459                                         !
 ! D139  D(49,47,51,57)         64.3271                                         !
 ! D140  D(47,51,53,54)         58.0566                                         !
 ! D141  D(47,51,53,55)        -62.4602                                         !
 ! D142  D(47,51,53,56)        177.85                                           !
 ! D143  D(52,51,53,54)        178.7559                                         !
 ! D144  D(52,51,53,55)         58.2391                                         !
 ! D145  D(52,51,53,56)        -61.4507                                         !
 ! D146  D(57,51,53,54)        -64.1849                                         !
 ! D147  D(57,51,53,55)        175.2983                                         !
 ! D148  D(57,51,53,56)         55.6085                                         !
 ! D149  D(47,51,57,58)        -62.1466                                         !
 ! D150  D(47,51,57,59)         58.0376                                         !
 ! D151  D(47,51,57,60)        178.2117                                         !
 ! D152  D(52,51,57,58)        179.4789                                         !
 ! D153  D(52,51,57,59)        -60.3369                                         !
 ! D154  D(52,51,57,60)         59.8371                                         !
 ! D155  D(53,51,57,58)         62.005                                          !
 ! D156  D(53,51,57,59)       -177.8108                                         !
 ! D157  D(53,51,57,60)        -57.6368                                         !
 ! D158  D(46,61,63,64)        -12.9163                                         !
 ! D159  D(46,61,63,65)       -131.0623                                         !
 ! D160  D(46,61,63,66)        108.7507                                         !
 ! D161  D(62,61,63,64)        145.4972                                         !
 ! D162  D(62,61,63,65)         27.3513                                         !
 ! D163  D(62,61,63,66)        -92.8358                                         !
 ! D164  D(61,63,65,69)        -21.3272                                         !
 ! D165  D(61,63,65,80)        160.0193                                         !
 ! D166  D(64,63,65,69)       -137.7364                                         !
 ! D167  D(64,63,65,80)         43.6101                                         !
 ! D168  D(66,63,65,69)        100.5556                                         !
 ! D169  D(66,63,65,80)        -78.0979                                         !
 ! D170  D(61,63,66,67)         59.4748                                         !
 ! D171  D(61,63,66,68)        174.0068                                         !
 ! D172  D(61,63,66,70)        -63.3442                                         !
 ! D173  D(64,63,66,67)        179.655                                          !
 ! D174  D(64,63,66,68)        -65.8129                                         !
 ! D175  D(64,63,66,70)         56.8361                                         !
 ! D176  D(65,63,66,67)        -58.6289                                         !
 ! D177  D(65,63,66,68)         55.9031                                         !
 ! D178  D(65,63,66,70)        178.5521                                         !
 ! D179  D(63,65,80,81)          1.8499                                         !
 ! D180  D(63,65,80,82)        175.13                                           !
 ! D181  D(69,65,80,81)       -176.7595                                         !
 ! D182  D(69,65,80,82)         -3.4794                                         !
 ! D183  D(63,66,70,71)         54.5715                                         !
 ! D184  D(63,66,70,72)        171.6818                                         !
 ! D185  D(63,66,70,76)        -64.4349                                         !
 ! D186  D(67,66,70,71)        -67.2246                                         !
 ! D187  D(67,66,70,72)         49.8857                                         !
 ! D188  D(67,66,70,76)        173.769                                          !
 ! D189  D(68,66,70,71)        176.813                                          !
 ! D190  D(68,66,70,72)        -66.0766                                         !
 ! D191  D(68,66,70,76)         57.8066                                         !
 ! D192  D(66,70,72,73)         62.7349                                         !
 ! D193  D(66,70,72,74)        -57.445                                          !
 ! D194  D(66,70,72,75)       -177.7886                                         !
 ! D195  D(71,70,72,73)        179.7869                                         !
 ! D196  D(71,70,72,74)         59.607                                          !
 ! D197  D(71,70,72,75)        -60.7366                                         !
 ! D198  D(76,70,72,73)        -62.0578                                         !
 ! D199  D(76,70,72,74)        177.7623                                         !
 ! D200  D(76,70,72,75)         57.4187                                         !
 ! D201  D(66,70,76,77)        -57.5116                                         !
 ! D202  D(66,70,76,78)         64.0565                                         !
 ! D203  D(66,70,76,79)       -176.4864                                         !
 ! D204  D(71,70,76,77)       -176.3495                                         !
 ! D205  D(71,70,76,78)        -54.7814                                         !
 ! D206  D(71,70,76,79)         64.6757                                         !
 ! D207  D(72,70,76,77)         65.6136                                         !
 ! D208  D(72,70,76,78)       -172.8182                                         !
 ! D209  D(72,70,76,79)        -53.3611                                         !
 ! D210  D(65,80,82,83)        -38.5828                                         !
 ! D211  D(65,80,82,84)       -156.1174                                         !
 ! D212  D(65,80,82,85)         80.164                                          !
 ! D213  D(81,80,82,83)        135.1418                                         !
 ! D214  D(81,80,82,84)         17.6072                                         !
 ! D215  D(81,80,82,85)       -106.1113                                         !
 ! D216  D(80,82,84,87)        -18.9361                                         !
 ! D217  D(80,82,84,99)        161.8897                                         !
 ! D218  D(83,82,84,87)       -135.0562                                         !
 ! D219  D(83,82,84,99)         45.7697                                         !
 ! D220  D(85,82,84,87)        103.3708                                         !
 ! D221  D(85,82,84,99)        -75.8033                                         !
 ! D222  D(80,82,85,86)        -49.6048                                         !
 ! D223  D(80,82,85,88)       -165.4311                                         !
 ! D224  D(80,82,85,91)         66.983                                          !
 ! D225  D(83,82,85,86)         68.827                                          !
 ! D226  D(83,82,85,88)        -46.9993                                         !
 ! D227  D(83,82,85,91)       -174.5852                                         !
 ! D228  D(84,82,85,86)       -168.7302                                         !
 ! D229  D(84,82,85,88)         75.4435                                         !
 ! D230  D(84,82,85,91)        -52.1424                                         !
 ! D231  D(82,84,99,100)         0.1332                                         !
 ! D232  D(82,84,99,101)       172.4464                                         !
 ! D233  D(87,84,99,100)      -179.0312                                         !
 ! D234  D(87,84,99,101)        -6.7179                                         !
 ! D235  D(82,85,88,89)        178.1273                                         !
 ! D236  D(82,85,88,90)        -67.9781                                         !
 ! D237  D(82,85,88,95)         57.5854                                         !
 ! D238  D(86,85,88,89)         64.223                                          !
 ! D239  D(86,85,88,90)        178.1176                                         !
 ! D240  D(86,85,88,95)        -56.3189                                         !
 ! D241  D(91,85,88,89)        -53.8755                                         !
 ! D242  D(91,85,88,90)         60.0192                                         !
 ! D243  D(91,85,88,95)       -174.4174                                         !
 ! D244  D(82,85,91,92)         69.109                                          !
 ! D245  D(82,85,91,93)        -51.7155                                         !
 ! D246  D(82,85,91,94)       -171.4987                                         !
 ! D247  D(86,85,91,92)       -177.296                                          !
 ! D248  D(86,85,91,93)         61.8796                                         !
 ! D249  D(86,85,91,94)        -57.9036                                         !
 ! D250  D(88,85,91,92)        -60.1743                                         !
 ! D251  D(88,85,91,93)        179.0013                                         !
 ! D252  D(88,85,91,94)         59.2181                                         !
 ! D253  D(85,88,95,96)        171.352                                          !
 ! D254  D(85,88,95,97)         51.3312                                         !
 ! D255  D(85,88,95,98)        -69.2603                                         !
 ! D256  D(89,88,95,96)         51.8136                                         !
 ! D257  D(89,88,95,97)        -68.2071                                         !
 ! D258  D(89,88,95,98)        171.2013                                         !
 ! D259  D(90,88,95,96)        -62.7846                                         !
 ! D260  D(90,88,95,97)        177.1946                                         !
 ! D261  D(90,88,95,98)         56.6031                                         !
 ! D262  D(84,99,101,102)      -37.2466                                         !
 ! D263  D(84,99,101,103)     -155.4892                                         !
 ! D264  D(84,99,101,104)       81.8398                                         !
 ! D265  D(100,99,101,102)     135.7025                                         !
 ! D266  D(100,99,101,103)      17.4599                                         !
 ! D267  D(100,99,101,104)    -105.2111                                         !
 ! D268  D(99,101,103,107)     -24.3762                                         !
 ! D269  D(99,101,103,113)     155.187                                          !
 ! D270  D(102,101,103,107)   -141.2304                                         !
 ! D271  D(102,101,103,113)     38.3328                                         !
 ! D272  D(104,101,103,107)     96.5271                                         !
 ! D273  D(104,101,103,113)    -83.9097                                         !
 ! D274  D(99,101,104,105)      53.7065                                         !
 ! D275  D(99,101,104,106)     -63.561                                          !
 ! D276  D(99,101,104,108)     174.2619                                         !
 ! D277  D(102,101,104,105)    172.2133                                         !
 ! D278  D(102,101,104,106)     54.9458                                         !
 ! D279  D(102,101,104,108)    -67.2313                                         !
 ! D280  D(103,101,104,105)    -64.9087                                         !
 ! D281  D(103,101,104,106)    177.8238                                         !
 ! D282  D(103,101,104,108)     55.6467                                         !
 ! D283  D(101,103,113,114)      8.2252                                         !
 ! D284  D(101,103,113,115)    167.2246                                         !
 ! D285  D(107,103,113,114)   -172.242                                          !
 ! D286  D(107,103,113,115)    -13.2426                                         !
 ! D287  D(101,104,108,109)     57.0043                                         !
 ! D288  D(101,104,108,112)   -123.3767                                         !
 ! D289  D(105,104,108,109)    178.7583                                         !
 ! D290  D(105,104,108,112)     -1.6227                                         !
 ! D291  D(106,104,108,109)    -63.4786                                         !
 ! D292  D(106,104,108,112)    116.1405                                         !
 ! D293  D(104,108,109,110)     -3.0492                                         !
 ! D294  D(104,108,109,111)   -143.2609                                         !
 ! D295  D(112,108,109,110)    177.3363                                         !
 ! D296  D(112,108,109,111)     37.1246                                         !
 ! D297  D(103,113,115,116)    -16.1217                                         !
 ! D298  D(103,113,115,117)   -133.1421                                         !
 ! D299  D(103,113,115,118)    102.7762                                         !
 ! D300  D(114,113,115,116)    144.3998                                         !
 ! D301  D(114,113,115,117)     27.3795                                         !
 ! D302  D(114,113,115,118)    -96.7022                                         !
 ! D303  D(113,115,117,120)    -19.3649                                         !
 ! D304  D(113,115,117,129)    159.9819                                         !
 ! D305  D(116,115,117,120)   -134.9681                                         !
 ! D306  D(116,115,117,129)     44.3787                                         !
 ! D307  D(118,115,117,120)    102.5739                                         !
 ! D308  D(118,115,117,129)    -78.0794                                         !
 ! D309  D(113,115,118,119)    -49.1561                                         !
 ! D310  D(113,115,118,121)     67.5365                                         !
 ! D311  D(113,115,118,125)   -165.3843                                         !
 ! D312  D(116,115,118,119)     69.3256                                         !
 ! D313  D(116,115,118,121)   -173.9818                                         !
 ! D314  D(116,115,118,125)    -46.9026                                         !
 ! D315  D(117,115,118,119)   -167.4832                                         !
 ! D316  D(117,115,118,121)    -50.7906                                         !
 ! D317  D(117,115,118,125)     76.2886                                         !
 ! D318  D(115,117,129,130)     17.7463                                         !
 ! D319  D(115,117,129,131)    167.1291                                         !
 ! D320  D(120,117,129,130)   -162.9472                                         !
 ! D321  D(120,117,129,131)    -13.5644                                         !
 ! D322  D(115,118,121,122)     66.7858                                         !
 ! D323  D(115,118,121,123)   -174.0045                                         !
 ! D324  D(115,118,121,124)    -54.3702                                         !
 ! D325  D(119,118,121,122)   -179.0214                                         !
 ! D326  D(119,118,121,123)    -59.8117                                         !
 ! D327  D(119,118,121,124)     59.8226                                         !
 ! D328  D(125,118,121,122)    -60.9058                                         !
 ! D329  D(125,118,121,123)     58.3039                                         !
 ! D330  D(125,118,121,124)    177.9382                                         !
 ! D331  D(115,118,125,126)    -67.5932                                         !
 ! D332  D(115,118,125,127)    172.3859                                         !
 ! D333  D(115,118,125,128)     53.9568                                         !
 ! D334  D(119,118,125,126)    178.3713                                         !
 ! D335  D(119,118,125,127)     58.3504                                         !
 ! D336  D(119,118,125,128)    -60.0787                                         !
 ! D337  D(121,118,125,126)     59.9568                                         !
 ! D338  D(121,118,125,127)    -60.0641                                         !
 ! D339  D(121,118,125,128)   -178.4932                                         !
 ! D340  D(117,129,131,132)    -23.2469                                         !
 ! D341  D(117,129,131,133)   -141.8803                                         !
 ! D342  D(117,129,131,134)     99.0681                                         !
 ! D343  D(130,129,131,132)    130.2823                                         !
 ! D344  D(130,129,131,133)     11.6488                                         !
 ! D345  D(130,129,131,134)   -107.4028                                         !
 ! D346  D(129,131,133,137)    177.4776                                         !
 ! D347  D(129,131,133,151)     -4.7899                                         !
 ! D348  D(132,131,133,137)     59.4506                                         !
 ! D349  D(132,131,133,151)   -122.8169                                         !
 ! D350  D(134,131,133,137)    -61.1772                                         !
 ! D351  D(134,131,133,151)    116.5554                                         !
 ! D352  D(129,131,134,135)   -177.2604                                         !
 ! D353  D(129,131,134,136)     67.9014                                         !
 ! D354  D(129,131,134,138)    -53.4281                                         !
 ! D355  D(132,131,134,135)    -55.3124                                         !
 ! D356  D(132,131,134,136)   -170.1506                                         !
 ! D357  D(132,131,134,138)     68.52                                           !
 ! D358  D(133,131,134,135)     65.4779                                         !
 ! D359  D(133,131,134,136)    -49.3603                                         !
 ! D360  D(133,131,134,138)   -170.6898                                         !
 ! D361  D(131,134,138,139)     62.2133                                         !
 ! D362  D(131,134,138,140)    -52.7248                                         !
 ! D363  D(131,134,138,141)   -176.0401                                         !
 ! D364  D(135,134,138,139)   -176.7128                                         !
 ! D365  D(135,134,138,140)     68.349                                          !
 ! D366  D(135,134,138,141)    -54.9663                                         !
 ! D367  D(136,134,138,139)    -59.3079                                         !
 ! D368  D(136,134,138,140)   -174.246                                          !
 ! D369  D(136,134,138,141)     62.4386                                         !
 ! D370  D(134,138,141,142)    -44.0058                                         !
 ! D371  D(134,138,141,143)     72.8704                                         !
 ! D372  D(134,138,141,144)   -163.285                                          !
 ! D373  D(139,138,141,142)     77.2987                                         !
 ! D374  D(139,138,141,143)   -165.8251                                         !
 ! D375  D(139,138,141,144)    -41.9805                                         !
 ! D376  D(140,138,141,142)   -166.4661                                         !
 ! D377  D(140,138,141,143)    -49.59                                           !
 ! D378  D(140,138,141,144)     74.2547                                         !
 ! D379  D(138,141,144,145)     68.2493                                         !
 ! D380  D(138,141,144,146)   -168.694                                          !
 ! D381  D(138,141,144,147)    -48.6429                                         !
 ! D382  D(142,141,144,145)    -53.0481                                         !
 ! D383  D(142,141,144,146)     70.0086                                         !
 ! D384  D(142,141,144,147)   -169.9403                                         !
 ! D385  D(143,141,144,145)   -167.4152                                         !
 ! D386  D(143,141,144,146)    -44.3586                                         !
 ! D387  D(143,141,144,147)     75.6925                                         !
 ! D388  D(141,144,147,148)   -159.3529                                         !
 ! D389  D(141,144,147,149)     82.6009                                         !
 ! D390  D(141,144,147,150)    -39.128                                          !
 ! D391  D(145,144,147,148)     79.6609                                         !
 ! D392  D(145,144,147,149)    -38.3854                                         !
 ! D393  D(145,144,147,150)   -160.1142                                         !
 ! D394  D(146,144,147,148)    -36.185                                          !
 ! D395  D(146,144,147,149)   -154.2312                                         !
 ! D396  D(146,144,147,150)     84.0399                                         !
 --------------------------------------------------------------------------------
 Symmetry turned off by external request.
 Stoichiometry    C45H81N12O14(1+)
 Framework group  C1[X(C45H81N12O14)]
 Deg. of freedom   450
 Full point group                 C1      NOp   1
                          Input orientation:                          
 ---------------------------------------------------------------------
[...]
 Alpha virt. eigenvalues --    1.82894   1.82998   1.83173   1.83398   1.83708
 Alpha virt. eigenvalues --    1.83904   1.84453   1.84571   1.85072   1.85163
 Alpha virt. eigenvalues --    1.85226   1.85384   1.85870   1.86085   1.86668
 Alpha virt. eigenvalues --    1.86887   1.87033   1.87305   1.87575   1.88023
 Alpha virt. eigenvalues --    1.88122   1.88578   1.88841   1.89385   1.89655
 Alpha virt. eigenvalues --    1.90054   1.90488   1.90803   1.90918   1.91126
 Alpha virt. eigenvalues --    1.91152   1.91473   1.91569   1.91909   1.92295
 Alpha virt. eigenvalues --    1.92484   1.92614   1.93339   1.93506   1.93788
 Alpha virt. eigenvalues --    1.94086   1.94673   1.95024   1.95120   1.95259
 Alpha virt. eigenvalues --    1.95291   1.95612   1.95823   1.96265   1.96571
 Alpha virt. eigenvalues --    1.96668   1.96862   1.97202   1.97433   1.97652
 Alpha virt. eigenvalues --    1.98153   1.98675   1.98818   1.99266   1.99406
 Alpha virt. eigenvalues --    1.99772   2.00078   2.00200   2.01138   2.01206
 Alpha virt. eigenvalues --    2.01918   2.02429   2.02744   2.02964   2.03156
 Alpha virt. eigenvalues --    2.03479   2.03807   2.03968   2.04676   2.04729
 Alpha virt. eigenvalues --    2.05554   2.05596   2.06386   2.06525   2.06700
 Alpha virt. eigenvalues --    2.07637   2.07771   2.07970   2.08721   2.08788
 Alpha virt. eigenvalues --    2.09550   2.09661   2.10055   2.10398   2.10904
 Alpha virt. eigenvalues --    2.11887   2.12148   2.12715   2.13195   2.13451
 Alpha virt. eigenvalues --    2.13785   2.14458   2.14739   2.15504   2.15647
 Alpha virt. eigenvalues --    2.15829   2.16072   2.16267   2.16589   2.16698
 Alpha virt. eigenvalues --    2.17460   2.18197   2.18491   2.19034   2.19747
 Alpha virt. eigenvalues --    2.19869   2.20013   2.20542   2.21539   2.21738
 Alpha virt. eigenvalues --    2.21809   2.22130   2.22224   2.22911   2.23164
 Alpha virt. eigenvalues --    2.23580   2.23740   2.24022   2.24205   2.24368
 Alpha virt. eigenvalues --    2.24854   2.25008   2.25163   2.25499   2.25664
 Alpha virt. eigenvalues --    2.26108   2.26253   2.27595   2.27787   2.28592
 Alpha virt. eigenvalues --    2.28962   2.29220   2.29896   2.30514   2.30617
 Alpha virt. eigenvalues --    2.30869   2.31424   2.31854   2.32624   2.33494
 Alpha virt. eigenvalues --    2.33714   2.33811   2.34182   2.35101   2.35456
 Alpha virt. eigenvalues --    2.35599   2.36475   2.37089   2.38211   2.38781
 Alpha virt. eigenvalues --    2.39182   2.39438   2.39889   2.40088   2.40469
 Alpha virt. eigenvalues --    2.41059   2.41362   2.41644   2.42455   2.42674
 Alpha virt. eigenvalues --    2.43144   2.43468   2.43740   2.45135   2.45391
 Alpha virt. eigenvalues --    2.46007   2.46468   2.46863   2.47379   2.47792
 Alpha virt. eigenvalues --    2.48065   2.48759   2.49286   2.49900   2.50166
 Alpha virt. eigenvalues --    2.50177   2.50894   2.51361   2.51784   2.52439
 Alpha virt. eigenvalues --    2.53546   2.53711   2.53919   2.54566   2.55167
 Alpha virt. eigenvalues --    2.55652   2.55844   2.56224   2.56383   2.56865
 Alpha virt. eigenvalues --    2.57125   2.57854   2.58810   2.59091   2.59668
 Alpha virt. eigenvalues --    2.60553   2.61063   2.62221   2.62622   2.63156
 Alpha virt. eigenvalues --    2.64393   2.64734   2.65305   2.65463   2.66376
 Alpha virt. eigenvalues --    2.67020   2.67365   2.67901   2.68502   2.69270
 Alpha virt. eigenvalues --    2.69635   2.70541   2.71586   2.72378   2.72554
 Alpha virt. eigenvalues --    2.73484   2.73694   2.73970   2.74291   2.74400
 Alpha virt. eigenvalues --    2.76274   2.77855   2.78090   2.79184   2.80054
 Alpha virt. eigenvalues --    2.80840   2.81742   2.81830   2.82305   2.83592
 Alpha virt. eigenvalues --    2.84856   2.85423   2.86336   2.87086   2.87858
 Alpha virt. eigenvalues --    2.88076   2.88900   2.89338   2.90498   2.92045
 Alpha virt. eigenvalues --    2.92472   2.93001   2.93570   2.93894   2.94477
 Alpha virt. eigenvalues --    2.95095   2.95547   2.96279   2.97948   2.98263
 Alpha virt. eigenvalues --    2.98601   2.99252   3.00482   3.03934   3.06018
 Alpha virt. eigenvalues --    3.06319   3.08321   3.10662   3.13367   3.14618
 Alpha virt. eigenvalues --    3.16623   3.17414   3.23453   3.67471   3.69448
 Alpha virt. eigenvalues --    3.73600   3.77975   3.79394   3.91495   3.95168
 Alpha virt. eigenvalues --    3.95581   3.96617   3.97153   3.97646   4.00400
 Alpha virt. eigenvalues --    4.01340   4.01666   4.05122   4.05724   4.06704
 Alpha virt. eigenvalues --    4.07129   4.07995   4.08258   4.09255   4.09917
 Alpha virt. eigenvalues --    4.11291   4.11745   4.12791   4.13636   4.13844
 Alpha virt. eigenvalues --    4.14102   4.15144   4.16324   4.18688   4.21044
 Alpha virt. eigenvalues --    4.22383   4.22825   4.23644   4.24082   4.24136
 Alpha virt. eigenvalues --    4.24280   4.25667   4.26512   4.28217   4.28660
 Alpha virt. eigenvalues --    4.29868   4.31235   4.31927   4.34766   4.35116
 Alpha virt. eigenvalues --    4.35246   4.37138   4.38365   4.39214   4.41380
 Alpha virt. eigenvalues --    4.42196   4.42988   4.43439   4.48221   4.49051
 Alpha virt. eigenvalues --    4.49833   4.50639   4.51986   4.53427   4.55076
 Alpha virt. eigenvalues --    4.56291   4.56542   4.59106   4.60438   4.61124
 Alpha virt. eigenvalues --    4.62182   4.64264   4.64744   4.68593
          Condensed to atoms (all electrons):
 Mulliken charges:
               1
     1  N   -0.748989
     2  H    0.449889
     3  H    0.402615
     4  H    0.410729
     5  C   -0.109655
     6  H    0.218559
     7  C    0.638575
     8  C   -0.465560
     9  H    0.207848
    10  H    0.197182
    11  H    0.179555
    12  O   -0.536774
    13  N   -0.621175
    14  H    0.407573
    15  C   -0.062429
    16  H    0.192836
    17  C    0.608544
    18  C   -0.354096
    19  H    0.168724
    20  H    0.227253
    21  O   -0.518345
    22  C    0.634392
    23  N   -0.721696
    24  H    0.359042
    25  H    0.365653
    26  O   -0.584600
    27  N   -0.606286
    28  H    0.355042
    29  C   -0.059141
    30  H    0.196692
    31  C    0.622537
    32  C   -0.278925
    33  H    0.172518
    34  H    0.181785
    35  O   -0.547413
    36  C   -0.352938
    37  H    0.196310
    38  H    0.165828
    39  C    0.618523
    40  O   -0.517219
    41  O   -0.538503
    42  N   -0.617834
    43  H    0.357610
    44  C   -0.054494
    45  H    0.177950
    46  C    0.613998
    47  C   -0.256143
    48  H    0.144267
    49  H    0.159759
    50  O   -0.543002
    51  C   -0.099222
    52  H    0.146143
    53  C   -0.447484
    54  H    0.148997
    55  H    0.134466
    56  H    0.158976
    57  C   -0.445097
    58  H    0.140514
    59  H    0.143706
    60  H    0.152501
    61  N   -0.604072
    62  H    0.363651
    63  C   -0.081492
    64  H    0.184387
    65  C    0.630616
    66  C   -0.253394
    67  H    0.144273
    68  H    0.138628
    69  O   -0.548700
    70  C   -0.065183
    71  H    0.130088
    72  C   -0.444320
    73  H    0.141436
    74  H    0.142164
    75  H    0.144739
    76  C   -0.464463
    77  H    0.134111
    78  H    0.176449
    79  H    0.141747
    80  N   -0.619207
    81  H    0.356845
    82  C   -0.055915
    83  H    0.181148
    84  C    0.624863
    85  C   -0.075760
    86  H    0.158830
    87  O   -0.558871
    88  C   -0.276618
    89  H    0.146902
    90  H    0.144860
    91  C   -0.461116
    92  H    0.150805
    93  H    0.148379
    94  H    0.153739
    95  C   -0.457615
    96  H    0.163165
    97  H    0.158095
    98  H    0.139495
    99  N   -0.627862
   100  H    0.374970
   101  C   -0.054935
   102  H    0.167531
   103  C    0.614159
   104  C   -0.354811
   105  H    0.192483
   106  H    0.203522
   107  O   -0.536441
   108  C    0.587629
   109  N   -0.741796
   110  H    0.349468
   111  H    0.394269
   112  O   -0.552451
   113  N   -0.605545
   114  H    0.340820
   115  C   -0.070988
   116  H    0.180076
   117  C    0.626235
   118  C   -0.062729
   119  H    0.137042
   120  O   -0.627457
   121  C   -0.457247
   122  H    0.170881
   123  H    0.151306
   124  H    0.124376
   125  C   -0.484210
   126  H    0.210675
   127  H    0.143867
   128  H    0.142409
   129  N   -0.594314
   130  H    0.371652
   131  C   -0.087577
   132  H    0.145637
   133  C    0.587020
   134  C   -0.255030
   135  H    0.166363
   136  H    0.143457
   137  O   -0.579170
   138  C   -0.285528
   139  H    0.155161
   140  H    0.124254
   141  C   -0.289821
   142  H    0.186369
   143  H    0.158251
   144  C   -0.188005
   145  H    0.215336
   146  H    0.191306
   147  N   -0.764804
   148  H    0.395005
   149  H    0.451313
   150  H    0.397309
   151  O   -0.610719
   152  H    0.428529
 Sum of Mulliken charges =   1.00000
 Mulliken charges with hydrogens summed into heavy atoms:
               1
     1  N    0.514244
     5  C    0.108904
     7  C    0.638575
     8  C    0.119026
    12  O   -0.536774
    13  N   -0.213602
    15  C    0.130407
    17  C    0.608544
    18  C    0.041881
    21  O   -0.518345
    22  C    0.634392
    23  N    0.003000
    26  O   -0.584600
    27  N   -0.251244
    29  C    0.137551
    31  C    0.622537
    32  C    0.075377
    35  O   -0.547413
    36  C    0.009200
    39  C    0.618523
    40  O   -0.517219
    41  O   -0.109974
    42  N   -0.260224
    44  C    0.123456
    46  C    0.613998
    47  C    0.047883
    50  O   -0.543002
    51  C    0.046922
    53  C   -0.005045
    57  C   -0.008375
    61  N   -0.240422
    63  C    0.102896
    65  C    0.630616
    66  C    0.029507
    69  O   -0.548700
    70  C    0.064905
    72  C   -0.015980
    76  C   -0.012155
    80  N   -0.262362
    82  C    0.125233
    84  C    0.624863
    85  C    0.083070
    87  O   -0.558871
    88  C    0.015143
    91  C   -0.008193
    95  C    0.003140
    99  N   -0.252891
   101  C    0.112596
   103  C    0.614159
   104  C    0.041193
   107  O   -0.536441
   108  C    0.587629
   109  N    0.001941
   112  O   -0.552451
   113  N   -0.264725
   115  C    0.109087
   117  C    0.626235
   118  C    0.074312
   120  O   -0.627457
   121  C   -0.010685
   125  C    0.012741
   129  N   -0.222662
   131  C    0.058060
   133  C    0.587020
   134  C    0.054790
   137  O   -0.579170
   138  C   -0.006113
   141  C    0.054799
   144  C    0.218637
   147  N    0.478823
   151  O   -0.610719
 Electronic spatial extent (au):  <R**2>=         183914.3532
 Charge=              1.0000 electrons
 Dipole moment (field-independent basis, Debye):
    X=            -50.1877    Y=            -16.2517    Z=            -30.3770  Tot=             60.8743
 Quadrupole moment (field-independent basis, Debye-Ang):
   XX=           -402.0782   YY=           -433.1526   ZZ=            114.4949
   XY=             -1.7962   XZ=            272.6830   YZ=             83.2153
 Traceless Quadrupole moment (field-independent basis, Debye-Ang):
   XX=           -161.8329   YY=           -192.9073   ZZ=            354.7402
   XY=             -1.7962   XZ=            272.6830   YZ=             83.2153
 Octapole moment (field-independent basis, Debye-Ang**2):
  XXX=         -10964.4679  YYY=          -1432.3178  ZZZ=          -2145.9589  XYY=          -1913.5147
  XXY=          -3729.6808  XXZ=          -5228.9539  XZZ=          -4302.9767  YZZ=          -1631.6355
  YYZ=           -388.2918  XYZ=          -2115.1640
 Hexadecapole moment (field-independent basis, Debye-Ang**3):
 XXXX=        -171671.6623 YYYY=         -20968.8957 ZZZZ=         -18553.2629 XXXY=         -40545.9292
 XXXZ=         -47945.6290 YYYX=         -25107.8784 YYYZ=         -16809.6493 ZZZX=          -1049.5125
 ZZZY=          -2007.0750 XXYY=         -31962.1474 XXZZ=         -14923.3966 YYZZ=         -16966.8506
 XXYZ=          -8704.6712 YYXZ=         -16679.0944 ZZXY=          -1218.6697
 N-N= 1.111118174832D+04 E-N=-3.028373692620D+04  KE= 3.441480178841D+03
 Unable to Open any file for archive entry.
 1\1\GINC-LAC-307\SP\RB3LYP\6-31G(d)\C45H81N12O14(1+)\KENGMITH\11-Jul-2
 022\0\\# B3LYP/6-31G* guess=read geom=check nosymm integral(ultrafineg
 rid)\\Candidate Structure: Conf:684 Charge calc in gas phase\\1,1\N,0,
 -10.1470848053,-3.6475124806,-10.2987128645\H,0,-9.7657299548,-2.80979
 47569,-10.8090185843\H,0,-11.1509122565,-3.7667554179,-10.4591981809\H
 ,0,-9.6232860066,-4.4585923657,-10.6575024372\C,0,-9.7817043738,-3.508
 8078258,-8.8301914464\H,0,-10.2546265265,-2.5892570896,-8.478756044\C,
 0,-8.2479268745,-3.3671809407,-8.932936756\C,0,-10.2398894314,-4.72917
 11156,-8.0430913467\H,0,-9.9957083221,-4.5867283812,-6.9863477247\H,0,
 -9.7278758833,-5.6315825048,-8.3920947293\H,0,-11.3234115689,-4.873504
 6842,-8.1158108268\O,0,-7.6481551315,-4.1661717955,-9.6530857005\N,0,-
 7.708266064,-2.3045606269,-8.3181816009\H,0,-8.2843890606,-1.707749077
 1,-7.7193790402\C,0,-6.4094866321,-1.7702922952,-8.7341991382\H,0,-5.7
 578843718,-2.6186620858,-8.9584552874\C,0,-5.9028251793,-0.9483483811,
 -7.5259290884\C,0,-6.5427823938,-0.8330168521,-9.9631742339\H,0,-5.534
 6638285,-0.5651869466,-10.2972633398\H,0,-7.0200872917,0.0869499758,-9
 .6114138874\O,0,-6.2175495836,0.2326488005,-7.4114207755\C,0,-7.377388
 4695,-1.3678308878,-11.1181534466\N,0,-6.7279461653,-1.5956014421,-12.
 275885728\H,0,-7.253130362,-1.8950795353,-13.0870505919\H,0,-5.7394027
 698,-1.4232392608,-12.3869597884\O,0,-8.6038111216,-1.5459582086,-11.0
 14550777\N,0,-5.2552031658,-1.6590342947,-6.575306478\H,0,-4.826734412
 3,-2.5591781007,-6.7724679243\C,0,-4.8826568675,-1.074144074,-5.295056
 0169\H,0,-4.9519554503,0.0102332934,-5.406995335\C,0,-3.4387111393,-1.
 5289174811,-5.0070837097\C,0,-5.8070806323,-1.5427106809,-4.1304788183
 \H,0,-5.4177137775,-2.4848577789,-3.7273294647\H,0,-5.7486091255,-0.80
 26606353,-3.3263850503\O,0,-3.0374599627,-2.6011687235,-5.4654640783\C
 ,0,-7.2783868946,-1.8041513187,-4.5055044201\H,0,-7.8135939761,-2.0795
 973569,-3.5862634963\H,0,-7.3601556546,-2.6524513922,-5.1881123121\C,0
 ,-8.0553085293,-0.6641022259,-5.1286779364\O,0,-8.8201894349,-0.779219
 6218,-6.0750604848\O,0,-7.8600042488,0.5025825952,-4.5011759991\N,0,-2
 .7191010178,-0.720553971,-4.2108425394\H,0,-3.0782066574,0.1671267022,
 -3.8693041419\C,0,-1.3575381585,-1.0150806697,-3.7720841963\H,0,-1.303
 6180997,-2.0781118181,-3.519399368\C,0,-1.1447076389,-0.1434700805,-2.
 5199143363\C,0,-0.3409124853,-0.6881261497,-4.8980854744\H,0,-0.378156
 477,0.3952205936,-5.0732662851\H,0,-0.7218919079,-1.1739098144,-5.8049
 667247\O,0,-1.7955869483,0.8945597187,-2.3751723501\C,0,1.1207777175,-
 1.1310561039,-4.6814310736\H,0,1.5059635075,-0.672391661,-3.761469909\
 C,0,1.2594391951,-2.6561218648,-4.5464865212\H,0,0.8664057783,-3.16608
 02167,-5.4352073449\H,0,0.7252735261,-3.0568171187,-3.6764164225\H,0,2
 .3116431156,-2.9377111755,-4.4322881976\C,0,1.9830214342,-0.6171219458
 ,-5.8455107132\H,0,1.6537240006,-1.0480504937,-6.7999890218\H,0,1.9280
 754853,0.4743110965,-5.9342946148\H,0,3.034457693,-0.8899887483,-5.702
 7752847\N,0,-0.2311962939,-0.5921703704,-1.6306258938\H,0,0.3859486601
 ,-1.3592889687,-1.8835973856\C,0,0.2774761161,0.2146637355,-0.52665954
 28\H,0,-0.0239791376,1.2503518844,-0.7060713797\C,0,1.8142349422,0.089
 6537069,-0.5726869589\C,0,-0.2471809242,-0.2657591824,0.8475078199\H,0
 ,0.074058302,-1.3080325317,0.9788042765\H,0,0.2595492606,0.3157261246,
 1.6308464597\O,0,2.3508988407,-0.8619144925,-1.1466846896\C,0,-1.77058
 62596,-0.1672398098,1.0569788766\H,0,-2.2580518511,-0.7060636476,0.232
 3510685\C,0,-2.1559302814,-0.8666824048,2.3699706097\H,0,-1.6914248437
 ,-0.3702444734,3.2319793683\H,0,-1.8367363497,-1.9157797198,2.37756548
 51\H,0,-3.2410899698,-0.8442639548,2.5224057625\C,0,-2.2733391439,1.28
 41331808,1.0403500845\H,0,-1.766465719,1.884981387,1.807545114\H,0,-2.
 1181049348,1.7552802933,0.0653330978\H,0,-3.3481284081,1.3203863712,1.
 2538289929\N,0,2.5005229573,1.057054703,0.0690477111\H,0,2.0316703418,
 1.8026929401,0.5741725065\C,0,3.9509000277,1.041541542,0.215423408\H,0
 ,4.258474081,0.0070007104,0.3975967541\C,0,4.2528441919,1.9030036277,1
 .4512063254\C,0,4.6595408038,1.5446430585,-1.0855644582\H,0,4.17999988
 03,0.960495113,-1.8814939522\O,0,3.4257533821,2.7085195448,1.889482596
 8\C,0,6.1694873759,1.2316921117,-1.1499252617\H,0,6.5268550081,1.60570
 18416,-2.1182524495\H,0,6.7158041883,1.8136122313,-0.3960363258\C,0,4.
 3905719134,3.0331470589,-1.346961098\H,0,4.8879173514,3.671086833,-0.6
 064430086\H,0,3.3201209953,3.262116916,-1.3207955891\H,0,4.7694235922,
 3.3186303741,-2.3342964604\C,0,6.5406721164,-0.2529389929,-1.035331192
 3\H,0,7.6056733077,-0.3986047863,-1.2428441526\H,0,5.9692792189,-0.860
 8648275,-1.7465426051\H,0,6.3552687689,-0.6628051978,-0.0347534717\N,0
 ,5.4715792625,1.7393609484,2.0118387111\H,0,6.1649577967,1.0894097922,
 1.6502875932\C,0,5.9607219015,2.5887398122,3.078060922\H,0,5.616083735
 ,3.6106074741,2.8845721699\C,0,7.5076466911,2.5236874917,3.0080550963\
 C,0,5.3927704343,2.1109479396,4.4509338804\H,0,5.6156505113,1.05064297
 75,4.5859268741\H,0,4.3038295154,2.2350497146,4.4043619996\O,0,8.05752
 19363,1.5481663717,2.4972510621\C,0,5.9452527366,2.8426400094,5.660018
 3708\N,0,5.8136604601,4.1938129103,5.7143158522\H,0,5.3936442074,4.669
 1230877,4.9246470039\H,0,6.6064943481,4.6887171334,6.1311506322\O,0,6.
 496809806,2.2092211298,6.5764129424\N,0,8.1312176001,3.5951904911,3.52
 94105839\H,0,7.5960208832,4.2945188795,4.0333679541\C,0,9.5563643257,3
 .6975951871,3.8382038963\H,0,9.9708711949,2.6851739238,3.8496993487\C,
 0,9.6067429176,4.3053958445,5.264690705\C,0,10.3087450154,4.5297332426
 ,2.754572943\H,0,9.9773714239,4.0887485975,1.8037842185\O,0,8.59960094
 49,4.9104204052,5.7070739279\C,0,9.8986414336,6.0093315997,2.763003388
 5\H,0,10.2196128473,6.5082731047,3.6843159234\H,0,10.3668631939,6.5339
 027036,1.9230428955\H,0,8.8133899183,6.1348969059,2.6687792564\C,0,11.
 834411161,4.3668650299,2.8358012486\H,0,12.2691479366,4.8033853406,3.7
 416212624\H,0,12.3013360383,4.8594675884,1.9752103618\H,0,12.123028868
 9,3.3088622841,2.8025725852\N,0,10.7357293946,4.1268745924,5.939199081
 9\H,0,11.6279391046,3.8599232897,5.4787211638\C,0,11.1124313756,4.8208
 706349,7.1700880325\H,0,10.5644575636,5.7664192455,7.2330142317\C,0,12
 .6720107089,5.0990973229,7.0552281274\C,0,10.8459635468,3.9789400453,8
 .4248595767\H,0,11.1121356126,4.6002954227,9.2867929838\H,0,11.5326357
 901,3.1205623541,8.432638311\O,0,13.1535038366,5.7318615367,8.00466673
 67\C,0,9.4088701578,3.4580050993,8.5197519527\H,0,9.2195342071,2.79721
 72284,7.6632403933\H,0,8.7162458786,4.3045144394,8.4082710505\C,0,9.11
 94449706,2.6976398448,9.822491176\H,0,9.9467034036,2.0147818127,10.052
 6386772\H,0,9.0551955531,3.3926798943,10.6713153392\C,0,7.8557400468,1
 .8439223426,9.757364417\H,0,7.9705781217,0.9995050736,9.0732410868\H,0
 ,7.5534336139,1.4683353759,10.7385073823\N,0,6.6872217982,2.6454297519
 ,9.2029040717\H,0,5.7907293617,2.2250233656,9.4619319276\H,0,6.7073516
 366,2.6662887687,8.131812931\H,0,6.6997280517,3.605544684,9.5593630293
 \O,0,13.2055112685,4.5911069538,6.0258116791\H,0,-8.3706730788,1.18274
 1149,-4.9815167124\\Version=ES64L-G16RevC.01\HF=-3473.7240662\RMSD=4.5
 56e-10\Dipole=-22.3466413,-7.8318108,-10.3372018\Quadrupole=-120.31876
 71,-143.4218679,263.740635,-1.3354676,202.7331067,61.8685177\PG=C01 [X
 (C45H81N12O14)]\\@
 The archive entry for this job was punched.


 SOME PHYSICISTS WOULD PREFER TO COME BACK TO THE IDEA OF AN OBJECTIVE
 REAL WORLD WHOSE SMALLEST PARTS EXIST OBJECTIVELY IN THE SAME SENSE AS
 STONES OR TREES EXIST INDEPENDENTLY OF WHETHER WE OBSERVE THEM.
 THIS, HOWEVER, IS IMPOSSIBLE.  -- WERNER HEISENBERG
 Job cpu time:       0 days  0 hours 10 minutes 17.9 seconds.
 Elapsed time:       0 days  0 hours  2 minutes 36.0 seconds.
 File lengths (MBytes):  RWF=    896 Int=      0 D2E=      0 Chk=    144 Scr=     16
 Normal termination of Gaussian 16 at Mon Jul 11 13:01:42 2022.
