 Entering Gaussian System, Link 0=/opt/software/Gaussian/g16-AVX2-C.01/g16/g16
 Input=charge-conf-102.com
 Output=charge-conf-102.log
 Initial command:
 /opt/software/Gaussian/g16-AVX2-C.01/g16/l1.exe "/mnt/gs18/scratch/users/kengmith/Gau-1485.inp" -scrdir="/mnt/gs18/scratch/users/kengmith/"
 Entering Link 1 = /opt/software/Gaussian/g16-AVX2-C.01/g16/l1.exe PID=      1495.
  
 Copyright (c) 1988-2019, Gaussian, Inc.  All Rights Reserved.
  
 This is part of the Gaussian(R) 16 program.  It is based on
 the Gaussian(R) 09 system (copyright 2009, Gaussian, Inc.),
 the Gaussian(R) 03 system (copyright 2003, Gaussian, Inc.),
 the Gaussian(R) 98 system (copyright 1998, Gaussian, Inc.),
 the Gaussian(R) 94 system (copyright 1995, Gaussian, Inc.),
 the Gaussian 92(TM) system (copyright 1992, Gaussian, Inc.),
 the Gaussian 90(TM) system (copyright 1990, Gaussian, Inc.),
 the Gaussian 88(TM) system (copyright 1988, Gaussian, Inc.),
 the Gaussian 86(TM) system (copyright 1986, Carnegie Mellon
 University), and the Gaussian 82(TM) system (copyright 1983,
 Carnegie Mellon University). Gaussian is a federally registered
 trademark of Gaussian, Inc.
  
 This software contains proprietary and confidential information,
 including trade secrets, belonging to Gaussian, Inc.
  
 This software is provided under written license and may be
 used, copied, transmitted, or stored only in accord with that
 written license.
  
 The following legend is applicable only to US Government
 contracts under FAR:
  
                    RESTRICTED RIGHTS LEGEND
  
 Use, reproduction and disclosure by the US Government is
 subject to restrictions as set forth in subparagraphs (a)
 and (c) of the Commercial Computer Software - Restricted
 Rights clause in FAR 52.227-19.
  
 Gaussian, Inc.
 340 Quinnipiac St., Bldg. 40, Wallingford CT 06492
  
  
 ---------------------------------------------------------------
 Warning -- This program may not be used in any manner that
 competes with the business of Gaussian, Inc. or will provide
 assistance to any competitor of Gaussian, Inc.  The licensee
 of this program is prohibited from giving any competitor of
 Gaussian, Inc. access to this program.  By using this program,
 the user acknowledges that Gaussian, Inc. is engaged in the
 business of creating and licensing software in the field of
 computational chemistry and represents and warrants to the
 licensee that it is not a competitor of Gaussian, Inc. and that
 it will not use this program in any manner prohibited above.
 ---------------------------------------------------------------
  

 Cite this work as:
 Gaussian 16, Revision C.01,
 M. J. Frisch, G. W. Trucks, H. B. Schlegel, G. E. Scuseria, 
 M. A. Robb, J. R. Cheeseman, G. Scalmani, V. Barone, 
 G. A. Petersson, H. Nakatsuji, X. Li, M. Caricato, A. V. Marenich, 
 J. Bloino, B. G. Janesko, R. Gomperts, B. Mennucci, H. P. Hratchian, 
 J. V. Ortiz, A. F. Izmaylov, J. L. Sonnenberg, D. Williams-Young, 
 F. Ding, F. Lipparini, F. Egidi, J. Goings, B. Peng, A. Petrone, 
 T. Henderson, D. Ranasinghe, V. G. Zakrzewski, J. Gao, N. Rega, 
 G. Zheng, W. Liang, M. Hada, M. Ehara, K. Toyota, R. Fukuda, 
 J. Hasegawa, M. Ishida, T. Nakajima, Y. Honda, O. Kitao, H. Nakai, 
 T. Vreven, K. Throssell, J. A. Montgomery, Jr., J. E. Peralta, 
 F. Ogliaro, M. J. Bearpark, J. J. Heyd, E. N. Brothers, K. N. Kudin, 
 V. N. Staroverov, T. A. Keith, R. Kobayashi, J. Normand, 
 K. Raghavachari, A. P. Rendell, J. C. Burant, S. S. Iyengar, 
 J. Tomasi, M. Cossi, J. M. Millam, M. Klene, C. Adamo, R. Cammi, 
 J. W. Ochterski, R. L. Martin, K. Morokuma, O. Farkas, 
 J. B. Foresman, and D. J. Fox, Gaussian, Inc., Wallingford CT, 2019.
 
 ******************************************
 Gaussian 16:  ES64L-G16RevC.01  3-Jul-2019
                14-Jul-2022 
 ******************************************
 %mem=8gb
 %nproc=4
 Will use up to    4 processors via shared memory.
 %chk=conf-102.chk
 ----------------------------------------------------------------------
 # B3LYP/6-31G* empiricaldispersion=gd3bj guess=read geom=check nosymm 
 integral(ultrafinegrid)
 ----------------------------------------------------------------------
 1/29=2,38=1,172=1/1;
 2/12=2,15=1,40=1/2;
 3/5=1,6=6,7=1,11=2,14=-4,25=1,30=1,74=-5,75=-5,116=-2,124=41/1,2,3;
 4/5=1/1;
 5/5=2,38=6/2;
 6/7=2,8=2,9=2,10=2,28=1/1;
 99/5=1,9=1/99;
 ------------------------------------------------------
 Candidate Structure: Conf:102 Charge calc in gas phase
 ------------------------------------------------------
 Structure from the checkpoint file:  "conf-102.chk"
 Charge =  1 Multiplicity = 1
 Redundant internal coordinates found in file.  (old form).
 N,0,-6.3716773914,4.1514112032,5.2073082755
 H,0,-5.8693937254,4.0027052821,6.0868064751
 H,0,-7.3670897004,4.262659572,5.4143326858
 H,0,-5.9671381777,5.0102972583,4.7261747391
 C,0,-6.0986593995,3.0735580706,4.176023806
 H,0,-5.7346283225,2.1834588453,4.695460661
 C,0,-4.9885616159,3.7407725971,3.3215621722
 C,0,-7.3907366375,2.7484981276,3.3891290724
 H,0,-7.7198176449,3.6813439075,2.9093934401
 O,0,-4.8868604539,4.9764058263,3.3903901951
 C,0,-7.1205641498,1.7072587219,2.2919042775
 H,0,-6.7181203729,0.7791944882,2.716351939
 H,0,-8.0610440831,1.456406092,1.7941445884
 H,0,-6.4283211532,2.0641552926,1.5274229077
 C,0,-8.4980662132,2.2406153308,4.3273857353
 H,0,-8.1865350248,1.3256432902,4.8442553984
 H,0,-8.8140395341,2.9674934072,5.0880118909
 H,0,-9.3931424337,2.0061409064,3.7450895566
 N,0,-4.2344797063,2.9422332079,2.5821337828
 H,0,-4.4040186272,1.9371885044,2.5092317668
 C,0,-3.2325852481,3.3960897126,1.6287873803
 H,0,-3.5625876064,4.3233846694,1.1527910057
 C,0,-3.0956790781,2.2544674341,0.6201582548
 C,0,-1.8637211864,3.6510660943,2.3347568604
 H,0,-1.5971786969,2.7481327773,2.8995684299
 H,0,-2.0074547781,4.4772756231,3.0381277684
 O,0,-3.5806576151,1.1467255315,0.8674239915
 O,0,-0.8648098878,4.0091539501,1.4145672634
 H,0,-0.410556959,3.1742535207,1.1524060987
 N,0,-2.3635690929,2.5396467218,-0.4810185914
 H,0,-1.8399877112,3.4097944237,-0.4177222835
 C,0,-1.6797187401,1.444204411,-1.1657820365
 H,0,-2.4356457913,0.721963107,-1.4839841998
 C,0,-0.7238172855,0.7767086821,-0.156978124
 C,0,-0.9045369284,1.9784446964,-2.3711522612
 H,0,-0.400200306,1.1611281434,-2.893842276
 H,0,-0.1397110969,2.6946689272,-2.0520912274
 H,0,-1.5830083549,2.4738940112,-3.0712973621
 O,0,-0.1326948141,1.4519993828,0.7008412544
 N,0,-0.5839275986,-0.5465542902,-0.2797635111
 H,0,-0.997799488,-1.0438824102,-1.062913045
 C,0,0.3504523337,-1.3473969404,0.501172501
 H,0,1.0493125806,-0.6571041483,0.9766151736
 C,0,1.0778842213,-2.2304641665,-0.5244331096
 C,0,-0.3813932523,-2.2039163988,1.5505505131
 H,0,-1.0173975428,-2.9189917075,1.0129096405
 H,0,0.3706251828,-2.7958306662,2.0899541459
 O,0,0.4846243712,-2.611270368,-1.5370622554
 C,0,-1.2343748299,-1.409606628,2.5546802141
 H,0,-1.9408996377,-0.7934971404,1.9818204701
 C,0,-2.0478187863,-2.3812760688,3.4192991798
 H,0,-1.3881160528,-3.0273544945,4.0119170671
 H,0,-2.692642375,-1.8374315304,4.1200871091
 H,0,-2.6857424288,-3.0275267309,2.8055094953
 C,0,-0.3861539629,-0.4781440471,3.4305217979
 H,0,0.3663647714,-1.045711879,3.9929370385
 H,0,-1.0182205879,0.0399821141,4.1630348286
 H,0,0.1250775309,0.2834886947,2.835577699
 N,0,2.3592410101,-2.5060364342,-0.23587132
 H,0,2.8121713496,-2.0957558053,0.57767559
 C,0,3.308631406,-3.0599883343,-1.1822940564
 H,0,3.0083904414,-4.0756303512,-1.465320302
 C,0,4.6473237143,-3.1071235301,-0.4233111934
 C,0,3.4126238817,-2.1943286294,-2.4771982442
 H,0,2.451638779,-2.2791477747,-2.989680115
 H,0,4.170846141,-2.634372047,-3.1342941836
 O,0,4.7593064156,-2.611644747,0.6959517442
 C,0,3.7397505846,-0.7532565954,-2.1778164164
 C,0,2.721639152,0.160049527,-1.8666177897
 H,0,1.6860749586,-0.1564164757,-1.9426373387
 C,0,5.0637844447,-0.3067087687,-2.1168776691
 H,0,5.8713617887,-0.9827670027,-2.3825033097
 C,0,3.0063610186,1.4614849422,-1.469714828
 H,0,2.2171583269,2.156088686,-1.2013801364
 C,0,5.365688603,0.9998619038,-1.7366896105
 H,0,6.4022176759,1.3287625918,-1.6988018313
 O,0,4.5674800656,3.171917701,-1.0022828137
 H,0,5.5240116372,3.3314817654,-0.9903606574
 C,0,4.337660519,1.8845326179,-1.3983041981
 N,0,5.6598885816,-3.722554367,-1.0790879453
 H,0,5.5457206093,-3.9347258246,-2.0635152583
 C,0,7.0454733052,-3.6078232404,-0.6535641116
 H,0,7.0663604342,-3.0184579709,0.2632721406
 C,0,7.8419699354,-2.8943916448,-1.7347272536
 C,0,7.6619581178,-5.0166292726,-0.3982616563
 H,0,7.3016087018,-5.3459070185,0.5815963002
 H,0,7.2305428616,-5.70645539,-1.1343462016
 O,0,8.9206398487,-2.2978046346,-1.2512374441
 C,0,9.2014142676,-5.1015827298,-0.4662305552
 H,0,9.5292516783,-5.9345639963,0.1650911673
 H,0,9.6347597354,-4.196756831,-0.0314157159
 C,0,9.7464504889,-5.3272017488,-1.9032570796
 H,0,9.9172042234,-6.4003792279,-2.0443308279
 H,0,8.9878069642,-5.0548812321,-2.6463743359
 C,0,11.048751577,-4.5862449994,-2.2573449243
 H,0,11.6335415448,-5.1863641595,-2.9674750994
 H,0,11.6674363837,-4.4533742594,-1.3632981278
 N,0,10.7837107217,-3.2359479677,-2.8191962748
 H,0,11.6607017906,-2.747487149,-2.9941099634
 H,0,10.3118381878,-3.3269450047,-3.7193251225
 H,0,9.6888424417,-2.4201556288,-1.9352785733
 O,0,7.5501883218,-2.9780323367,-2.9206818017
 Recover connectivity data from disk.
                           ----------------------------
                           !    Current Parameters    !
                           ! (Angstroms and Degrees)  !
 --------------------------                            --------------------------
 ! Name  Definition              Value                                          !
 --------------------------------------------------------------------------------
 ! R1    R(1,2)                  1.0237                                         !
 ! R2    R(1,3)                  1.0228                                         !
 ! R3    R(1,4)                  1.0643                                         !
 ! R4    R(1,5)                  1.5165                                         !
 ! R5    R(5,6)                  1.093                                          !
 ! R6    R(5,7)                  1.5516                                         !
 ! R7    R(5,8)                  1.5474                                         !
 ! R8    R(7,10)                 1.2417                                         !
 ! R9    R(7,19)                 1.324                                          !
 ! R10   R(8,9)                  1.0994                                         !
 ! R11   R(8,11)                 1.5366                                         !
 ! R12   R(8,15)                 1.5377                                         !
 ! R13   R(11,12)                1.097                                          !
 ! R14   R(11,13)                1.0932                                         !
 ! R15   R(11,14)                1.0913                                         !
 ! R16   R(15,16)                1.0961                                         !
 ! R17   R(15,17)                1.0985                                         !
 ! R18   R(15,18)                1.0933                                         !
 ! R19   R(19,20)                1.0218                                         !
 ! R20   R(19,21)                1.4556                                         !
 ! R21   R(21,22)                1.0933                                         !
 ! R22   R(21,23)                1.5295                                         !
 ! R23   R(21,24)                1.5612                                         !
 ! R24   R(23,27)                1.2343                                         !
 ! R25   R(23,30)                1.3527                                         !
 ! R26   R(24,25)                1.0979                                         !
 ! R27   R(24,26)                1.0945                                         !
 ! R28   R(24,28)                1.4046                                         !
 ! R29   R(28,29)                0.986                                          !
 ! R30   R(30,31)                1.0175                                         !
 ! R31   R(30,32)                1.4617                                         !
 ! R32   R(32,33)                1.0928                                         !
 ! R33   R(32,34)                1.5417                                         !
 ! R34   R(32,35)                1.5295                                         !
 ! R35   R(34,39)                1.2415                                         !
 ! R36   R(34,40)                1.3363                                         !
 ! R37   R(35,36)                1.0934                                         !
 ! R38   R(35,37)                1.0953                                         !
 ! R39   R(35,38)                1.0936                                         !
 ! R40   R(40,41)                1.0158                                         !
 ! R41   R(40,42)                1.4575                                         !
 ! R42   R(42,43)                1.0913                                         !
 ! R43   R(42,44)                1.5365                                         !
 ! R44   R(42,45)                1.5396                                         !
 ! R45   R(44,48)                1.2339                                         !
 ! R46   R(44,59)                1.342                                          !
 ! R47   R(45,46)                1.0977                                         !
 ! R48   R(45,47)                1.0986                                         !
 ! R49   R(45,49)                1.5384                                         !
 ! R50   R(49,50)                1.0986                                         !
 ! R51   R(49,51)                1.5341                                         !
 ! R52   R(49,55)                1.5343                                         !
 ! R53   R(51,52)                1.0972                                         !
 ! R54   R(51,53)                1.0967                                         !
 ! R55   R(51,54)                1.096                                          !
 ! R56   R(55,56)                1.0976                                         !
 ! R57   R(55,57)                1.0975                                         !
 ! R58   R(55,58)                1.0933                                         !
 ! R59   R(59,60)                1.0175                                         !
 ! R60   R(59,61)                1.4505                                         !
 ! R61   R(61,62)                1.0963                                         !
 ! R62   R(61,63)                1.5396                                         !
 ! R63   R(61,64)                1.5611                                         !
 ! R64   R(63,67)                1.2291                                         !
 ! R65   R(63,80)                1.3543                                         !
 ! R66   R(64,65)                1.0924                                         !
 ! R67   R(64,66)                1.0956                                         !
 ! R68   R(64,68)                1.5078                                         !
 ! R69   R(68,69)                1.4027                                         !
 ! R70   R(68,71)                1.3986                                         !
 ! R71   R(69,70)                1.0855                                         !
 ! R72   R(69,73)                1.3901                                         !
 ! R73   R(71,72)                1.0862                                         !
 ! R74   R(71,75)                1.3938                                         !
 ! R75   R(73,74)                1.085                                          !
 ! R76   R(73,79)                1.3987                                         !
 ! R77   R(75,76)                1.0881                                         !
 ! R78   R(75,79)                1.3979                                         !
 ! R79   R(77,78)                0.9698                                         !
 ! R80   R(77,79)                1.3664                                         !
 ! R81   R(80,81)                1.0135                                         !
 ! R82   R(80,82)                1.454                                          !
 ! R83   R(82,83)                1.0901                                         !
 ! R84   R(82,84)                1.5206                                         !
 ! R85   R(82,85)                1.5588                                         !
 ! R86   R(84,88)                1.3241                                         !
 ! R87   R(84,102)               1.2242                                         !
 ! R88   R(85,86)                1.0947                                         !
 ! R89   R(85,87)                1.0972                                         !
 ! R90   R(85,89)                1.5433                                         !
 ! R91   R(89,90)                1.0954                                         !
 ! R92   R(89,91)                1.0934                                         !
 ! R93   R(89,92)                1.5534                                         !
 ! R94   R(92,93)                1.0958                                         !
 ! R95   R(92,94)                1.0963                                         !
 ! R96   R(92,95)                1.5396                                         !
 ! R97   R(95,96)                1.0984                                         !
 ! R98   R(95,97)                1.0953                                         !
 ! R99   R(95,98)                1.4863                                         !
 ! R100  R(98,99)                1.019                                          !
 ! R101  R(98,100)               1.0204                                         !
 ! R102  R(98,101)               1.6265                                         !
 ! A1    A(2,1,3)              108.6286                                         !
 ! A2    A(2,1,4)              108.6091                                         !
 ! A3    A(2,1,5)              113.1208                                         !
 ! A4    A(3,1,4)              111.9402                                         !
 ! A5    A(3,1,5)              112.9648                                         !
 ! A6    A(4,1,5)              101.4029                                         !
 ! A7    A(1,5,6)              108.3962                                         !
 ! A8    A(1,5,7)              101.4                                            !
 ! A9    A(1,5,8)              110.1697                                         !
 ! A10   A(6,5,7)              111.9386                                         !
 ! A11   A(6,5,8)              110.4088                                         !
 ! A12   A(7,5,8)              114.0598                                         !
 ! A13   A(5,7,10)             117.1273                                         !
 ! A14   A(5,7,19)             117.1075                                         !
 ! A15   A(10,7,19)            125.7652                                         !
 ! A16   A(5,8,9)              107.0741                                         !
 ! A17   A(5,8,11)             111.0183                                         !
 ! A18   A(5,8,15)             111.1254                                         !
 ! A19   A(9,8,11)             108.4223                                         !
 ! A20   A(9,8,15)             109.3272                                         !
 ! A21   A(11,8,15)            109.7862                                         !
 ! A22   A(8,11,12)            111.1922                                         !
 ! A23   A(8,11,13)            109.2292                                         !
 ! A24   A(8,11,14)            112.9627                                         !
 ! A25   A(12,11,13)           107.3157                                         !
 ! A26   A(12,11,14)           108.3608                                         !
 ! A27   A(13,11,14)           107.5639                                         !
 ! A28   A(8,15,16)            111.0252                                         !
 ! A29   A(8,15,17)            114.2726                                         !
 ! A30   A(8,15,18)            109.5988                                         !
 ! A31   A(16,15,17)           107.9144                                         !
 ! A32   A(16,15,18)           107.7481                                         !
 ! A33   A(17,15,18)           105.9749                                         !
 ! A34   A(7,19,20)            122.5846                                         !
 ! A35   A(7,19,21)            124.7326                                         !
 ! A36   A(20,19,21)           111.9722                                         !
 ! A37   A(19,21,22)           109.9898                                         !
 ! A38   A(19,21,23)           105.1173                                         !
 ! A39   A(19,21,24)           110.9949                                         !
 ! A40   A(22,21,23)           111.899                                          !
 ! A41   A(22,21,24)           108.8452                                         !
 ! A42   A(23,21,24)           109.9763                                         !
 ! A43   A(21,23,27)           120.1723                                         !
 ! A44   A(21,23,30)           115.3347                                         !
 ! A45   A(27,23,30)           124.3978                                         !
 ! A46   A(21,24,25)           108.1312                                         !
 ! A47   A(21,24,26)           107.382                                          !
 ! A48   A(21,24,28)           111.652                                          !
 ! A49   A(25,24,26)           108.7896                                         !
 ! A50   A(25,24,28)           111.966                                          !
 ! A51   A(26,24,28)           108.7812                                         !
 ! A52   A(24,28,29)           106.6169                                         !
 ! A53   A(23,30,31)           114.088                                          !
 ! A54   A(23,30,32)           118.4611                                         !
 ! A55   A(31,30,32)           115.4233                                         !
 ! A56   A(30,32,33)           107.9435                                         !
 ! A57   A(30,32,34)           107.939                                          !
 ! A58   A(30,32,35)           110.1543                                         !
 ! A59   A(33,32,34)           109.4666                                         !
 ! A60   A(33,32,35)           110.607                                          !
 ! A61   A(34,32,35)           110.6502                                         !
 ! A62   A(32,34,39)           120.7857                                         !
 ! A63   A(32,34,40)           115.6905                                         !
 ! A64   A(39,34,40)           123.5234                                         !
 ! A65   A(32,35,36)           110.4517                                         !
 ! A66   A(32,35,37)           110.655                                          !
 ! A67   A(32,35,38)           110.3872                                         !
 ! A68   A(36,35,37)           107.8154                                         !
 ! A69   A(36,35,38)           108.5875                                         !
 ! A70   A(37,35,38)           108.8717                                         !
 ! A71   A(34,40,41)           120.8628                                         !
 ! A72   A(34,40,42)           124.1935                                         !
 ! A73   A(41,40,42)           113.9073                                         !
 ! A74   A(40,42,43)           107.2426                                         !
 ! A75   A(40,42,44)           105.1684                                         !
 ! A76   A(40,42,45)           111.4779                                         !
 ! A77   A(43,42,44)           110.5581                                         !
 ! A78   A(43,42,45)           111.0606                                         !
 ! A79   A(44,42,45)           111.1165                                         !
 ! A80   A(42,44,48)           119.8387                                         !
 ! A81   A(42,44,59)           115.2467                                         !
 ! A82   A(48,44,59)           124.9016                                         !
 ! A83   A(42,45,46)           107.6975                                         !
 ! A84   A(42,45,47)           108.0                                            !
 ! A85   A(42,45,49)           114.9095                                         !
 ! A86   A(46,45,47)           106.6261                                         !
 ! A87   A(46,45,49)           109.5595                                         !
 ! A88   A(47,45,49)           109.7099                                         !
 ! A89   A(45,49,50)           107.8051                                         !
 ! A90   A(45,49,51)           109.5625                                         !
 ! A91   A(45,49,55)           112.3029                                         !
 ! A92   A(50,49,51)           107.9443                                         !
 ! A93   A(50,49,55)           108.2235                                         !
 ! A94   A(51,49,55)           110.8504                                         !
 ! A95   A(49,51,52)           111.0123                                         !
 ! A96   A(49,51,53)           110.9671                                         !
 ! A97   A(49,51,54)           111.497                                          !
 ! A98   A(52,51,53)           107.4818                                         !
 ! A99   A(52,51,54)           107.7717                                         !
 ! A100  A(53,51,54)           107.9404                                         !
 ! A101  A(49,55,56)           110.9525                                         !
 ! A102  A(49,55,57)           110.4387                                         !
 ! A103  A(49,55,58)           111.7632                                         !
 ! A104  A(56,55,57)           107.2756                                         !
 ! A105  A(56,55,58)           108.57                                           !
 ! A106  A(57,55,58)           107.6743                                         !
 ! A107  A(44,59,60)           120.9389                                         !
 ! A108  A(44,59,61)           124.2675                                         !
 ! A109  A(60,59,61)           112.602                                          !
 ! A110  A(59,61,62)           110.0608                                         !
 ! A111  A(59,61,63)           105.0198                                         !
 ! A112  A(59,61,64)           111.9043                                         !
 ! A113  A(62,61,63)           109.6972                                         !
 ! A114  A(62,61,64)           108.5323                                         !
 ! A115  A(63,61,64)           111.5907                                         !
 ! A116  A(61,63,67)           121.0496                                         !
 ! A117  A(61,63,80)           115.1703                                         !
 ! A118  A(67,63,80)           123.78                                           !
 ! A119  A(61,64,65)           106.7076                                         !
 ! A120  A(61,64,66)           108.7161                                         !
 ! A121  A(61,64,68)           112.3182                                         !
 ! A122  A(65,64,66)           107.233                                          !
 ! A123  A(65,64,68)           110.9913                                         !
 ! A124  A(66,64,68)           110.6601                                         !
 ! A125  A(64,68,69)           120.5899                                         !
 ! A126  A(64,68,71)           121.2782                                         !
 ! A127  A(69,68,71)           118.0061                                         !
 ! A128  A(68,69,70)           119.1486                                         !
 ! A129  A(68,69,73)           121.6191                                         !
 ! A130  A(70,69,73)           119.2316                                         !
 ! A131  A(68,71,72)           119.6346                                         !
 ! A132  A(68,71,75)           121.0784                                         !
 ! A133  A(72,71,75)           119.2819                                         !
 ! A134  A(69,73,74)           121.3974                                         !
 ! A135  A(69,73,79)           119.5177                                         !
 ! A136  A(74,73,79)           119.0807                                         !
 ! A137  A(71,75,76)           119.9447                                         !
 ! A138  A(71,75,79)           119.999                                          !
 ! A139  A(76,75,79)           120.0556                                         !
 ! A140  A(78,77,79)           108.9334                                         !
 ! A141  A(73,79,75)           119.7495                                         !
 ! A142  A(73,79,77)           117.3774                                         !
 ! A143  A(75,79,77)           122.8712                                         !
 ! A144  A(63,80,81)           118.7672                                         !
 ! A145  A(63,80,82)           122.3392                                         !
 ! A146  A(81,80,82)           114.0879                                         !
 ! A147  A(80,82,83)           107.882                                          !
 ! A148  A(80,82,84)           109.1531                                         !
 ! A149  A(80,82,85)           110.701                                          !
 ! A150  A(83,82,84)           109.5293                                         !
 ! A151  A(83,82,85)           110.0772                                         !
 ! A152  A(84,82,85)           109.4699                                         !
 ! A153  A(82,84,88)           112.2396                                         !
 ! A154  A(82,84,102)          122.1336                                         !
 ! A155  A(88,84,102)          125.3593                                         !
 ! A156  A(82,85,86)           106.7534                                         !
 ! A157  A(82,85,87)           107.628                                          !
 ! A158  A(82,85,89)           115.9145                                         !
 ! A159  A(86,85,87)           106.3769                                         !
 ! A160  A(86,85,89)           110.5617                                         !
 ! A161  A(87,85,89)           109.1517                                         !
 ! A162  A(85,89,90)           108.3619                                         !
 ! A163  A(85,89,91)           109.4066                                         !
 ! A164  A(85,89,92)           113.4991                                         !
 ! A165  A(90,89,91)           106.3481                                         !
 ! A166  A(90,89,92)           108.5244                                         !
 ! A167  A(91,89,92)           110.4269                                         !
 ! A168  A(89,92,93)           108.4222                                         !
 ! A169  A(89,92,94)           110.3759                                         !
 ! A170  A(89,92,95)           116.0814                                         !
 ! A171  A(93,92,94)           105.2977                                         !
 ! A172  A(93,92,95)           108.054                                          !
 ! A173  A(94,92,95)           108.053                                          !
 ! A174  A(92,95,96)           109.6393                                         !
 ! A175  A(92,95,97)           110.3917                                         !
 ! A176  A(92,95,98)           111.9203                                         !
 ! A177  A(96,95,97)           107.0539                                         !
 ! A178  A(96,95,98)           110.2983                                         !
 ! A179  A(97,95,98)           107.4012                                         !
 ! A180  A(95,98,99)           110.2982                                         !
 ! A181  A(95,98,100)          109.5668                                         !
 ! A182  A(95,98,101)          111.7313                                         !
 ! A183  A(99,98,100)          106.8181                                         !
 ! A184  A(99,98,101)          115.6072                                         !
 ! A185  A(100,98,101)         102.2886                                         !
 ! D1    D(2,1,5,6)             21.1391                                         !
 ! D2    D(2,1,5,7)            -96.812                                          !
 ! D3    D(2,1,5,8)            142.0479                                         !
 ! D4    D(3,1,5,6)           -102.7891                                         !
 ! D5    D(3,1,5,7)            139.2598                                         !
 ! D6    D(3,1,5,8)             18.1197                                         !
 ! D7    D(4,1,5,6)            137.2481                                         !
 ! D8    D(4,1,5,7)             19.297                                          !
 ! D9    D(4,1,5,8)           -101.8431                                         !
 ! D10   D(1,5,7,10)           -19.9026                                         !
 ! D11   D(1,5,7,19)           160.1791                                         !
 ! D12   D(6,5,7,10)          -135.2614                                         !
 ! D13   D(6,5,7,19)            44.8203                                         !
 ! D14   D(8,5,7,10)            98.472                                          !
 ! D15   D(8,5,7,19)           -81.4462                                         !
 ! D16   D(1,5,8,9)             59.0514                                         !
 ! D17   D(1,5,8,11)           177.2265                                         !
 ! D18   D(1,5,8,15)           -60.2786                                         !
 ! D19   D(6,5,8,9)            178.7472                                         !
 ! D20   D(6,5,8,11)           -63.0778                                         !
 ! D21   D(6,5,8,15)            59.4171                                         !
 ! D22   D(7,5,8,9)            -54.1903                                         !
 ! D23   D(7,5,8,11)            63.9848                                         !
 ! D24   D(7,5,8,15)          -173.5203                                         !
 ! D25   D(5,7,19,20)            4.4888                                         !
 ! D26   D(5,7,19,21)          174.0448                                         !
 ! D27   D(10,7,19,20)        -175.4215                                         !
 ! D28   D(10,7,19,21)          -5.8656                                         !
 ! D29   D(5,8,11,12)           58.4785                                         !
 ! D30   D(5,8,11,13)          176.7289                                         !
 ! D31   D(5,8,11,14)          -63.608                                          !
 ! D32   D(9,8,11,12)          175.8339                                         !
 ! D33   D(9,8,11,13)          -65.9157                                         !
 ! D34   D(9,8,11,14)           53.7473                                         !
 ! D35   D(15,8,11,12)         -64.7891                                         !
 ! D36   D(15,8,11,13)          53.4613                                         !
 ! D37   D(15,8,11,14)         173.1243                                         !
 ! D38   D(5,8,15,16)          -60.3232                                         !
 ! D39   D(5,8,15,17)           62.0085                                         !
 ! D40   D(5,8,15,18)         -179.2386                                         !
 ! D41   D(9,8,15,16)         -178.2973                                         !
 ! D42   D(9,8,15,17)          -55.9656                                         !
 ! D43   D(9,8,15,18)           62.7873                                         !
 ! D44   D(11,8,15,16)          62.8815                                         !
 ! D45   D(11,8,15,17)        -174.7868                                         !
 ! D46   D(11,8,15,18)         -56.0339                                         !
 ! D47   D(7,19,21,22)         -34.6851                                         !
 ! D48   D(7,19,21,23)        -155.3075                                         !
 ! D49   D(7,19,21,24)          85.8297                                         !
 ! D50   D(20,19,21,22)        135.8348                                         !
 ! D51   D(20,19,21,23)         15.2123                                         !
 ! D52   D(20,19,21,24)       -103.6504                                         !
 ! D53   D(19,21,23,27)        -13.1869                                         !
 ! D54   D(19,21,23,30)        170.2069                                         !
 ! D55   D(22,21,23,27)       -132.5431                                         !
 ! D56   D(22,21,23,30)         50.8507                                         !
 ! D57   D(24,21,23,27)        106.3567                                         !
 ! D58   D(24,21,23,30)        -70.2496                                         !
 ! D59   D(19,21,24,25)         52.6908                                         !
 ! D60   D(19,21,24,26)        -64.5445                                         !
 ! D61   D(19,21,24,28)        176.2962                                         !
 ! D62   D(22,21,24,25)        173.881                                          !
 ! D63   D(22,21,24,26)         56.6458                                         !
 ! D64   D(22,21,24,28)        -62.5135                                         !
 ! D65   D(23,21,24,25)        -63.2042                                         !
 ! D66   D(23,21,24,26)        179.5606                                         !
 ! D67   D(23,21,24,28)         60.4013                                         !
 ! D68   D(21,23,30,31)         11.7193                                         !
 ! D69   D(21,23,30,32)        152.7285                                         !
 ! D70   D(27,23,30,31)       -164.7247                                         !
 ! D71   D(27,23,30,32)        -23.7155                                         !
 ! D72   D(21,24,28,29)        -92.5687                                         !
 ! D73   D(25,24,28,29)         28.8401                                         !
 ! D74   D(26,24,28,29)        149.1049                                         !
 ! D75   D(23,30,32,33)         59.5809                                         !
 ! D76   D(23,30,32,34)        -58.6504                                         !
 ! D77   D(23,30,32,35)       -179.5597                                         !
 ! D78   D(31,30,32,33)       -159.9128                                         !
 ! D79   D(31,30,32,34)         81.8559                                         !
 ! D80   D(31,30,32,35)        -39.0534                                         !
 ! D81   D(30,32,34,39)        -35.3999                                         !
 ! D82   D(30,32,34,40)        144.8067                                         !
 ! D83   D(33,32,34,39)       -152.6506                                         !
 ! D84   D(33,32,34,40)         27.5559                                         !
 ! D85   D(35,32,34,39)         85.1994                                         !
 ! D86   D(35,32,34,40)        -94.594                                          !
 ! D87   D(30,32,35,36)       -179.354                                          !
 ! D88   D(30,32,35,37)         61.3352                                         !
 ! D89   D(30,32,35,38)        -59.2532                                         !
 ! D90   D(33,32,35,36)        -60.1046                                         !
 ! D91   D(33,32,35,37)       -179.4154                                         !
 ! D92   D(33,32,35,38)         59.9962                                         !
 ! D93   D(34,32,35,36)         61.3749                                         !
 ! D94   D(34,32,35,37)        -57.9358                                         !
 ! D95   D(34,32,35,38)       -178.5242                                         !
 ! D96   D(32,34,40,41)          7.1865                                         !
 ! D97   D(32,34,40,42)        174.8221                                         !
 ! D98   D(39,34,40,41)       -172.6007                                         !
 ! D99   D(39,34,40,42)         -4.965                                          !
 ! D100  D(34,40,42,43)        -14.1664                                         !
 ! D101  D(34,40,42,44)       -131.8827                                         !
 ! D102  D(34,40,42,45)        107.6003                                         !
 ! D103  D(41,40,42,43)        154.2348                                         !
 ! D104  D(41,40,42,44)         36.5185                                         !
 ! D105  D(41,40,42,45)        -83.9985                                         !
 ! D106  D(40,42,44,48)        -32.18                                           !
 ! D107  D(40,42,44,59)        146.5685                                         !
 ! D108  D(43,42,44,48)       -147.6273                                         !
 ! D109  D(43,42,44,59)         31.1211                                         !
 ! D110  D(45,42,44,48)         88.5748                                         !
 ! D111  D(45,42,44,59)        -92.6767                                         !
 ! D112  D(40,42,45,46)         64.099                                          !
 ! D113  D(40,42,45,47)        178.9003                                         !
 ! D114  D(40,42,45,49)        -58.2885                                         !
 ! D115  D(43,42,45,46)       -176.3727                                         !
 ! D116  D(43,42,45,47)        -61.5713                                         !
 ! D117  D(43,42,45,49)         61.2399                                         !
 ! D118  D(44,42,45,46)        -52.8617                                         !
 ! D119  D(44,42,45,47)         61.9396                                         !
 ! D120  D(44,42,45,49)       -175.2491                                         !
 ! D121  D(42,44,59,60)         -3.9194                                         !
 ! D122  D(42,44,59,61)       -165.8335                                         !
 ! D123  D(48,44,59,60)        174.7569                                         !
 ! D124  D(48,44,59,61)         12.8428                                         !
 ! D125  D(42,45,49,50)         55.3889                                         !
 ! D126  D(42,45,49,51)        172.6172                                         !
 ! D127  D(42,45,49,55)        -63.7385                                         !
 ! D128  D(46,45,49,50)        -65.9894                                         !
 ! D129  D(46,45,49,51)         51.2389                                         !
 ! D130  D(46,45,49,55)        174.8832                                         !
 ! D131  D(47,45,49,50)        177.2782                                         !
 ! D132  D(47,45,49,51)        -65.4934                                         !
 ! D133  D(47,45,49,55)         58.1508                                         !
 ! D134  D(45,49,51,52)         62.5909                                         !
 ! D135  D(45,49,51,53)       -177.9492                                         !
 ! D136  D(45,49,51,54)        -57.5874                                         !
 ! D137  D(50,49,51,52)        179.7319                                         !
 ! D138  D(50,49,51,53)        -60.8083                                         !
 ! D139  D(50,49,51,54)         59.5535                                         !
 ! D140  D(55,49,51,52)        -61.9028                                         !
 ! D141  D(55,49,51,53)         57.5571                                         !
 ! D142  D(55,49,51,54)        177.9189                                         !
 ! D143  D(45,49,55,56)        -58.7383                                         !
 ! D144  D(45,49,55,57)       -177.5581                                         !
 ! D145  D(45,49,55,58)         62.5974                                         !
 ! D146  D(50,49,55,56)       -177.6203                                         !
 ! D147  D(50,49,55,57)         63.5599                                         !
 ! D148  D(50,49,55,58)        -56.2846                                         !
 ! D149  D(51,49,55,56)         64.1838                                         !
 ! D150  D(51,49,55,57)        -54.636                                          !
 ! D151  D(51,49,55,58)       -174.4805                                         !
 ! D152  D(44,59,61,62)        -65.6631                                         !
 ! D153  D(44,59,61,63)        176.3355                                         !
 ! D154  D(44,59,61,64)         55.1025                                         !
 ! D155  D(60,59,61,62)        131.1005                                         !
 ! D156  D(60,59,61,63)         13.0991                                         !
 ! D157  D(60,59,61,64)       -108.1339                                         !
 ! D158  D(59,61,63,67)         -6.4954                                         !
 ! D159  D(59,61,63,80)        173.5857                                         !
 ! D160  D(62,61,63,67)       -124.7428                                         !
 ! D161  D(62,61,63,80)         55.3384                                         !
 ! D162  D(64,61,63,67)        114.9431                                         !
 ! D163  D(64,61,63,80)        -64.9757                                         !
 ! D164  D(59,61,64,65)        -66.9953                                         !
 ! D165  D(59,61,64,66)        177.6463                                         !
 ! D166  D(59,61,64,68)         54.8426                                         !
 ! D167  D(62,61,64,65)         54.6536                                         !
 ! D168  D(62,61,64,66)        -60.7047                                         !
 ! D169  D(62,61,64,68)        176.4916                                         !
 ! D170  D(63,61,64,65)        175.6489                                         !
 ! D171  D(63,61,64,66)         60.2906                                         !
 ! D172  D(63,61,64,68)        -62.5132                                         !
 ! D173  D(61,63,80,81)         12.3259                                         !
 ! D174  D(61,63,80,82)        166.3096                                         !
 ! D175  D(67,63,80,81)       -167.5904                                         !
 ! D176  D(67,63,80,82)        -13.6067                                         !
 ! D177  D(61,64,68,69)        -85.3489                                         !
 ! D178  D(61,64,68,71)         90.4931                                         !
 ! D179  D(65,64,68,69)         34.0155                                         !
 ! D180  D(65,64,68,71)       -150.1425                                         !
 ! D181  D(66,64,68,69)        152.9498                                         !
 ! D182  D(66,64,68,71)        -31.2083                                         !
 ! D183  D(64,68,69,70)         -6.2141                                         !
 ! D184  D(64,68,69,73)        174.0988                                         !
 ! D185  D(71,68,69,70)        177.8107                                         !
 ! D186  D(71,68,69,73)         -1.8764                                         !
 ! D187  D(64,68,71,72)          5.9528                                         !
 ! D188  D(64,68,71,75)       -174.8841                                         !
 ! D189  D(69,68,71,72)       -178.1011                                         !
 ! D190  D(69,68,71,75)          1.0619                                         !
 ! D191  D(68,69,73,74)       -178.1538                                         !
 ! D192  D(68,69,73,79)          1.0958                                         !
 ! D193  D(70,69,73,74)          2.1594                                         !
 ! D194  D(70,69,73,79)       -178.5911                                         !
 ! D195  D(68,71,75,76)       -179.795                                          !
 ! D196  D(68,71,75,79)          0.5113                                         !
 ! D197  D(72,71,75,76)         -0.6291                                         !
 ! D198  D(72,71,75,79)        179.6773                                         !
 ! D199  D(69,73,79,75)          0.5297                                         !
 ! D200  D(69,73,79,77)       -179.9553                                         !
 ! D201  D(74,73,79,75)        179.7968                                         !
 ! D202  D(74,73,79,77)         -0.6883                                         !
 ! D203  D(71,75,79,73)         -1.3215                                         !
 ! D204  D(71,75,79,77)        179.1914                                         !
 ! D205  D(76,75,79,73)        178.9853                                         !
 ! D206  D(76,75,79,77)         -0.5019                                         !
 ! D207  D(78,77,79,73)        179.6289                                         !
 ! D208  D(78,77,79,75)         -0.8725                                         !
 ! D209  D(63,80,82,83)          3.1542                                         !
 ! D210  D(63,80,82,84)       -115.7863                                         !
 ! D211  D(63,80,82,85)        123.6536                                         !
 ! D212  D(81,80,82,83)        158.2459                                         !
 ! D213  D(81,80,82,84)         39.3054                                         !
 ! D214  D(81,80,82,85)        -81.2547                                         !
 ! D215  D(80,82,84,88)        155.3303                                         !
 ! D216  D(80,82,84,102)       -30.3144                                         !
 ! D217  D(83,82,84,88)         37.4203                                         !
 ! D218  D(83,82,84,102)      -148.2243                                         !
 ! D219  D(85,82,84,88)        -83.3585                                         !
 ! D220  D(85,82,84,102)        90.9969                                         !
 ! D221  D(80,82,85,86)        -78.5795                                         !
 ! D222  D(80,82,85,87)         35.2875                                         !
 ! D223  D(80,82,85,89)        157.7747                                         !
 ! D224  D(83,82,85,86)         40.6037                                         !
 ! D225  D(83,82,85,87)        154.4707                                         !
 ! D226  D(83,82,85,89)        -83.0421                                         !
 ! D227  D(84,82,85,86)        161.049                                          !
 ! D228  D(84,82,85,87)        -85.084                                          !
 ! D229  D(84,82,85,89)         37.4032                                         !
 ! D230  D(82,85,89,90)        153.2551                                         !
 ! D231  D(82,85,89,91)         37.7008                                         !
 ! D232  D(82,85,89,92)        -86.1251                                         !
 ! D233  D(86,85,89,90)         31.6173                                         !
 ! D234  D(86,85,89,91)        -83.937                                          !
 ! D235  D(86,85,89,92)        152.2372                                         !
 ! D236  D(87,85,89,90)        -85.0658                                         !
 ! D237  D(87,85,89,91)        159.3799                                         !
 ! D238  D(87,85,89,92)         35.5541                                         !
 ! D239  D(85,89,92,93)        -95.8719                                         !
 ! D240  D(85,89,92,94)         18.9854                                         !
 ! D241  D(85,89,92,95)        142.3433                                         !
 ! D242  D(90,89,92,93)         24.6562                                         !
 ! D243  D(90,89,92,94)        139.5135                                         !
 ! D244  D(90,89,92,95)        -97.1286                                         !
 ! D245  D(91,89,92,93)        140.8598                                         !
 ! D246  D(91,89,92,94)       -104.2829                                         !
 ! D247  D(91,89,92,95)         19.075                                          !
 ! D248  D(89,92,95,96)        147.8881                                         !
 ! D249  D(89,92,95,97)         30.1869                                         !
 ! D250  D(89,92,95,98)        -89.3846                                         !
 ! D251  D(93,92,95,96)         25.9082                                         !
 ! D252  D(93,92,95,97)        -91.793                                          !
 ! D253  D(93,92,95,98)        148.6356                                         !
 ! D254  D(94,92,95,96)        -87.5519                                         !
 ! D255  D(94,92,95,97)        154.7469                                         !
 ! D256  D(94,92,95,98)         35.1755                                         !
 ! D257  D(92,95,98,99)        176.7358                                         !
 ! D258  D(92,95,98,100)       -65.9504                                         !
 ! D259  D(92,95,98,101)        46.6827                                         !
 ! D260  D(96,95,98,99)        -60.9121                                         !
 ! D261  D(96,95,98,100)        56.4017                                         !
 ! D262  D(96,95,98,101)       169.0348                                         !
 ! D263  D(97,95,98,99)         55.4223                                         !
 ! D264  D(97,95,98,100)       172.736                                          !
 ! D265  D(97,95,98,101)       -74.6308                                         !
 --------------------------------------------------------------------------------
 Symmetry turned off by external request.
 Stoichiometry    C32H54N7O9(1+)
 Framework group  C1[X(C32H54N7O9)]
 Deg. of freedom   300
 Full point group                 C1      NOp   1
                          Input orientation:                          
 ---------------------------------------------------------------------
 Center     Atomic      Atomic             Coordinates (Angstroms)
 Number     Number       Type             X           Y           Z
 ---------------------------------------------------------------------
      1          7           0       -6.371677    4.151411    5.207308
      2          1           0       -5.869394    4.002705    6.086806
      3          1           0       -7.367090    4.262660    5.414333
      4          1           0       -5.967138    5.010297    4.726175
      5          6           0       -6.098659    3.073558    4.176024
      6          1           0       -5.734628    2.183459    4.695461
      7          6           0       -4.988562    3.740773    3.321562
      8          6           0       -7.390737    2.748498    3.389129
      9          1           0       -7.719818    3.681344    2.909393
     10          8           0       -4.886860    4.976406    3.390390
     11          6           0       -7.120564    1.707259    2.291904
     12          1           0       -6.718120    0.779194    2.716352
     13          1           0       -8.061044    1.456406    1.794145
     14          1           0       -6.428321    2.064155    1.527423
     15          6           0       -8.498066    2.240615    4.327386
     16          1           0       -8.186535    1.325643    4.844255
     17          1           0       -8.814040    2.967493    5.088012
     18          1           0       -9.393142    2.006141    3.745090
     19          7           0       -4.234480    2.942233    2.582134
     20          1           0       -4.404019    1.937189    2.509232
     21          6           0       -3.232585    3.396090    1.628787
     22          1           0       -3.562588    4.323385    1.152791
     23          6           0       -3.095679    2.254467    0.620158
     24          6           0       -1.863721    3.651066    2.334757
     25          1           0       -1.597179    2.748133    2.899568
     26          1           0       -2.007455    4.477276    3.038128
     27          8           0       -3.580658    1.146726    0.867424
     28          8           0       -0.864810    4.009154    1.414567
     29          1           0       -0.410557    3.174254    1.152406
     30          7           0       -2.363569    2.539647   -0.481019
     31          1           0       -1.839988    3.409794   -0.417722
     32          6           0       -1.679719    1.444204   -1.165782
     33          1           0       -2.435646    0.721963   -1.483984
     34          6           0       -0.723817    0.776709   -0.156978
     35          6           0       -0.904537    1.978445   -2.371152
     36          1           0       -0.400200    1.161128   -2.893842
     37          1           0       -0.139711    2.694669   -2.052091
     38          1           0       -1.583008    2.473894   -3.071297
     39          8           0       -0.132695    1.451999    0.700841
     40          7           0       -0.583928   -0.546554   -0.279764
     41          1           0       -0.997799   -1.043882   -1.062913
     42          6           0        0.350452   -1.347397    0.501173
     43          1           0        1.049313   -0.657104    0.976615
     44          6           0        1.077884   -2.230464   -0.524433
     45          6           0       -0.381393   -2.203916    1.550551
     46          1           0       -1.017398   -2.918992    1.012910
     47          1           0        0.370625   -2.795831    2.089954
     48          8           0        0.484624   -2.611270   -1.537062
     49          6           0       -1.234375   -1.409607    2.554680
     50          1           0       -1.940900   -0.793497    1.981820
     51          6           0       -2.047819   -2.381276    3.419299
     52          1           0       -1.388116   -3.027354    4.011917
     53          1           0       -2.692642   -1.837432    4.120087
     54          1           0       -2.685742   -3.027527    2.805509
     55          6           0       -0.386154   -0.478144    3.430522
     56          1           0        0.366365   -1.045712    3.992937
     57          1           0       -1.018221    0.039982    4.163035
     58          1           0        0.125078    0.283489    2.835578
     59          7           0        2.359241   -2.506036   -0.235871
     60          1           0        2.812171   -2.095756    0.577676
     61          6           0        3.308631   -3.059988   -1.182294
     62          1           0        3.008390   -4.075630   -1.465320
     63          6           0        4.647324   -3.107124   -0.423311
     64          6           0        3.412624   -2.194329   -2.477198
     65          1           0        2.451639   -2.279148   -2.989680
     66          1           0        4.170846   -2.634372   -3.134294
     67          8           0        4.759306   -2.611645    0.695952
     68          6           0        3.739751   -0.753257   -2.177816
     69          6           0        2.721639    0.160050   -1.866618
     70          1           0        1.686075   -0.156416   -1.942637
     71          6           0        5.063784   -0.306709   -2.116878
     72          1           0        5.871362   -0.982767   -2.382503
     73          6           0        3.006361    1.461485   -1.469715
     74          1           0        2.217158    2.156089   -1.201380
     75          6           0        5.365689    0.999862   -1.736690
     76          1           0        6.402218    1.328763   -1.698802
     77          8           0        4.567480    3.171918   -1.002283
     78          1           0        5.524012    3.331482   -0.990361
     79          6           0        4.337661    1.884533   -1.398304
     80          7           0        5.659889   -3.722554   -1.079088
     81          1           0        5.545721   -3.934726   -2.063515
     82          6           0        7.045473   -3.607823   -0.653564
     83          1           0        7.066360   -3.018458    0.263272
     84          6           0        7.841970   -2.894392   -1.734727
     85          6           0        7.661958   -5.016629   -0.398262
     86          1           0        7.301609   -5.345907    0.581596
     87          1           0        7.230543   -5.706455   -1.134346
     88          8           0        8.920640   -2.297805   -1.251237
     89          6           0        9.201414   -5.101583   -0.466231
     90          1           0        9.529252   -5.934564    0.165091
     91          1           0        9.634760   -4.196757   -0.031416
     92          6           0        9.746450   -5.327202   -1.903257
     93          1           0        9.917204   -6.400379   -2.044331
     94          1           0        8.987807   -5.054881   -2.646374
     95          6           0       11.048752   -4.586245   -2.257345
     96          1           0       11.633542   -5.186364   -2.967475
     97          1           0       11.667436   -4.453374   -1.363298
     98          7           0       10.783711   -3.235948   -2.819196
     99          1           0       11.660702   -2.747487   -2.994110
    100          1           0       10.311838   -3.326945   -3.719325
    101          1           0        9.688842   -2.420156   -1.935279
    102          8           0        7.550188   -2.978032   -2.920682
 ---------------------------------------------------------------------
 Rotational constants (GHZ):           0.1541478           0.0202935           0.0193306
 Standard basis: 6-31G(d) (6D, 7F)
   828 basis functions,  1560 primitive gaussians,   828 cartesian basis functions
   183 alpha electrons      183 beta electrons
       nuclear repulsion energy      6452.2671466519 Hartrees.
 NAtoms=  102 NActive=  102 NUniq=  102 SFac= 1.00D+00 NAtFMM=   60 NAOKFM=T Big=T
 Integral buffers will be    131072 words long.
 Raffenetti 2 integral format.
 Two-electron integral symmetry is turned off.
 Nuclear repulsion after empirical dispersion term =     6452.0445986831 Hartrees.
 One-electron integrals computed using PRISM.
 NBasis=   828 RedAO= T EigKep=  3.97D-04  NBF=   828
 NBsUse=   828 1.00D-06 EigRej= -1.00D+00 NBFU=   828
 Initial guess from the checkpoint file:  "conf-102.chk"
 B after Tr=     0.000000    0.000000    0.000000
         Rot=    1.000000    0.000000    0.000000    0.000000 Ang=   0.00 deg.
 Requested convergence on RMS density matrix=1.00D-08 within 128 cycles.
 Requested convergence on MAX density matrix=1.00D-06.
 Requested convergence on             energy=1.00D-06.
 No special actions if energy rises.
 SCF Done:  E(RB3LYP) =  -2312.32159804     A.U. after    1 cycles
            NFock=  1  Conv=0.65D-08     -V/T= 2.0093
 Hyperfine terms turned off by default for NAtoms > 100.

 **********************************************************************

            Population analysis using the SCF Density.

 **********************************************************************

 Alpha  occ. eigenvalues --  -19.26877 -19.22579 -19.22279 -19.21961 -19.21034
 Alpha  occ. eigenvalues --  -19.20610 -19.18188 -19.17844 -19.17684 -14.60054
 Alpha  occ. eigenvalues --  -14.49634 -14.45130 -14.44160 -14.41648 -14.41561
 Alpha  occ. eigenvalues --  -14.40595 -10.43649 -10.40797 -10.38930 -10.37273
 Alpha  occ. eigenvalues --  -10.35877 -10.34846 -10.34836 -10.34671 -10.33864
 Alpha  occ. eigenvalues --  -10.32609 -10.32226 -10.31563 -10.30094 -10.29826
 Alpha  occ. eigenvalues --  -10.29388 -10.29385 -10.28190 -10.27603 -10.26664
 Alpha  occ. eigenvalues --  -10.25024 -10.24922 -10.24420 -10.24274 -10.23866
 Alpha  occ. eigenvalues --  -10.23626 -10.23542 -10.23416 -10.23394 -10.23387
 Alpha  occ. eigenvalues --  -10.23324 -10.23098 -10.22960  -1.19467  -1.14644
 Alpha  occ. eigenvalues --   -1.13887  -1.13428  -1.12137  -1.10329  -1.10152
 Alpha  occ. eigenvalues --   -1.09780  -1.09282  -1.06286  -1.04887  -1.02239
 Alpha  occ. eigenvalues --   -1.00693  -0.98729  -0.98294  -0.96071  -0.95608
 Alpha  occ. eigenvalues --   -0.89921  -0.88976  -0.87760  -0.86131  -0.85713
 Alpha  occ. eigenvalues --   -0.84204  -0.83789  -0.81802  -0.81252  -0.80524
 Alpha  occ. eigenvalues --   -0.79296  -0.77713  -0.75804  -0.75207  -0.74704
 Alpha  occ. eigenvalues --   -0.74274  -0.74110  -0.73805  -0.72389  -0.71572
 Alpha  occ. eigenvalues --   -0.70489  -0.69990  -0.68345  -0.67986  -0.66952
 Alpha  occ. eigenvalues --   -0.66842  -0.65977  -0.65768  -0.64611  -0.64100
 Alpha  occ. eigenvalues --   -0.64007  -0.63321  -0.62665  -0.62114  -0.61513
 Alpha  occ. eigenvalues --   -0.61280  -0.59440  -0.59004  -0.58698  -0.58393
 Alpha  occ. eigenvalues --   -0.58071  -0.57019  -0.56625  -0.56170  -0.55517
 Alpha  occ. eigenvalues --   -0.55291  -0.54802  -0.54504  -0.53930  -0.53560
 Alpha  occ. eigenvalues --   -0.53401  -0.53146  -0.52741  -0.52484  -0.52317
 Alpha  occ. eigenvalues --   -0.51619  -0.51412  -0.51212  -0.51116  -0.50882
 Alpha  occ. eigenvalues --   -0.50692  -0.50271  -0.49992  -0.49652  -0.49154
 Alpha  occ. eigenvalues --   -0.48987  -0.48756  -0.48371  -0.48221  -0.47700
 Alpha  occ. eigenvalues --   -0.47669  -0.47423  -0.47271  -0.47030  -0.46749
 Alpha  occ. eigenvalues --   -0.46542  -0.46201  -0.45930  -0.45561  -0.45239
 Alpha  occ. eigenvalues --   -0.45190  -0.44918  -0.44712  -0.44220  -0.44098
 Alpha  occ. eigenvalues --   -0.43820  -0.43345  -0.42441  -0.42110  -0.41938
 Alpha  occ. eigenvalues --   -0.41611  -0.41550  -0.41346  -0.41154  -0.40285
 Alpha  occ. eigenvalues --   -0.39536  -0.38891  -0.38698  -0.38639  -0.38500
 Alpha  occ. eigenvalues --   -0.38433  -0.38303  -0.37945  -0.37188  -0.36863
 Alpha  occ. eigenvalues --   -0.36320  -0.35017  -0.34731  -0.34192  -0.33637
 Alpha  occ. eigenvalues --   -0.33002  -0.32382  -0.32218  -0.31418  -0.31173
 Alpha  occ. eigenvalues --   -0.30213  -0.29546  -0.26216
 Alpha virt. eigenvalues --   -0.12635  -0.11170  -0.08668  -0.06728  -0.06155
 Alpha virt. eigenvalues --   -0.05238  -0.04577  -0.04262  -0.03774  -0.03684
 Alpha virt. eigenvalues --   -0.02623  -0.01917  -0.01214  -0.00459   0.00389
 Alpha virt. eigenvalues --    0.01467   0.01577   0.01812   0.02297   0.02317
 Alpha virt. eigenvalues --    0.02646   0.02910   0.03213   0.03665   0.03721
 Alpha virt. eigenvalues --    0.04614   0.04933   0.05226   0.05451   0.05862
 Alpha virt. eigenvalues --    0.06072   0.06776   0.06914   0.07079   0.07247
 Alpha virt. eigenvalues --    0.07491   0.07669   0.07929   0.08174   0.08334
 Alpha virt. eigenvalues --    0.08383   0.08790   0.08998   0.09251   0.09392
 Alpha virt. eigenvalues --    0.09535   0.09811   0.09998   0.10048   0.10481
 Alpha virt. eigenvalues --    0.10754   0.11046   0.11402   0.11668   0.11803
 Alpha virt. eigenvalues --    0.12005   0.12299   0.12439   0.12679   0.12729
 Alpha virt. eigenvalues --    0.12895   0.13087   0.13146   0.13315   0.13646
 Alpha virt. eigenvalues --    0.14077   0.14766   0.15155   0.15319   0.15734
 Alpha virt. eigenvalues --    0.16042   0.16599   0.17119   0.17352   0.17651
 Alpha virt. eigenvalues --    0.17769   0.18182   0.18349   0.18706   0.19007
 Alpha virt. eigenvalues --    0.19324   0.19654   0.19876   0.20230   0.20865
 Alpha virt. eigenvalues --    0.21155   0.21346   0.21806   0.22523   0.22932
 Alpha virt. eigenvalues --    0.23047   0.23808   0.25158   0.25840   0.26226
 Alpha virt. eigenvalues --    0.28008   0.28401   0.29203   0.29487   0.29816
 Alpha virt. eigenvalues --    0.30510   0.30824   0.32080   0.32146   0.32903
 Alpha virt. eigenvalues --    0.33594   0.35070   0.35512   0.36855   0.37228
 Alpha virt. eigenvalues --    0.37976   0.38229   0.38309   0.40462   0.41968
 Alpha virt. eigenvalues --    0.42412   0.42983   0.43469   0.44019   0.44852
 Alpha virt. eigenvalues --    0.45310   0.45496   0.45611   0.45822   0.46031
 Alpha virt. eigenvalues --    0.46369   0.46577   0.46662   0.46896   0.47182
 Alpha virt. eigenvalues --    0.47489   0.48058   0.48368   0.48728   0.49247
 Alpha virt. eigenvalues --    0.49333   0.49589   0.49899   0.49994   0.50619
 Alpha virt. eigenvalues --    0.50902   0.51624   0.51832   0.52143   0.52643
 Alpha virt. eigenvalues --    0.52886   0.53084   0.53807   0.54168   0.54824
 Alpha virt. eigenvalues --    0.55600   0.55636   0.56157   0.56432   0.56696
 Alpha virt. eigenvalues --    0.56882   0.57189   0.57341   0.57743   0.58517
 Alpha virt. eigenvalues --    0.58655   0.58867   0.59094   0.59431   0.59962
 Alpha virt. eigenvalues --    0.60168   0.60579   0.60829   0.60945   0.61313
 Alpha virt. eigenvalues --    0.61402   0.61956   0.62115   0.62665   0.63568
 Alpha virt. eigenvalues --    0.63721   0.63858   0.64517   0.64992   0.65371
 Alpha virt. eigenvalues --    0.65425   0.65592   0.65979   0.66382   0.66561
 Alpha virt. eigenvalues --    0.66901   0.67300   0.67435   0.67661   0.68149
 Alpha virt. eigenvalues --    0.68523   0.69239   0.69576   0.69992   0.70147
 Alpha virt. eigenvalues --    0.70470   0.70664   0.71124   0.71426   0.72027
 Alpha virt. eigenvalues --    0.72238   0.73009   0.73569   0.73798   0.74634
 Alpha virt. eigenvalues --    0.75002   0.75095   0.75544   0.75617   0.75906
 Alpha virt. eigenvalues --    0.76341   0.76607   0.76945   0.77389   0.77433
 Alpha virt. eigenvalues --    0.77903   0.78294   0.78301   0.78614   0.78838
 Alpha virt. eigenvalues --    0.79130   0.79423   0.79637   0.79852   0.80149
 Alpha virt. eigenvalues --    0.80311   0.80585   0.80782   0.81367   0.81592
 Alpha virt. eigenvalues --    0.81797   0.82071   0.82247   0.82493   0.82722
 Alpha virt. eigenvalues --    0.83076   0.83274   0.83636   0.83949   0.83971
 Alpha virt. eigenvalues --    0.84346   0.84747   0.85155   0.85460   0.85667
 Alpha virt. eigenvalues --    0.85956   0.86362   0.86605   0.86711   0.87073
 Alpha virt. eigenvalues --    0.87632   0.88118   0.88230   0.88288   0.88629
 Alpha virt. eigenvalues --    0.89264   0.89545   0.89620   0.90041   0.90456
 Alpha virt. eigenvalues --    0.90681   0.91005   0.91255   0.91914   0.92138
 Alpha virt. eigenvalues --    0.92653   0.93020   0.93551   0.93708   0.93971
 Alpha virt. eigenvalues --    0.94336   0.94685   0.95190   0.96033   0.96158
 Alpha virt. eigenvalues --    0.96238   0.97187   0.97825   0.98178   0.98744
 Alpha virt. eigenvalues --    0.99253   1.00244   1.00676   1.00962   1.01122
 Alpha virt. eigenvalues --    1.01825   1.02478   1.02740   1.03114   1.04505
 Alpha virt. eigenvalues --    1.04634   1.05645   1.06270   1.07120   1.07511
 Alpha virt. eigenvalues --    1.08156   1.08364   1.08676   1.09890   1.10029
 Alpha virt. eigenvalues --    1.10790   1.11885   1.12809   1.13041   1.14627
 Alpha virt. eigenvalues --    1.15420   1.15613   1.16345   1.16658   1.17261
 Alpha virt. eigenvalues --    1.17354   1.18383   1.18629   1.19504   1.20221
 Alpha virt. eigenvalues --    1.20311   1.20892   1.21649   1.22412   1.23142
 Alpha virt. eigenvalues --    1.23407   1.23675   1.24447   1.25095   1.27305
 Alpha virt. eigenvalues --    1.28207   1.29419   1.30178   1.30824   1.31268
 Alpha virt. eigenvalues --    1.32546   1.33093   1.33310   1.34016   1.34911
 Alpha virt. eigenvalues --    1.36103   1.36894   1.37968   1.38124   1.38857
 Alpha virt. eigenvalues --    1.39111   1.39565   1.39988   1.40088   1.40570
 Alpha virt. eigenvalues --    1.41960   1.42084   1.43081   1.44167   1.44364
 Alpha virt. eigenvalues --    1.44732   1.44858   1.45734   1.46213   1.46465
 Alpha virt. eigenvalues --    1.47744   1.48160   1.48395   1.49405   1.49785
 Alpha virt. eigenvalues --    1.50566   1.51105   1.52489   1.53405   1.54640
 Alpha virt. eigenvalues --    1.55684   1.55932   1.56218   1.56325   1.57877
 Alpha virt. eigenvalues --    1.58457   1.59348   1.59852   1.60658   1.60744
 Alpha virt. eigenvalues --    1.61246   1.61926   1.62774   1.63675   1.64070
 Alpha virt. eigenvalues --    1.64786   1.64934   1.65725   1.66146   1.67063
 Alpha virt. eigenvalues --    1.67475   1.67863   1.68776   1.69208   1.69540
 Alpha virt. eigenvalues --    1.69824   1.70449   1.70777   1.71290   1.71446
 Alpha virt. eigenvalues --    1.72305   1.72819   1.73235   1.73799   1.74011
 Alpha virt. eigenvalues --    1.74206   1.74736   1.75028   1.75509   1.75740
 Alpha virt. eigenvalues --    1.76673   1.77095   1.77129   1.77861   1.78738
 Alpha virt. eigenvalues --    1.79020   1.79889   1.80212   1.80433   1.81453
 Alpha virt. eigenvalues --    1.81925   1.82127   1.82341   1.82737   1.82963
 Alpha virt. eigenvalues --    1.83299   1.84274   1.84530   1.84711   1.85021
 Alpha virt. eigenvalues --    1.85355   1.86047   1.86326   1.86735   1.86793
 Alpha virt. eigenvalues --    1.87507   1.87600   1.88945   1.89202   1.89802
 Alpha virt. eigenvalues --    1.90148   1.90288   1.90842   1.91112   1.91694
 Alpha virt. eigenvalues --    1.92177   1.92296   1.92840   1.93440   1.93829
 Alpha virt. eigenvalues --    1.94616   1.94700   1.94918   1.95494   1.96049
 Alpha virt. eigenvalues --    1.96340   1.96934   1.97005   1.98274   1.98979
 Alpha virt. eigenvalues --    1.99344   1.99674   2.00057   2.00311   2.01092
 Alpha virt. eigenvalues --    2.01538   2.01786   2.02541   2.02658   2.03183
 Alpha virt. eigenvalues --    2.03375   2.03820   2.05001   2.05468   2.06045
 Alpha virt. eigenvalues --    2.06988   2.07547   2.07581   2.08576   2.09453
 Alpha virt. eigenvalues --    2.10468   2.10595   2.10980   2.11455   2.12692
 Alpha virt. eigenvalues --    2.12803   2.13599   2.14010   2.14884   2.15007
 Alpha virt. eigenvalues --    2.15352   2.15939   2.17258   2.17943   2.18890
 Alpha virt. eigenvalues --    2.19460   2.20028   2.20533   2.21032   2.21301
 Alpha virt. eigenvalues --    2.22316   2.22726   2.23181   2.23612   2.23969
 Alpha virt. eigenvalues --    2.24199   2.24450   2.26764   2.27339   2.28023
 Alpha virt. eigenvalues --    2.28918   2.29554   2.30375   2.31438   2.32146
 Alpha virt. eigenvalues --    2.32451   2.32562   2.33545   2.33811   2.34288
 Alpha virt. eigenvalues --    2.34619   2.35274   2.35582   2.36281   2.36880
 Alpha virt. eigenvalues --    2.37097   2.37604   2.38122   2.38492   2.39934
 Alpha virt. eigenvalues --    2.41383   2.41461   2.41930   2.42608   2.42885
 Alpha virt. eigenvalues --    2.44502   2.44736   2.45437   2.46979   2.47645
 Alpha virt. eigenvalues --    2.48256   2.48990   2.49768   2.49935   2.51535
 Alpha virt. eigenvalues --    2.51958   2.53431   2.54242   2.54967   2.55924
 Alpha virt. eigenvalues --    2.56643   2.57492   2.58743   2.58828   2.59392
 Alpha virt. eigenvalues --    2.60774   2.61118   2.61953   2.62349   2.62419
 Alpha virt. eigenvalues --    2.63577   2.64089   2.64222   2.64946   2.66084
 Alpha virt. eigenvalues --    2.67061   2.68400   2.68926   2.69702   2.70994
 Alpha virt. eigenvalues --    2.71696   2.72733   2.73713   2.74758   2.75876
 Alpha virt. eigenvalues --    2.76342   2.78293   2.78735   2.82841   2.83134
 Alpha virt. eigenvalues --    2.83666   2.84596   2.85250   2.86426   2.86982
 Alpha virt. eigenvalues --    2.88485   2.89042   2.91324   2.92110   2.93222
 Alpha virt. eigenvalues --    2.93794   2.95843   2.98157   2.99619   3.03498
 Alpha virt. eigenvalues --    3.05739   3.08544   3.09370   3.10472   3.13124
 Alpha virt. eigenvalues --    3.16651   3.37656   3.65241   3.79134   3.79339
 Alpha virt. eigenvalues --    3.89347   3.92565   3.95144   3.95990   3.96244
 Alpha virt. eigenvalues --    3.99989   4.02199   4.02794   4.04130   4.05245
 Alpha virt. eigenvalues --    4.06828   4.08658   4.10167   4.10807   4.11739
 Alpha virt. eigenvalues --    4.14502   4.16104   4.16928   4.19904   4.22142
 Alpha virt. eigenvalues --    4.23269   4.23606   4.25138   4.26788   4.29002
 Alpha virt. eigenvalues --    4.30273   4.31109   4.33176   4.33975   4.35261
 Alpha virt. eigenvalues --    4.35960   4.38318   4.38862   4.40132   4.43678
 Alpha virt. eigenvalues --    4.47175   4.49995   4.51982   4.52471   4.53333
 Alpha virt. eigenvalues --    4.57500   4.60640   4.65055   4.66629   4.74323
          Condensed to atoms (all electrons):
 Mulliken charges:
               1
     1  N   -0.759122
     2  H    0.416587
     3  H    0.409410
     4  H    0.434215
     5  C   -0.104216
     6  H    0.206008
     7  C    0.649124
     8  C   -0.109902
     9  H    0.171749
    10  O   -0.541981
    11  C   -0.476575
    12  H    0.168382
    13  H    0.189645
    14  H    0.186901
    15  C   -0.473851
    16  H    0.177308
    17  H    0.139619
    18  H    0.203423
    19  N   -0.605394
    20  H    0.377752
    21  C   -0.088314
    22  H    0.203673
    23  C    0.617744
    24  C   -0.033944
    25  H    0.155904
    26  H    0.169290
    27  O   -0.543418
    28  O   -0.641110
    29  H    0.446780
    30  N   -0.584166
    31  H    0.354266
    32  C   -0.069005
    33  H    0.184464
    34  C    0.658932
    35  C   -0.480204
    36  H    0.187418
    37  H    0.179279
    38  H    0.181893
    39  O   -0.576287
    40  N   -0.584861
    41  H    0.357384
    42  C   -0.082639
    43  H    0.192328
    44  C    0.636563
    45  C   -0.255543
    46  H    0.150166
    47  H    0.150234
    48  O   -0.558088
    49  C   -0.084209
    50  H    0.143837
    51  C   -0.440000
    52  H    0.149342
    53  H    0.124029
    54  H    0.145951
    55  C   -0.468244
    56  H    0.144631
    57  H    0.120712
    58  H    0.179979
    59  N   -0.616736
    60  H    0.364873
    61  C   -0.029771
    62  H    0.180800
    63  C    0.622037
    64  C   -0.400234
    65  H    0.192497
    66  H    0.158574
    67  O   -0.532136
    68  C    0.164278
    69  C   -0.207123
    70  H    0.125194
    71  C   -0.197721
    72  H    0.155488
    73  C   -0.164539
    74  H    0.134272
    75  C   -0.194607
    76  H    0.128272
    77  O   -0.642358
    78  H    0.410757
    79  C    0.353645
    80  N   -0.603264
    81  H    0.344220
    82  C   -0.042727
    83  H    0.202983
    84  C    0.596095
    85  C   -0.277394
    86  H    0.162342
    87  H    0.147058
    88  O   -0.597090
    89  C   -0.286272
    90  H    0.147363
    91  H    0.171101
    92  C   -0.293275
    93  H    0.152505
    94  H    0.161746
    95  C   -0.142500
    96  H    0.149133
    97  H    0.164637
    98  N   -0.779264
    99  H    0.333414
   100  H    0.342248
   101  H    0.457266
   102  O   -0.519638
 Sum of Mulliken charges =   1.00000
 Mulliken charges with hydrogens summed into heavy atoms:
               1
     1  N    0.501091
     5  C    0.101792
     7  C    0.649124
     8  C    0.061846
    10  O   -0.541981
    11  C    0.068354
    15  C    0.046499
    19  N   -0.227642
    21  C    0.115359
    23  C    0.617744
    24  C    0.291249
    27  O   -0.543418
    28  O   -0.194330
    30  N   -0.229900
    32  C    0.115459
    34  C    0.658932
    35  C    0.068385
    39  O   -0.576287
    40  N   -0.227477
    42  C    0.109690
    44  C    0.636563
    45  C    0.044857
    48  O   -0.558088
    49  C    0.059628
    51  C   -0.020679
    55  C   -0.022921
    59  N   -0.251863
    61  C    0.151029
    63  C    0.622037
    64  C   -0.049162
    67  O   -0.532136
    68  C    0.164278
    69  C   -0.081929
    71  C   -0.042233
    73  C   -0.030267
    75  C   -0.066335
    77  O   -0.231601
    79  C    0.353645
    80  N   -0.259044
    82  C    0.160256
    84  C    0.596095
    85  C    0.032005
    88  O   -0.139823
    89  C    0.032192
    92  C    0.020976
    95  C    0.171270
    98  N   -0.103602
   102  O   -0.519638
 Electronic spatial extent (au):  <R**2>=          56145.4563
 Charge=              1.0000 electrons
 Dipole moment (field-independent basis, Debye):
    X=            -14.0709    Y=              7.2623    Z=             13.7465  Tot=             20.9689
 Quadrupole moment (field-independent basis, Debye-Ang):
   XX=             26.8599   YY=           -220.6706   ZZ=           -180.8282
   XY=           -133.7137   XZ=           -155.8050   YZ=             68.7937
 Traceless Quadrupole moment (field-independent basis, Debye-Ang):
   XX=            151.7395   YY=            -95.7910   ZZ=            -55.9486
   XY=           -133.7137   XZ=           -155.8050   YZ=             68.7937
 Octapole moment (field-independent basis, Debye-Ang**2):
  XXX=           -669.3789  YYY=            190.5321  ZZZ=            297.4576  XYY=           -362.6416
  XXY=            140.4862  XXZ=            329.1904  XZZ=           -915.2586  YZZ=            412.2014
  YYZ=             94.4316  XYZ=           -299.8563
 Hexadecapole moment (field-independent basis, Debye-Ang**3):
 XXXX=         -21208.0531 YYYY=         -13756.4453 ZZZZ=          -5839.7621 XXXY=            131.8564
 XXXZ=          -3179.7502 YYYX=           7694.3244 YYYZ=          -1735.6452 ZZZX=           3720.3770
 ZZZY=           -605.3923 XXYY=          -5694.0760 XXZZ=          -4291.0110 YYZZ=          -2396.3176
 XXYZ=           3433.1555 YYXZ=            267.0479 ZZXY=            572.0776
 N-N= 6.452044598683D+03 E-N=-1.826335979436D+04  KE= 2.290950003741D+03
 Unable to Open any file for archive entry.
 1\1\GINC-LAC-261\SP\RB3LYP\6-31G(d)\C32H54N7O9(1+)\KENGMITH\14-Jul-202
 2\0\\# B3LYP/6-31G* empiricaldispersion=gd3bj guess=read geom=check no
 symm integral(ultrafinegrid)\\Candidate Structure: Conf:102 Charge cal
 c in gas phase\\1,1\N,0,-6.3716773914,4.1514112032,5.2073082755\H,0,-5
 .8693937254,4.0027052821,6.0868064751\H,0,-7.3670897004,4.262659572,5.
 4143326858\H,0,-5.9671381777,5.0102972583,4.7261747391\C,0,-6.09865939
 95,3.0735580706,4.176023806\H,0,-5.7346283225,2.1834588453,4.695460661
 \C,0,-4.9885616159,3.7407725971,3.3215621722\C,0,-7.3907366375,2.74849
 81276,3.3891290724\H,0,-7.7198176449,3.6813439075,2.9093934401\O,0,-4.
 8868604539,4.9764058263,3.3903901951\C,0,-7.1205641498,1.7072587219,2.
 2919042775\H,0,-6.7181203729,0.7791944882,2.716351939\H,0,-8.061044083
 1,1.456406092,1.7941445884\H,0,-6.4283211532,2.0641552926,1.5274229077
 \C,0,-8.4980662132,2.2406153308,4.3273857353\H,0,-8.1865350248,1.32564
 32902,4.8442553984\H,0,-8.8140395341,2.9674934072,5.0880118909\H,0,-9.
 3931424337,2.0061409064,3.7450895566\N,0,-4.2344797063,2.9422332079,2.
 5821337828\H,0,-4.4040186272,1.9371885044,2.5092317668\C,0,-3.23258524
 81,3.3960897126,1.6287873803\H,0,-3.5625876064,4.3233846694,1.15279100
 57\C,0,-3.0956790781,2.2544674341,0.6201582548\C,0,-1.8637211864,3.651
 0660943,2.3347568604\H,0,-1.5971786969,2.7481327773,2.8995684299\H,0,-
 2.0074547781,4.4772756231,3.0381277684\O,0,-3.5806576151,1.1467255315,
 0.8674239915\O,0,-0.8648098878,4.0091539501,1.4145672634\H,0,-0.410556
 959,3.1742535207,1.1524060987\N,0,-2.3635690929,2.5396467218,-0.481018
 5914\H,0,-1.8399877112,3.4097944237,-0.4177222835\C,0,-1.6797187401,1.
 444204411,-1.1657820365\H,0,-2.4356457913,0.721963107,-1.4839841998\C,
 0,-0.7238172855,0.7767086821,-0.156978124\C,0,-0.9045369284,1.97844469
 64,-2.3711522612\H,0,-0.400200306,1.1611281434,-2.893842276\H,0,-0.139
 7110969,2.6946689272,-2.0520912274\H,0,-1.5830083549,2.4738940112,-3.0
 712973621\O,0,-0.1326948141,1.4519993828,0.7008412544\N,0,-0.583927598
 6,-0.5465542902,-0.2797635111\H,0,-0.997799488,-1.0438824102,-1.062913
 045\C,0,0.3504523337,-1.3473969404,0.501172501\H,0,1.0493125806,-0.657
 1041483,0.9766151736\C,0,1.0778842213,-2.2304641665,-0.5244331096\C,0,
 -0.3813932523,-2.2039163988,1.5505505131\H,0,-1.0173975428,-2.91899170
 75,1.0129096405\H,0,0.3706251828,-2.7958306662,2.0899541459\O,0,0.4846
 243712,-2.611270368,-1.5370622554\C,0,-1.2343748299,-1.409606628,2.554
 6802141\H,0,-1.9408996377,-0.7934971404,1.9818204701\C,0,-2.0478187863
 ,-2.3812760688,3.4192991798\H,0,-1.3881160528,-3.0273544945,4.01191706
 71\H,0,-2.692642375,-1.8374315304,4.1200871091\H,0,-2.6857424288,-3.02
 75267309,2.8055094953\C,0,-0.3861539629,-0.4781440471,3.4305217979\H,0
 ,0.3663647714,-1.045711879,3.9929370385\H,0,-1.0182205879,0.0399821141
 ,4.1630348286\H,0,0.1250775309,0.2834886947,2.835577699\N,0,2.35924101
 01,-2.5060364342,-0.23587132\H,0,2.8121713496,-2.0957558053,0.57767559
 \C,0,3.308631406,-3.0599883343,-1.1822940564\H,0,3.0083904414,-4.07563
 03512,-1.465320302\C,0,4.6473237143,-3.1071235301,-0.4233111934\C,0,3.
 4126238817,-2.1943286294,-2.4771982442\H,0,2.451638779,-2.2791477747,-
 2.989680115\H,0,4.170846141,-2.634372047,-3.1342941836\O,0,4.759306415
 6,-2.611644747,0.6959517442\C,0,3.7397505846,-0.7532565954,-2.17781641
 64\C,0,2.721639152,0.160049527,-1.8666177897\H,0,1.6860749586,-0.15641
 64757,-1.9426373387\C,0,5.0637844447,-0.3067087687,-2.1168776691\H,0,5
 .8713617887,-0.9827670027,-2.3825033097\C,0,3.0063610186,1.4614849422,
 -1.469714828\H,0,2.2171583269,2.156088686,-1.2013801364\C,0,5.36568860
 3,0.9998619038,-1.7366896105\H,0,6.4022176759,1.3287625918,-1.69880183
 13\O,0,4.5674800656,3.171917701,-1.0022828137\H,0,5.5240116372,3.33148
 17654,-0.9903606574\C,0,4.337660519,1.8845326179,-1.3983041981\N,0,5.6
 598885816,-3.722554367,-1.0790879453\H,0,5.5457206093,-3.9347258246,-2
 .0635152583\C,0,7.0454733052,-3.6078232404,-0.6535641116\H,0,7.0663604
 342,-3.0184579709,0.2632721406\C,0,7.8419699354,-2.8943916448,-1.73472
 72536\C,0,7.6619581178,-5.0166292726,-0.3982616563\H,0,7.3016087018,-5
 .3459070185,0.5815963002\H,0,7.2305428616,-5.70645539,-1.1343462016\O,
 0,8.9206398487,-2.2978046346,-1.2512374441\C,0,9.2014142676,-5.1015827
 298,-0.4662305552\H,0,9.5292516783,-5.9345639963,0.1650911673\H,0,9.63
 47597354,-4.196756831,-0.0314157159\C,0,9.7464504889,-5.3272017488,-1.
 9032570796\H,0,9.9172042234,-6.4003792279,-2.0443308279\H,0,8.98780696
 42,-5.0548812321,-2.6463743359\C,0,11.048751577,-4.5862449994,-2.25734
 49243\H,0,11.6335415448,-5.1863641595,-2.9674750994\H,0,11.6674363837,
 -4.4533742594,-1.3632981278\N,0,10.7837107217,-3.2359479677,-2.8191962
 748\H,0,11.6607017906,-2.747487149,-2.9941099634\H,0,10.3118381878,-3.
 3269450047,-3.7193251225\H,0,9.6888424417,-2.4201556288,-1.9352785733\
 O,0,7.5501883218,-2.9780323367,-2.9206818017\\Version=ES64L-G16RevC.01
 \HF=-2312.321598\RMSD=6.475e-09\Dipole=-7.8876324,3.2619812,4.8845709\
 Quadrupole=112.8146086,-71.2182325,-41.5963761,-99.4128426,-115.837220
 6,51.146418\PG=C01 [X(C32H54N7O9)]\\@
 The archive entry for this job was punched.


 YOU CAN WIPE THE SLATE CLEAN, BUT YOU'LL STILL
 HAVE TO EAT A LITTLE CHALK DUST.
 Job cpu time:       0 days  0 hours  2 minutes 59.5 seconds.
 Elapsed time:       0 days  0 hours  0 minutes 45.7 seconds.
 File lengths (MBytes):  RWF=    472 Int=      0 D2E=      0 Chk=     72 Scr=     16
 Normal termination of Gaussian 16 at Thu Jul 14 14:16:24 2022.
