 Entering Gaussian System, Link 0=/opt/software/Gaussian/g16-AVX2-C.01/g16/g16
 Input=charge-conf-270.com
 Output=charge-conf-270.log
 Initial command:
 /opt/software/Gaussian/g16-AVX2-C.01/g16/l1.exe "/mnt/gs18/scratch/users/kengmith/Gau-6953.inp" -scrdir="/mnt/gs18/scratch/users/kengmith/"
 Entering Link 1 = /opt/software/Gaussian/g16-AVX2-C.01/g16/l1.exe PID=      6963.
  
 Copyright (c) 1988-2019, Gaussian, Inc.  All Rights Reserved.
  
 This is part of the Gaussian(R) 16 program.  It is based on
 the Gaussian(R) 09 system (copyright 2009, Gaussian, Inc.),
 the Gaussian(R) 03 system (copyright 2003, Gaussian, Inc.),
 the Gaussian(R) 98 system (copyright 1998, Gaussian, Inc.),
 the Gaussian(R) 94 system (copyright 1995, Gaussian, Inc.),
 the Gaussian 92(TM) system (copyright 1992, Gaussian, Inc.),
 the Gaussian 90(TM) system (copyright 1990, Gaussian, Inc.),
 the Gaussian 88(TM) system (copyright 1988, Gaussian, Inc.),
 the Gaussian 86(TM) system (copyright 1986, Carnegie Mellon
 University), and the Gaussian 82(TM) system (copyright 1983,
 Carnegie Mellon University). Gaussian is a federally registered
 trademark of Gaussian, Inc.
  
 This software contains proprietary and confidential information,
 including trade secrets, belonging to Gaussian, Inc.
  
 This software is provided under written license and may be
 used, copied, transmitted, or stored only in accord with that
 written license.
  
 The following legend is applicable only to US Government
 contracts under FAR:
  
                    RESTRICTED RIGHTS LEGEND
  
 Use, reproduction and disclosure by the US Government is
 subject to restrictions as set forth in subparagraphs (a)
 and (c) of the Commercial Computer Software - Restricted
 Rights clause in FAR 52.227-19.
  
 Gaussian, Inc.
 340 Quinnipiac St., Bldg. 40, Wallingford CT 06492
  
  
 ---------------------------------------------------------------
 Warning -- This program may not be used in any manner that
 competes with the business of Gaussian, Inc. or will provide
 assistance to any competitor of Gaussian, Inc.  The licensee
 of this program is prohibited from giving any competitor of
 Gaussian, Inc. access to this program.  By using this program,
 the user acknowledges that Gaussian, Inc. is engaged in the
 business of creating and licensing software in the field of
 computational chemistry and represents and warrants to the
 licensee that it is not a competitor of Gaussian, Inc. and that
 it will not use this program in any manner prohibited above.
 ---------------------------------------------------------------
  

 Cite this work as:
 Gaussian 16, Revision C.01,
 M. J. Frisch, G. W. Trucks, H. B. Schlegel, G. E. Scuseria, 
 M. A. Robb, J. R. Cheeseman, G. Scalmani, V. Barone, 
 G. A. Petersson, H. Nakatsuji, X. Li, M. Caricato, A. V. Marenich, 
 J. Bloino, B. G. Janesko, R. Gomperts, B. Mennucci, H. P. Hratchian, 
 J. V. Ortiz, A. F. Izmaylov, J. L. Sonnenberg, D. Williams-Young, 
 F. Ding, F. Lipparini, F. Egidi, J. Goings, B. Peng, A. Petrone, 
 T. Henderson, D. Ranasinghe, V. G. Zakrzewski, J. Gao, N. Rega, 
 G. Zheng, W. Liang, M. Hada, M. Ehara, K. Toyota, R. Fukuda, 
 J. Hasegawa, M. Ishida, T. Nakajima, Y. Honda, O. Kitao, H. Nakai, 
 T. Vreven, K. Throssell, J. A. Montgomery, Jr., J. E. Peralta, 
 F. Ogliaro, M. J. Bearpark, J. J. Heyd, E. N. Brothers, K. N. Kudin, 
 V. N. Staroverov, T. A. Keith, R. Kobayashi, J. Normand, 
 K. Raghavachari, A. P. Rendell, J. C. Burant, S. S. Iyengar, 
 J. Tomasi, M. Cossi, J. M. Millam, M. Klene, C. Adamo, R. Cammi, 
 J. W. Ochterski, R. L. Martin, K. Morokuma, O. Farkas, 
 J. B. Foresman, and D. J. Fox, Gaussian, Inc., Wallingford CT, 2019.
 
 ******************************************
 Gaussian 16:  ES64L-G16RevC.01  3-Jul-2019
                14-Jul-2022 
 ******************************************
 %mem=8gb
 %nproc=4
 Will use up to    4 processors via shared memory.
 %chk=conf-270.chk
 ----------------------------------------------------------------------
 # B3LYP/6-31G* empiricaldispersion=gd3bj guess=read geom=check nosymm 
 integral(ultrafinegrid)
 ----------------------------------------------------------------------
 1/29=2,38=1,172=1/1;
 2/12=2,15=1,40=1/2;
 3/5=1,6=6,7=1,11=2,14=-4,25=1,30=1,74=-5,75=-5,116=-2,124=41/1,2,3;
 4/5=1/1;
 5/5=2,38=6/2;
 6/7=2,8=2,9=2,10=2,28=1/1;
 99/5=1,9=1/99;
 ------------------------------------------------------
 Candidate Structure: Conf:270 Charge calc in gas phase
 ------------------------------------------------------
 Structure from the checkpoint file:  "conf-270.chk"
 Charge =  1 Multiplicity = 1
 Redundant internal coordinates found in file.  (old form).
 N,0,-5.311219863,4.9774880482,3.9656180265
 H,0,-5.4187890466,5.263887672,4.9419366085
 H,0,-5.4542171118,5.7966674077,3.3685284589
 H,0,-4.3386456722,4.5750477652,3.8202615418
 C,0,-6.2025101964,3.8135506372,3.5808493862
 H,0,-6.884639372,3.6288230952,4.4142741244
 C,0,-5.1916156257,2.655266299,3.4104385013
 C,0,-6.9946095227,4.111470532,2.2880747239
 H,0,-7.5979410772,3.210767343,2.1158303371
 O,0,-3.9840606041,2.9352587638,3.4353733879
 C,0,-7.9629029081,5.2855027522,2.4863224104
 H,0,-7.439641533,6.2440358427,2.607065209
 H,0,-8.6004864377,5.3930100924,1.604751012
 H,0,-8.6125973426,5.1398198577,3.3560675943
 C,0,-6.0748878879,4.3044415585,1.0735612384
 H,0,-5.4156323645,5.1760276418,1.1836292904
 H,0,-5.4491341236,3.4265223403,0.8857307606
 H,0,-6.6812726429,4.4831048908,0.1815386655
 N,0,-5.6861904798,1.435914722,3.2083610388
 H,0,-6.6895771098,1.3110897645,3.1401081735
 C,0,-4.8441518616,0.2666127878,2.9106648546
 H,0,-3.897952518,0.4002619191,3.4427960002
 C,0,-4.5473363637,0.1847744375,1.3950112382
 C,0,-5.5313857538,-1.0153194418,3.4056355904
 H,0,-6.5156902105,-1.1085951087,2.9183424919
 H,0,-5.6878382224,-0.9411428557,4.4859673695
 O,0,-4.9179859067,-0.7792321418,0.7332810145
 O,0,-4.7220778214,-2.1372904535,3.1737159569
 H,0,-4.7065056163,-2.2636992967,2.2080487655
 N,0,-3.8747730512,1.256998638,0.8855725054
 H,0,-3.3416139909,1.7888544545,1.5719699593
 C,0,-3.130601225,1.104303137,-0.3759822213
 H,0,-3.7077190296,0.4306727092,-1.0109625517
 C,0,-1.7874864807,0.4761594742,0.0416355576
 C,0,-2.924816537,2.4600107484,-1.0448832032
 H,0,-2.37189555,2.3394200571,-1.9814880509
 H,0,-2.3417564623,3.1182243327,-0.3923894989
 H,0,-3.8870891256,2.9309438365,-1.2691815267
 O,0,-1.1825097138,0.9638388277,0.9995715614
 N,0,-1.4095319208,-0.620312139,-0.6348796607
 H,0,-1.8780992465,-0.8973748561,-1.4905077167
 C,0,-0.2416095841,-1.4162315283,-0.295619589
 H,0,0.3734728966,-0.8194569419,0.3810351659
 C,0,0.4894116663,-1.713546556,-1.6104347139
 C,0,-0.647372989,-2.7578733188,0.3623006889
 H,0,-1.1018097974,-3.3823879002,-0.4180952486
 H,0,0.2702559737,-3.2711842579,0.6789953014
 O,0,-0.140519357,-1.7839526289,-2.6683624188
 C,0,-1.6219866625,-2.6523847534,1.5462008574
 H,0,-2.5072944699,-2.1076139522,1.1912211835
 C,0,-2.0776379345,-4.0548528111,1.9708733437
 H,0,-1.2292257992,-4.6479570355,2.3343619735
 H,0,-2.8129301782,-3.9939498058,2.7802980533
 H,0,-2.5313888842,-4.600423919,1.1349262936
 C,0,-1.0381929138,-1.8881518874,2.7406359306
 H,0,-0.1475386792,-2.3979967052,3.1300047327
 H,0,-1.7770328014,-1.8456854527,3.5493606981
 H,0,-0.7627538215,-0.8631574296,2.4765272879
 N,0,1.8093475405,-1.9469700406,-1.5015184311
 H,0,2.3102231096,-1.8587475418,-0.6219993032
 C,0,2.6412756086,-2.3311855406,-2.6250111483
 H,0,2.1090573017,-3.0801848412,-3.2201858949
 C,0,3.9225446826,-2.9190643516,-2.021890972
 C,0,2.9587331068,-1.1093041796,-3.5354274642
 H,0,3.4559767753,-0.3524850945,-2.919302413
 H,0,1.9925178099,-0.7040512841,-3.8520370904
 O,0,4.2822492172,-2.5949768236,-0.8889788483
 C,0,3.8132641016,-1.4750224274,-4.7220129741
 C,0,5.186427256,-1.1927798945,-4.7412120032
 H,0,5.6299798162,-0.6469650597,-3.9125073822
 C,0,3.2744219952,-2.1962497436,-5.7933948612
 H,0,2.2099249516,-2.4196641089,-5.8095786536
 C,0,6.0019955117,-1.6196079245,-5.7821762927
 H,0,7.0689539105,-1.4277999949,-5.7751807831
 C,0,4.0808416526,-2.639466725,-6.841456408
 H,0,3.6463160721,-3.2060414335,-7.6627445061
 O,0,6.2986186097,-2.7942391868,-7.8104921819
 H,0,5.7864703481,-3.2763339849,-8.4780561215
 C,0,5.4503174549,-2.3608477471,-6.8308839467
 N,0,4.6047728411,-3.7684932286,-2.8198217489
 H,0,4.285019988,-3.9136611644,-3.7699350154
 C,0,5.9664229466,-4.2011414715,-2.5192462237
 H,0,6.3626118318,-3.5382059404,-1.7499522517
 C,0,6.8346397636,-4.0693977444,-3.7578748979
 C,0,5.9960145707,-5.670226377,-2.0323885968
 H,0,5.5796274335,-5.6725024248,-1.0189187595
 H,0,5.307674996,-6.2479608051,-2.6594705013
 O,0,7.9227490593,-3.5260170161,-3.7549687381
 C,0,7.3842589047,-6.3523972649,-2.031935926
 H,0,7.367205658,-7.1089645891,-1.2405233366
 H,0,8.1521295255,-5.6283979776,-1.7311520957
 C,0,7.8035190667,-7.05571258,-3.3594547802
 H,0,8.1152481659,-8.0768669203,-3.1160369013
 H,0,6.9229686894,-7.1581450609,-4.0034136693
 C,0,8.9398480758,-6.3899648866,-4.179216258
 H,0,9.8020780166,-7.0672227877,-4.2400871114
 H,0,9.2773251044,-5.4751712829,-3.6906526828
 N,0,8.4924096374,-5.9914632917,-5.5412111847
 H,0,9.2159461887,-5.4315079089,-5.9895875076
 H,0,8.3566681,-6.8184982936,-6.1219379032
 H,0,7.1187610083,-5.0773183486,-5.3421472824
 O,0,6.3165367305,-4.7362369051,-4.7928917728
 Recover connectivity data from disk.
                           ----------------------------
                           !    Current Parameters    !
                           ! (Angstroms and Degrees)  !
 --------------------------                            --------------------------
 ! Name  Definition              Value                                          !
 --------------------------------------------------------------------------------
 ! R1    R(1,2)                  1.0231                                         !
 ! R2    R(1,3)                  1.0237                                         !
 ! R3    R(1,4)                  1.0625                                         !
 ! R4    R(1,5)                  1.5157                                         !
 ! R5    R(5,6)                  1.0927                                         !
 ! R6    R(5,7)                  1.5468                                         !
 ! R7    R(5,8)                  1.5451                                         !
 ! R8    R(7,10)                 1.2398                                         !
 ! R9    R(7,19)                 1.3313                                         !
 ! R10   R(8,9)                  1.0977                                         !
 ! R11   R(8,11)                 1.5347                                         !
 ! R12   R(8,15)                 1.5356                                         !
 ! R13   R(11,12)                1.0987                                         !
 ! R14   R(11,13)                1.0933                                         !
 ! R15   R(11,14)                1.0953                                         !
 ! R16   R(15,16)                1.0984                                         !
 ! R17   R(15,17)                1.0943                                         !
 ! R18   R(15,18)                1.0933                                         !
 ! R19   R(19,20)                1.0134                                         !
 ! R20   R(19,21)                1.4714                                         !
 ! R21   R(21,22)                1.0938                                         !
 ! R22   R(21,23)                1.5466                                         !
 ! R23   R(21,24)                1.5364                                         !
 ! R24   R(23,27)                1.2266                                         !
 ! R25   R(23,30)                1.3644                                         !
 ! R26   R(24,25)                1.1023                                         !
 ! R27   R(24,26)                1.0941                                         !
 ! R28   R(24,28)                1.4027                                         !
 ! R29   R(28,29)                0.974                                          !
 ! R30   R(30,31)                1.019                                          !
 ! R31   R(30,32)                1.4726                                         !
 ! R32   R(32,33)                1.0909                                         !
 ! R33   R(32,34)                1.5404                                         !
 ! R34   R(32,35)                1.5257                                         !
 ! R35   R(34,39)                1.2335                                         !
 ! R36   R(34,40)                1.3427                                         !
 ! R37   R(35,36)                1.0943                                         !
 ! R38   R(35,37)                1.095                                          !
 ! R39   R(35,38)                1.0946                                         !
 ! R40   R(40,41)                1.0141                                         !
 ! R41   R(40,42)                1.4535                                         !
 ! R42   R(42,43)                1.0919                                         !
 ! R43   R(42,44)                1.5335                                         !
 ! R44   R(42,45)                1.5484                                         !
 ! R45   R(44,48)                1.2333                                         !
 ! R46   R(44,59)                1.3448                                         !
 ! R47   R(45,46)                1.098                                          !
 ! R48   R(45,47)                1.0981                                         !
 ! R49   R(45,49)                1.5371                                         !
 ! R50   R(49,50)                1.0984                                         !
 ! R51   R(49,51)                1.5346                                         !
 ! R52   R(49,55)                1.5335                                         !
 ! R53   R(51,52)                1.0971                                         !
 ! R54   R(51,53)                1.0952                                         !
 ! R55   R(51,54)                1.0965                                         !
 ! R56   R(55,56)                1.0976                                         !
 ! R57   R(55,57)                1.0962                                         !
 ! R58   R(55,58)                1.0937                                         !
 ! R59   R(59,60)                1.016                                          !
 ! R60   R(59,61)                1.4498                                         !
 ! R61   R(61,62)                1.0948                                         !
 ! R62   R(61,63)                1.5333                                         !
 ! R63   R(61,64)                1.5565                                         !
 ! R64   R(63,67)                1.232                                          !
 ! R65   R(63,80)                1.3504                                         !
 ! R66   R(64,65)                1.0953                                         !
 ! R67   R(64,66)                1.0946                                         !
 ! R68   R(64,68)                1.5073                                         !
 ! R69   R(68,69)                1.402                                          !
 ! R70   R(68,71)                1.3994                                         !
 ! R71   R(69,70)                1.0869                                         !
 ! R72   R(69,73)                1.3896                                         !
 ! R73   R(71,72)                1.0878                                         !
 ! R74   R(71,75)                1.3947                                         !
 ! R75   R(73,74)                1.0841                                         !
 ! R76   R(73,79)                1.3977                                         !
 ! R77   R(75,76)                1.0883                                         !
 ! R78   R(75,79)                1.3976                                         !
 ! R79   R(77,78)                0.9697                                         !
 ! R80   R(77,79)                1.3664                                         !
 ! R81   R(80,81)                1.0129                                         !
 ! R82   R(80,82)                1.46                                           !
 ! R83   R(82,83)                1.0901                                         !
 ! R84   R(82,84)                1.5183                                         !
 ! R85   R(82,85)                1.5479                                         !
 ! R86   R(84,88)                1.2162                                         !
 ! R87   R(84,102)               1.3358                                         !
 ! R88   R(85,86)                1.0957                                         !
 ! R89   R(85,87)                1.0958                                         !
 ! R90   R(85,89)                1.5468                                         !
 ! R91   R(89,90)                1.095                                          !
 ! R92   R(89,91)                1.0974                                         !
 ! R93   R(89,92)                1.5597                                         !
 ! R94   R(92,93)                1.0951                                         !
 ! R95   R(92,94)                1.0957                                         !
 ! R96   R(92,95)                1.5513                                         !
 ! R97   R(95,96)                1.0981                                         !
 ! R98   R(95,97)                1.0906                                         !
 ! R99   R(95,98)                1.488                                          !
 ! R100  R(98,99)                1.0189                                         !
 ! R101  R(98,100)               1.0196                                         !
 ! R102  R(98,101)               1.662                                          !
 ! A1    A(2,1,3)              108.5351                                         !
 ! A2    A(2,1,4)              109.4388                                         !
 ! A3    A(2,1,5)              113.2903                                         !
 ! A4    A(3,1,4)              110.5572                                         !
 ! A5    A(3,1,5)              112.6001                                         !
 ! A6    A(4,1,5)              102.2793                                         !
 ! A7    A(1,5,6)              107.6557                                         !
 ! A8    A(1,5,7)              102.6332                                         !
 ! A9    A(1,5,8)              111.4565                                         !
 ! A10   A(6,5,7)              111.4329                                         !
 ! A11   A(6,5,8)              110.5313                                         !
 ! A12   A(7,5,8)              112.7828                                         !
 ! A13   A(5,7,10)             117.7232                                         !
 ! A14   A(5,7,19)             117.3747                                         !
 ! A15   A(10,7,19)            124.8711                                         !
 ! A16   A(5,8,9)              104.7642                                         !
 ! A17   A(5,8,11)             111.2764                                         !
 ! A18   A(5,8,15)             112.2664                                         !
 ! A19   A(9,8,11)             107.5294                                         !
 ! A20   A(9,8,15)             107.9505                                         !
 ! A21   A(11,8,15)            112.5765                                         !
 ! A22   A(8,11,12)            112.4024                                         !
 ! A23   A(8,11,13)            109.8172                                         !
 ! A24   A(8,11,14)            112.0282                                         !
 ! A25   A(12,11,13)           106.2942                                         !
 ! A26   A(12,11,14)           108.1349                                         !
 ! A27   A(13,11,14)           107.9054                                         !
 ! A28   A(8,15,16)            112.3302                                         !
 ! A29   A(8,15,17)            112.1729                                         !
 ! A30   A(8,15,18)            109.4895                                         !
 ! A31   A(16,15,17)           108.0948                                         !
 ! A32   A(16,15,18)           106.558                                          !
 ! A33   A(17,15,18)           107.9509                                         !
 ! A34   A(7,19,20)            119.3978                                         !
 ! A35   A(7,19,21)            123.0932                                         !
 ! A36   A(20,19,21)           117.0717                                         !
 ! A37   A(19,21,22)           107.4296                                         !
 ! A38   A(19,21,23)           110.4969                                         !
 ! A39   A(19,21,24)           109.9931                                         !
 ! A40   A(22,21,23)           108.4949                                         !
 ! A41   A(22,21,24)           109.4001                                         !
 ! A42   A(23,21,24)           110.9405                                         !
 ! A43   A(21,23,27)           120.8155                                         !
 ! A44   A(21,23,30)           114.767                                          !
 ! A45   A(27,23,30)           124.4123                                         !
 ! A46   A(21,24,25)           109.1235                                         !
 ! A47   A(21,24,26)           108.9953                                         !
 ! A48   A(21,24,28)           110.8568                                         !
 ! A49   A(25,24,26)           108.334                                          !
 ! A50   A(25,24,28)           111.9894                                         !
 ! A51   A(26,24,28)           107.4566                                         !
 ! A52   A(24,28,29)           106.0781                                         !
 ! A53   A(23,30,31)           114.6201                                         !
 ! A54   A(23,30,32)           119.1753                                         !
 ! A55   A(31,30,32)           111.5176                                         !
 ! A56   A(30,32,33)           107.1776                                         !
 ! A57   A(30,32,34)           104.5155                                         !
 ! A58   A(30,32,35)           110.5858                                         !
 ! A59   A(33,32,34)           111.5474                                         !
 ! A60   A(33,32,35)           111.3994                                         !
 ! A61   A(34,32,35)           111.3213                                         !
 ! A62   A(32,34,39)           118.4872                                         !
 ! A63   A(32,34,40)           116.2213                                         !
 ! A64   A(39,34,40)           125.1775                                         !
 ! A65   A(32,35,36)           110.2109                                         !
 ! A66   A(32,35,37)           110.1645                                         !
 ! A67   A(32,35,38)           110.7064                                         !
 ! A68   A(36,35,37)           107.8917                                         !
 ! A69   A(36,35,38)           108.4351                                         !
 ! A70   A(37,35,38)           109.3668                                         !
 ! A71   A(34,40,41)           121.2091                                         !
 ! A72   A(34,40,42)           123.7635                                         !
 ! A73   A(41,40,42)           114.7461                                         !
 ! A74   A(40,42,43)           107.3369                                         !
 ! A75   A(40,42,44)           106.8036                                         !
 ! A76   A(40,42,45)           111.2897                                         !
 ! A77   A(43,42,44)           111.639                                          !
 ! A78   A(43,42,45)           110.9689                                         !
 ! A79   A(44,42,45)           108.7385                                         !
 ! A80   A(42,44,48)           120.2038                                         !
 ! A81   A(42,44,59)           115.6007                                         !
 ! A82   A(48,44,59)           124.117                                          !
 ! A83   A(42,45,46)           107.4153                                         !
 ! A84   A(42,45,47)           107.9745                                         !
 ! A85   A(42,45,49)           115.7197                                         !
 ! A86   A(46,45,47)           106.5569                                         !
 ! A87   A(46,45,49)           108.908                                          !
 ! A88   A(47,45,49)           109.865                                          !
 ! A89   A(45,49,50)           107.2274                                         !
 ! A90   A(45,49,51)           109.7977                                         !
 ! A91   A(45,49,55)           113.1256                                         !
 ! A92   A(50,49,51)           107.6607                                         !
 ! A93   A(50,49,55)           108.1428                                         !
 ! A94   A(51,49,55)           110.6681                                         !
 ! A95   A(49,51,52)           110.8629                                         !
 ! A96   A(49,51,53)           110.6737                                         !
 ! A97   A(49,51,54)           111.5071                                         !
 ! A98   A(52,51,53)           107.7203                                         !
 ! A99   A(52,51,54)           107.6743                                         !
 ! A100  A(53,51,54)           108.2567                                         !
 ! A101  A(49,55,56)           110.7154                                         !
 ! A102  A(49,55,57)           109.7153                                         !
 ! A103  A(49,55,58)           112.0141                                         !
 ! A104  A(56,55,57)           107.6489                                         !
 ! A105  A(56,55,58)           108.4584                                         !
 ! A106  A(57,55,58)           108.1541                                         !
 ! A107  A(44,59,60)           122.6094                                         !
 ! A108  A(44,59,61)           123.1225                                         !
 ! A109  A(60,59,61)           114.2652                                         !
 ! A110  A(59,61,62)           108.8834                                         !
 ! A111  A(59,61,63)           106.039                                          !
 ! A112  A(59,61,64)           111.2391                                         !
 ! A113  A(62,61,63)           110.9636                                         !
 ! A114  A(62,61,64)           108.5572                                         !
 ! A115  A(63,61,64)           111.1389                                         !
 ! A116  A(61,63,67)           120.3191                                         !
 ! A117  A(61,63,80)           115.5248                                         !
 ! A118  A(67,63,80)           124.1456                                         !
 ! A119  A(61,64,65)           107.8185                                         !
 ! A120  A(61,64,66)           106.2484                                         !
 ! A121  A(61,64,68)           112.6823                                         !
 ! A122  A(65,64,66)           107.9171                                         !
 ! A123  A(65,64,68)           110.6777                                         !
 ! A124  A(66,64,68)           111.2585                                         !
 ! A125  A(64,68,69)           121.1447                                         !
 ! A126  A(64,68,71)           120.6268                                         !
 ! A127  A(69,68,71)           118.0599                                         !
 ! A128  A(68,69,70)           119.3629                                         !
 ! A129  A(68,69,73)           121.5516                                         !
 ! A130  A(70,69,73)           119.0708                                         !
 ! A131  A(68,71,72)           119.606                                          !
 ! A132  A(68,71,75)           121.0947                                         !
 ! A133  A(72,71,75)           119.2989                                         !
 ! A134  A(69,73,74)           121.2292                                         !
 ! A135  A(69,73,79)           119.5584                                         !
 ! A136  A(74,73,79)           119.1528                                         !
 ! A137  A(71,75,76)           120.1117                                         !
 ! A138  A(71,75,79)           119.8375                                         !
 ! A139  A(76,75,79)           120.0499                                         !
 ! A140  A(78,77,79)           108.8648                                         !
 ! A141  A(73,79,75)           119.879                                          !
 ! A142  A(73,79,77)           117.4566                                         !
 ! A143  A(75,79,77)           122.6625                                         !
 ! A144  A(63,80,81)           119.0059                                         !
 ! A145  A(63,80,82)           122.4057                                         !
 ! A146  A(81,80,82)           116.426                                          !
 ! A147  A(80,82,83)           107.7004                                         !
 ! A148  A(80,82,84)           109.8549                                         !
 ! A149  A(80,82,85)           111.3348                                         !
 ! A150  A(83,82,84)           108.368                                          !
 ! A151  A(83,82,85)           110.3811                                         !
 ! A152  A(84,82,85)           109.1471                                         !
 ! A153  A(82,84,88)           123.2568                                         !
 ! A154  A(82,84,102)          111.5299                                         !
 ! A155  A(88,84,102)          124.8813                                         !
 ! A156  A(82,85,86)           106.5964                                         !
 ! A157  A(82,85,87)           107.9609                                         !
 ! A158  A(82,85,89)           115.8365                                         !
 ! A159  A(86,85,87)           106.8283                                         !
 ! A160  A(86,85,89)           109.87                                           !
 ! A161  A(87,85,89)           109.3548                                         !
 ! A162  A(85,89,90)           106.9148                                         !
 ! A163  A(85,89,91)           109.7013                                         !
 ! A164  A(85,89,92)           116.0955                                         !
 ! A165  A(90,89,91)           105.5831                                         !
 ! A166  A(90,89,92)           107.9256                                         !
 ! A167  A(91,89,92)           110.0409                                         !
 ! A168  A(89,92,93)           107.9275                                         !
 ! A169  A(89,92,94)           109.0476                                         !
 ! A170  A(89,92,95)           116.9462                                         !
 ! A171  A(93,92,94)           105.7973                                         !
 ! A172  A(93,92,95)           108.0072                                         !
 ! A173  A(94,92,95)           108.5556                                         !
 ! A174  A(92,95,96)           109.8632                                         !
 ! A175  A(92,95,97)           110.4821                                         !
 ! A176  A(92,95,98)           112.2328                                         !
 ! A177  A(96,95,97)           107.4088                                         !
 ! A178  A(96,95,98)           110.521                                          !
 ! A179  A(97,95,98)           106.168                                          !
 ! A180  A(95,98,99)           109.6615                                         !
 ! A181  A(95,98,100)          110.1287                                         !
 ! A182  A(95,98,101)          106.6311                                         !
 ! A183  A(99,98,100)          106.8383                                         !
 ! A184  A(99,98,101)          109.7158                                         !
 ! A185  A(100,98,101)         113.8486                                         !
 ! D1    D(2,1,5,6)              8.3159                                         !
 ! D2    D(2,1,5,7)           -109.3508                                         !
 ! D3    D(2,1,5,8)            129.6858                                         !
 ! D4    D(3,1,5,6)           -115.3301                                         !
 ! D5    D(3,1,5,7)            127.0032                                         !
 ! D6    D(3,1,5,8)              6.0398                                         !
 ! D7    D(4,1,5,6)            125.9939                                         !
 ! D8    D(4,1,5,7)              8.3271                                         !
 ! D9    D(4,1,5,8)           -112.6362                                         !
 ! D10   D(1,5,7,10)            -9.0519                                         !
 ! D11   D(1,5,7,19)           172.8755                                         !
 ! D12   D(6,5,7,10)          -124.0064                                         !
 ! D13   D(6,5,7,19)            57.921                                          !
 ! D14   D(8,5,7,10)           110.9965                                         !
 ! D15   D(8,5,7,19)           -67.0761                                         !
 ! D16   D(1,5,8,9)           -179.7734                                         !
 ! D17   D(1,5,8,11)           -63.8679                                         !
 ! D18   D(1,5,8,15)            63.3348                                         !
 ! D19   D(6,5,8,9)            -60.0919                                         !
 ! D20   D(6,5,8,11)            55.8137                                         !
 ! D21   D(6,5,8,15)          -176.9836                                         !
 ! D22   D(7,5,8,9)             65.3947                                         !
 ! D23   D(7,5,8,11)          -178.6998                                         !
 ! D24   D(7,5,8,15)           -51.497                                          !
 ! D25   D(5,7,19,20)            2.1599                                         !
 ! D26   D(5,7,19,21)          174.3429                                         !
 ! D27   D(10,7,19,20)        -175.7604                                         !
 ! D28   D(10,7,19,21)          -3.5775                                         !
 ! D29   D(5,8,11,12)           69.1828                                         !
 ! D30   D(5,8,11,13)         -172.7099                                         !
 ! D31   D(5,8,11,14)          -52.8198                                         !
 ! D32   D(9,8,11,12)         -176.6249                                         !
 ! D33   D(9,8,11,13)          -58.5177                                         !
 ! D34   D(9,8,11,14)           61.3724                                         !
 ! D35   D(15,8,11,12)         -57.8508                                         !
 ! D36   D(15,8,11,13)          60.2564                                         !
 ! D37   D(15,8,11,14)        -179.8535                                         !
 ! D38   D(5,8,15,16)          -63.4593                                         !
 ! D39   D(5,8,15,17)           58.5447                                         !
 ! D40   D(5,8,15,18)          178.3645                                         !
 ! D41   D(9,8,15,16)         -178.4273                                         !
 ! D42   D(9,8,15,17)          -56.4233                                         !
 ! D43   D(9,8,15,18)           63.3966                                         !
 ! D44   D(11,8,15,16)          63.0452                                         !
 ! D45   D(11,8,15,17)        -174.9508                                         !
 ! D46   D(11,8,15,18)         -55.131                                          !
 ! D47   D(7,19,21,22)          32.9554                                         !
 ! D48   D(7,19,21,23)         -85.2296                                         !
 ! D49   D(7,19,21,24)         151.9482                                         !
 ! D50   D(20,19,21,22)       -154.6921                                         !
 ! D51   D(20,19,21,23)         87.123                                          !
 ! D52   D(20,19,21,24)        -35.6992                                         !
 ! D53   D(19,21,23,27)       -118.3025                                         !
 ! D54   D(19,21,23,30)         60.9053                                         !
 ! D55   D(22,21,23,27)        124.166                                          !
 ! D56   D(22,21,23,30)        -56.6262                                         !
 ! D57   D(24,21,23,27)          3.9656                                         !
 ! D58   D(24,21,23,30)       -176.8266                                         !
 ! D59   D(19,21,24,25)         58.3152                                         !
 ! D60   D(19,21,24,26)        -59.8141                                         !
 ! D61   D(19,21,24,28)       -177.8912                                         !
 ! D62   D(22,21,24,25)        176.0938                                         !
 ! D63   D(22,21,24,26)         57.9646                                         !
 ! D64   D(22,21,24,28)        -60.1125                                         !
 ! D65   D(23,21,24,25)        -64.2456                                         !
 ! D66   D(23,21,24,26)        177.6251                                         !
 ! D67   D(23,21,24,28)         59.548                                          !
 ! D68   D(21,23,30,31)         22.6378                                         !
 ! D69   D(21,23,30,32)        158.5228                                         !
 ! D70   D(27,23,30,31)       -158.1869                                         !
 ! D71   D(27,23,30,32)        -22.3019                                         !
 ! D72   D(21,24,28,29)        -69.3363                                         !
 ! D73   D(25,24,28,29)         52.8                                            !
 ! D74   D(26,24,28,29)        171.6551                                         !
 ! D75   D(23,30,32,33)         36.2534                                         !
 ! D76   D(23,30,32,34)        -82.2446                                         !
 ! D77   D(23,30,32,35)        157.858                                          !
 ! D78   D(31,30,32,33)        173.392                                          !
 ! D79   D(31,30,32,34)         54.894                                          !
 ! D80   D(31,30,32,35)        -65.0033                                         !
 ! D81   D(30,32,34,39)        -47.2111                                         !
 ! D82   D(30,32,34,40)        129.1089                                         !
 ! D83   D(33,32,34,39)       -162.6931                                         !
 ! D84   D(33,32,34,40)         13.6269                                         !
 ! D85   D(35,32,34,39)         72.1915                                         !
 ! D86   D(35,32,34,40)       -111.4885                                         !
 ! D87   D(30,32,35,36)       -179.9751                                         !
 ! D88   D(30,32,35,37)         61.0815                                         !
 ! D89   D(30,32,35,38)        -60.0144                                         !
 ! D90   D(33,32,35,36)        -60.8953                                         !
 ! D91   D(33,32,35,37)       -179.8387                                         !
 ! D92   D(33,32,35,38)         59.0654                                         !
 ! D93   D(34,32,35,36)         64.3028                                         !
 ! D94   D(34,32,35,37)        -54.6406                                         !
 ! D95   D(34,32,35,38)       -175.7366                                         !
 ! D96   D(32,34,40,41)         12.4802                                         !
 ! D97   D(32,34,40,42)       -173.937                                          !
 ! D98   D(39,34,40,41)       -171.4774                                         !
 ! D99   D(39,34,40,42)          2.1054                                         !
 ! D100  D(34,40,42,43)        -15.2593                                         !
 ! D101  D(34,40,42,44)       -135.1145                                         !
 ! D102  D(34,40,42,45)        106.3415                                         !
 ! D103  D(41,40,42,43)        158.6986                                         !
 ! D104  D(41,40,42,44)         38.8434                                         !
 ! D105  D(41,40,42,45)        -79.7006                                         !
 ! D106  D(40,42,44,48)        -28.8259                                         !
 ! D107  D(40,42,44,59)        154.2648                                         !
 ! D108  D(43,42,44,48)       -145.8706                                         !
 ! D109  D(43,42,44,59)         37.2201                                         !
 ! D110  D(45,42,44,48)         91.3695                                         !
 ! D111  D(45,42,44,59)        -85.5398                                         !
 ! D112  D(40,42,45,46)         70.5748                                         !
 ! D113  D(40,42,45,47)       -174.8589                                         !
 ! D114  D(40,42,45,49)        -51.2995                                         !
 ! D115  D(43,42,45,46)       -169.9637                                         !
 ! D116  D(43,42,45,47)        -55.3974                                         !
 ! D117  D(43,42,45,49)         68.1619                                         !
 ! D118  D(44,42,45,46)        -46.8008                                         !
 ! D119  D(44,42,45,47)         67.7655                                         !
 ! D120  D(44,42,45,49)       -168.6752                                         !
 ! D121  D(42,44,59,60)         -4.8654                                         !
 ! D122  D(42,44,59,61)        175.7862                                         !
 ! D123  D(48,44,59,60)        178.3611                                         !
 ! D124  D(48,44,59,61)         -0.9873                                         !
 ! D125  D(42,45,49,50)         55.7447                                         !
 ! D126  D(42,45,49,51)        172.4373                                         !
 ! D127  D(42,45,49,55)        -63.3937                                         !
 ! D128  D(46,45,49,50)        -65.3298                                         !
 ! D129  D(46,45,49,51)         51.3628                                         !
 ! D130  D(46,45,49,55)        175.5318                                         !
 ! D131  D(47,45,49,50)        178.3085                                         !
 ! D132  D(47,45,49,51)        -64.9989                                         !
 ! D133  D(47,45,49,55)         59.1701                                         !
 ! D134  D(45,49,51,52)         63.4587                                         !
 ! D135  D(45,49,51,53)       -177.0718                                         !
 ! D136  D(45,49,51,54)        -56.502                                          !
 ! D137  D(50,49,51,52)        179.8789                                         !
 ! D138  D(50,49,51,53)        -60.6517                                         !
 ! D139  D(50,49,51,54)         59.9182                                         !
 ! D140  D(55,49,51,52)        -62.1275                                         !
 ! D141  D(55,49,51,53)         57.3419                                         !
 ! D142  D(55,49,51,54)        177.9117                                         !
 ! D143  D(45,49,55,56)        -61.3763                                         !
 ! D144  D(45,49,55,57)        179.9485                                         !
 ! D145  D(45,49,55,58)         59.8234                                         !
 ! D146  D(50,49,55,56)       -179.9854                                         !
 ! D147  D(50,49,55,57)         61.3395                                         !
 ! D148  D(50,49,55,58)        -58.7857                                         !
 ! D149  D(51,49,55,56)         62.3159                                         !
 ! D150  D(51,49,55,57)        -56.3593                                         !
 ! D151  D(51,49,55,58)       -176.4844                                         !
 ! D152  D(44,59,61,62)        -43.0282                                         !
 ! D153  D(44,59,61,63)       -162.4855                                         !
 ! D154  D(44,59,61,64)         76.5629                                         !
 ! D155  D(60,59,61,62)        137.5739                                         !
 ! D156  D(60,59,61,63)         18.1166                                         !
 ! D157  D(60,59,61,64)       -102.835                                          !
 ! D158  D(59,61,63,67)        -24.6155                                         !
 ! D159  D(59,61,63,80)        156.5111                                         !
 ! D160  D(62,61,63,67)       -142.6996                                         !
 ! D161  D(62,61,63,80)         38.427                                          !
 ! D162  D(64,61,63,67)         96.4008                                         !
 ! D163  D(64,61,63,80)        -82.4726                                         !
 ! D164  D(59,61,64,65)         58.0649                                         !
 ! D165  D(59,61,64,66)        -57.4193                                         !
 ! D166  D(59,61,64,68)       -179.5009                                         !
 ! D167  D(62,61,64,65)        177.85                                           !
 ! D168  D(62,61,64,66)         62.3658                                         !
 ! D169  D(62,61,64,68)        -59.7158                                         !
 ! D170  D(63,61,64,65)        -59.8452                                         !
 ! D171  D(63,61,64,66)       -175.3294                                         !
 ! D172  D(63,61,64,68)         62.589                                          !
 ! D173  D(61,63,80,81)          4.5407                                         !
 ! D174  D(61,63,80,82)        167.2225                                         !
 ! D175  D(67,63,80,81)       -174.2843                                         !
 ! D176  D(67,63,80,82)        -11.6024                                         !
 ! D177  D(61,64,68,69)       -102.1622                                         !
 ! D178  D(61,64,68,71)         73.0277                                         !
 ! D179  D(65,64,68,69)         18.6505                                         !
 ! D180  D(65,64,68,71)       -166.1597                                         !
 ! D181  D(66,64,68,69)        138.6286                                         !
 ! D182  D(66,64,68,71)        -46.1816                                         !
 ! D183  D(64,68,69,70)         -3.771                                          !
 ! D184  D(64,68,69,73)        174.8165                                         !
 ! D185  D(71,68,69,70)       -179.0807                                         !
 ! D186  D(71,68,69,73)         -0.4933                                         !
 ! D187  D(64,68,71,72)          5.3369                                         !
 ! D188  D(64,68,71,75)       -174.4182                                         !
 ! D189  D(69,68,71,72)       -179.328                                          !
 ! D190  D(69,68,71,75)          0.9169                                         !
 ! D191  D(68,69,73,74)       -177.8863                                         !
 ! D192  D(68,69,73,79)         -0.7174                                         !
 ! D193  D(70,69,73,74)          0.7051                                         !
 ! D194  D(70,69,73,79)        177.874                                          !
 ! D195  D(68,71,75,76)        179.5067                                         !
 ! D196  D(68,71,75,79)         -0.1279                                         !
 ! D197  D(72,71,75,76)         -0.2491                                         !
 ! D198  D(72,71,75,79)       -179.8837                                         !
 ! D199  D(69,73,79,75)          1.5189                                         !
 ! D200  D(69,73,79,77)       -177.999                                          !
 ! D201  D(74,73,79,75)        178.7469                                         !
 ! D202  D(74,73,79,77)         -0.7709                                         !
 ! D203  D(71,75,79,73)         -1.1057                                         !
 ! D204  D(71,75,79,77)        178.3862                                         !
 ! D205  D(76,75,79,73)        179.2595                                         !
 ! D206  D(76,75,79,77)         -1.2487                                         !
 ! D207  D(78,77,79,73)       -178.9292                                         !
 ! D208  D(78,77,79,75)          1.5674                                         !
 ! D209  D(63,80,82,83)        -14.4527                                         !
 ! D210  D(63,80,82,84)       -132.2878                                         !
 ! D211  D(63,80,82,85)        106.6865                                         !
 ! D212  D(81,80,82,83)        148.6464                                         !
 ! D213  D(81,80,82,84)         30.8113                                         !
 ! D214  D(81,80,82,85)        -90.2144                                         !
 ! D215  D(80,82,84,88)        131.0214                                         !
 ! D216  D(80,82,84,102)       -55.3097                                         !
 ! D217  D(83,82,84,88)         13.6015                                         !
 ! D218  D(83,82,84,102)      -172.7295                                         !
 ! D219  D(85,82,84,88)       -106.6456                                         !
 ! D220  D(85,82,84,102)        67.0233                                         !
 ! D221  D(80,82,85,86)        -72.576                                          !
 ! D222  D(80,82,85,87)         41.8918                                         !
 ! D223  D(80,82,85,89)        164.8516                                         !
 ! D224  D(83,82,85,86)         46.9829                                         !
 ! D225  D(83,82,85,87)        161.4507                                         !
 ! D226  D(83,82,85,89)        -75.5896                                         !
 ! D227  D(84,82,85,86)        165.985                                          !
 ! D228  D(84,82,85,87)        -79.5472                                         !
 ! D229  D(84,82,85,89)         43.4126                                         !
 ! D230  D(82,85,89,90)        151.3895                                         !
 ! D231  D(82,85,89,91)         37.3645                                         !
 ! D232  D(82,85,89,92)        -88.1353                                         !
 ! D233  D(86,85,89,90)         30.5635                                         !
 ! D234  D(86,85,89,91)        -83.4615                                         !
 ! D235  D(86,85,89,92)        151.0387                                         !
 ! D236  D(87,85,89,90)        -86.387                                          !
 ! D237  D(87,85,89,91)        159.588                                          !
 ! D238  D(87,85,89,92)         34.0882                                         !
 ! D239  D(85,89,92,93)       -128.4566                                         !
 ! D240  D(85,89,92,94)        -13.9752                                         !
 ! D241  D(85,89,92,95)        109.6094                                         !
 ! D242  D(90,89,92,93)         -8.5263                                         !
 ! D243  D(90,89,92,94)        105.9551                                         !
 ! D244  D(90,89,92,95)       -130.4603                                         !
 ! D245  D(91,89,92,93)        106.2162                                         !
 ! D246  D(91,89,92,94)       -139.3024                                         !
 ! D247  D(91,89,92,95)        -15.7178                                         !
 ! D248  D(89,92,95,96)        117.135                                          !
 ! D249  D(89,92,95,97)         -1.1934                                         !
 ! D250  D(89,92,95,98)       -119.475                                          !
 ! D251  D(93,92,95,96)         -4.7574                                         !
 ! D252  D(93,92,95,97)       -123.0859                                         !
 ! D253  D(93,92,95,98)        118.6325                                         !
 ! D254  D(94,92,95,96)       -119.0293                                         !
 ! D255  D(94,92,95,97)        122.6422                                         !
 ! D256  D(94,92,95,98)          4.3606                                         !
 ! D257  D(92,95,98,99)        171.1409                                         !
 ! D258  D(92,95,98,100)       -71.5642                                         !
 ! D259  D(92,95,98,101)        52.4158                                         !
 ! D260  D(96,95,98,99)        -65.8388                                         !
 ! D261  D(96,95,98,100)        51.4561                                         !
 ! D262  D(96,95,98,101)       175.4361                                         !
 ! D263  D(97,95,98,99)         50.3375                                         !
 ! D264  D(97,95,98,100)       167.6324                                         !
 ! D265  D(97,95,98,101)       -68.3876                                         !
 --------------------------------------------------------------------------------
 Symmetry turned off by external request.
 Stoichiometry    C32H54N7O9(1+)
 Framework group  C1[X(C32H54N7O9)]
 Deg. of freedom   300
 Full point group                 C1      NOp   1
                          Input orientation:                          
 ---------------------------------------------------------------------
 Center     Atomic      Atomic             Coordinates (Angstroms)
 Number     Number       Type             X           Y           Z
 ---------------------------------------------------------------------
      1          7           0       -5.311220    4.977488    3.965618
      2          1           0       -5.418789    5.263888    4.941937
      3          1           0       -5.454217    5.796667    3.368528
      4          1           0       -4.338646    4.575048    3.820262
      5          6           0       -6.202510    3.813551    3.580849
      6          1           0       -6.884639    3.628823    4.414274
      7          6           0       -5.191616    2.655266    3.410439
      8          6           0       -6.994610    4.111471    2.288075
      9          1           0       -7.597941    3.210767    2.115830
     10          8           0       -3.984061    2.935259    3.435373
     11          6           0       -7.962903    5.285503    2.486322
     12          1           0       -7.439642    6.244036    2.607065
     13          1           0       -8.600486    5.393010    1.604751
     14          1           0       -8.612597    5.139820    3.356068
     15          6           0       -6.074888    4.304442    1.073561
     16          1           0       -5.415632    5.176028    1.183629
     17          1           0       -5.449134    3.426522    0.885731
     18          1           0       -6.681273    4.483105    0.181539
     19          7           0       -5.686190    1.435915    3.208361
     20          1           0       -6.689577    1.311090    3.140108
     21          6           0       -4.844152    0.266613    2.910665
     22          1           0       -3.897953    0.400262    3.442796
     23          6           0       -4.547336    0.184774    1.395011
     24          6           0       -5.531386   -1.015319    3.405636
     25          1           0       -6.515690   -1.108595    2.918342
     26          1           0       -5.687838   -0.941143    4.485967
     27          8           0       -4.917986   -0.779232    0.733281
     28          8           0       -4.722078   -2.137290    3.173716
     29          1           0       -4.706506   -2.263699    2.208049
     30          7           0       -3.874773    1.256999    0.885573
     31          1           0       -3.341614    1.788854    1.571970
     32          6           0       -3.130601    1.104303   -0.375982
     33          1           0       -3.707719    0.430673   -1.010963
     34          6           0       -1.787486    0.476159    0.041636
     35          6           0       -2.924817    2.460011   -1.044883
     36          1           0       -2.371896    2.339420   -1.981488
     37          1           0       -2.341756    3.118224   -0.392389
     38          1           0       -3.887089    2.930944   -1.269182
     39          8           0       -1.182510    0.963839    0.999572
     40          7           0       -1.409532   -0.620312   -0.634880
     41          1           0       -1.878099   -0.897375   -1.490508
     42          6           0       -0.241610   -1.416232   -0.295620
     43          1           0        0.373473   -0.819457    0.381035
     44          6           0        0.489412   -1.713547   -1.610435
     45          6           0       -0.647373   -2.757873    0.362301
     46          1           0       -1.101810   -3.382388   -0.418095
     47          1           0        0.270256   -3.271184    0.678995
     48          8           0       -0.140519   -1.783953   -2.668362
     49          6           0       -1.621987   -2.652385    1.546201
     50          1           0       -2.507294   -2.107614    1.191221
     51          6           0       -2.077638   -4.054853    1.970873
     52          1           0       -1.229226   -4.647957    2.334362
     53          1           0       -2.812930   -3.993950    2.780298
     54          1           0       -2.531389   -4.600424    1.134926
     55          6           0       -1.038193   -1.888152    2.740636
     56          1           0       -0.147539   -2.397997    3.130005
     57          1           0       -1.777033   -1.845685    3.549361
     58          1           0       -0.762754   -0.863157    2.476527
     59          7           0        1.809348   -1.946970   -1.501518
     60          1           0        2.310223   -1.858748   -0.621999
     61          6           0        2.641276   -2.331186   -2.625011
     62          1           0        2.109057   -3.080185   -3.220186
     63          6           0        3.922545   -2.919064   -2.021891
     64          6           0        2.958733   -1.109304   -3.535427
     65          1           0        3.455977   -0.352485   -2.919302
     66          1           0        1.992518   -0.704051   -3.852037
     67          8           0        4.282249   -2.594977   -0.888979
     68          6           0        3.813264   -1.475022   -4.722013
     69          6           0        5.186427   -1.192780   -4.741212
     70          1           0        5.629980   -0.646965   -3.912507
     71          6           0        3.274422   -2.196250   -5.793395
     72          1           0        2.209925   -2.419664   -5.809579
     73          6           0        6.001996   -1.619608   -5.782176
     74          1           0        7.068954   -1.427800   -5.775181
     75          6           0        4.080842   -2.639467   -6.841456
     76          1           0        3.646316   -3.206041   -7.662745
     77          8           0        6.298619   -2.794239   -7.810492
     78          1           0        5.786470   -3.276334   -8.478056
     79          6           0        5.450317   -2.360848   -6.830884
     80          7           0        4.604773   -3.768493   -2.819822
     81          1           0        4.285020   -3.913661   -3.769935
     82          6           0        5.966423   -4.201141   -2.519246
     83          1           0        6.362612   -3.538206   -1.749952
     84          6           0        6.834640   -4.069398   -3.757875
     85          6           0        5.996015   -5.670226   -2.032389
     86          1           0        5.579627   -5.672502   -1.018919
     87          1           0        5.307675   -6.247961   -2.659471
     88          8           0        7.922749   -3.526017   -3.754969
     89          6           0        7.384259   -6.352397   -2.031936
     90          1           0        7.367206   -7.108965   -1.240523
     91          1           0        8.152130   -5.628398   -1.731152
     92          6           0        7.803519   -7.055713   -3.359455
     93          1           0        8.115248   -8.076867   -3.116037
     94          1           0        6.922969   -7.158145   -4.003414
     95          6           0        8.939848   -6.389965   -4.179216
     96          1           0        9.802078   -7.067223   -4.240087
     97          1           0        9.277325   -5.475171   -3.690653
     98          7           0        8.492410   -5.991463   -5.541211
     99          1           0        9.215946   -5.431508   -5.989588
    100          1           0        8.356668   -6.818498   -6.121938
    101          1           0        7.118761   -5.077318   -5.342147
    102          8           0        6.316537   -4.736237   -4.792892
 ---------------------------------------------------------------------
 Rotational constants (GHZ):           0.1468334           0.0179085           0.0168219
 Standard basis: 6-31G(d) (6D, 7F)
   828 basis functions,  1560 primitive gaussians,   828 cartesian basis functions
   183 alpha electrons      183 beta electrons
       nuclear repulsion energy      6310.6448652735 Hartrees.
 NAtoms=  102 NActive=  102 NUniq=  102 SFac= 1.00D+00 NAtFMM=   60 NAOKFM=T Big=T
 Integral buffers will be    131072 words long.
 Raffenetti 2 integral format.
 Two-electron integral symmetry is turned off.
 Nuclear repulsion after empirical dispersion term =     6310.4232042415 Hartrees.
 One-electron integrals computed using PRISM.
 NBasis=   828 RedAO= T EigKep=  4.26D-04  NBF=   828
 NBsUse=   828 1.00D-06 EigRej= -1.00D+00 NBFU=   828
 Initial guess from the checkpoint file:  "conf-270.chk"
 B after Tr=     0.000000    0.000000    0.000000
         Rot=    1.000000    0.000000    0.000000    0.000000 Ang=   0.00 deg.
 Requested convergence on RMS density matrix=1.00D-08 within 128 cycles.
 Requested convergence on MAX density matrix=1.00D-06.
 Requested convergence on             energy=1.00D-06.
 No special actions if energy rises.
 SCF Done:  E(RB3LYP) =  -2312.29435891     A.U. after    1 cycles
            NFock=  1  Conv=0.67D-08     -V/T= 2.0093
 Hyperfine terms turned off by default for NAtoms > 100.

 **********************************************************************

            Population analysis using the SCF Density.

 **********************************************************************

 Alpha  occ. eigenvalues --  -19.29227 -19.23078 -19.23053 -19.21849 -19.19930
 Alpha  occ. eigenvalues --  -19.18637 -19.17097 -19.16522 -19.16430 -14.61676
 Alpha  occ. eigenvalues --  -14.52658 -14.45728 -14.43117 -14.41318 -14.40766
 Alpha  occ. eigenvalues --  -14.39107 -10.45857 -10.42563 -10.39716 -10.36419
 Alpha  occ. eigenvalues --  -10.35939 -10.35213 -10.34300 -10.34243 -10.33762
 Alpha  occ. eigenvalues --  -10.33575 -10.32612 -10.31832 -10.31792 -10.29183
 Alpha  occ. eigenvalues --  -10.28856 -10.28498 -10.26896 -10.26871 -10.25685
 Alpha  occ. eigenvalues --  -10.24311 -10.24118 -10.23800 -10.23357 -10.23195
 Alpha  occ. eigenvalues --  -10.23171 -10.22899 -10.22835 -10.22726 -10.22692
 Alpha  occ. eigenvalues --  -10.22198 -10.22035 -10.21699  -1.21708  -1.15845
 Alpha  occ. eigenvalues --   -1.14892  -1.12029  -1.10998  -1.10681  -1.09885
 Alpha  occ. eigenvalues --   -1.09215  -1.08788  -1.08231  -1.03317  -1.02335
 Alpha  occ. eigenvalues --   -0.99606  -0.97996  -0.97342  -0.97295  -0.94431
 Alpha  occ. eigenvalues --   -0.90276  -0.89608  -0.87250  -0.86433  -0.84874
 Alpha  occ. eigenvalues --   -0.84615  -0.83485  -0.83269  -0.80711  -0.79410
 Alpha  occ. eigenvalues --   -0.78840  -0.76834  -0.76657  -0.75934  -0.75666
 Alpha  occ. eigenvalues --   -0.75088  -0.73459  -0.73408  -0.72933  -0.72761
 Alpha  occ. eigenvalues --   -0.71292  -0.70141  -0.68331  -0.67066  -0.67023
 Alpha  occ. eigenvalues --   -0.66319  -0.65846  -0.64576  -0.64413  -0.64089
 Alpha  occ. eigenvalues --   -0.63590  -0.63255  -0.62314  -0.61952  -0.61622
 Alpha  occ. eigenvalues --   -0.61408  -0.61163  -0.60012  -0.59687  -0.58412
 Alpha  occ. eigenvalues --   -0.58358  -0.57568  -0.57447  -0.56243  -0.55067
 Alpha  occ. eigenvalues --   -0.54848  -0.54469  -0.54247  -0.53961  -0.53626
 Alpha  occ. eigenvalues --   -0.53097  -0.52769  -0.52675  -0.52596  -0.51748
 Alpha  occ. eigenvalues --   -0.51534  -0.51144  -0.50878  -0.50819  -0.50287
 Alpha  occ. eigenvalues --   -0.50072  -0.49996  -0.49704  -0.49330  -0.49169
 Alpha  occ. eigenvalues --   -0.49087  -0.48896  -0.48729  -0.48231  -0.48117
 Alpha  occ. eigenvalues --   -0.47685  -0.47130  -0.46727  -0.46478  -0.46225
 Alpha  occ. eigenvalues --   -0.45648  -0.45245  -0.45004  -0.44912  -0.44666
 Alpha  occ. eigenvalues --   -0.44305  -0.43960  -0.43837  -0.43621  -0.43438
 Alpha  occ. eigenvalues --   -0.43084  -0.42895  -0.42797  -0.42523  -0.42471
 Alpha  occ. eigenvalues --   -0.41963  -0.41319  -0.40999  -0.40211  -0.39611
 Alpha  occ. eigenvalues --   -0.39073  -0.37892  -0.37706  -0.37652  -0.37623
 Alpha  occ. eigenvalues --   -0.37447  -0.37325  -0.36992  -0.36916  -0.36750
 Alpha  occ. eigenvalues --   -0.36347  -0.35333  -0.33692  -0.33080  -0.32240
 Alpha  occ. eigenvalues --   -0.32061  -0.31302  -0.31205  -0.30575  -0.30208
 Alpha  occ. eigenvalues --   -0.29217  -0.28285  -0.25587
 Alpha virt. eigenvalues --   -0.14743  -0.12976  -0.10218  -0.08309  -0.07113
 Alpha virt. eigenvalues --   -0.05100  -0.04543  -0.04330  -0.03858  -0.03434
 Alpha virt. eigenvalues --   -0.02819  -0.02440  -0.02307  -0.01212  -0.00840
 Alpha virt. eigenvalues --    0.00338   0.00754   0.01089   0.02310   0.02412
 Alpha virt. eigenvalues --    0.02434   0.02921   0.02946   0.03546   0.03865
 Alpha virt. eigenvalues --    0.04302   0.04458   0.05199   0.05349   0.05698
 Alpha virt. eigenvalues --    0.05829   0.05972   0.06301   0.06779   0.07138
 Alpha virt. eigenvalues --    0.07372   0.07426   0.08058   0.08198   0.08351
 Alpha virt. eigenvalues --    0.08614   0.08866   0.09049   0.09366   0.09484
 Alpha virt. eigenvalues --    0.09745   0.09827   0.10365   0.10398   0.10833
 Alpha virt. eigenvalues --    0.11078   0.11487   0.11711   0.11834   0.11938
 Alpha virt. eigenvalues --    0.12116   0.12405   0.12512   0.12771   0.13558
 Alpha virt. eigenvalues --    0.13865   0.14053   0.14116   0.14211   0.14429
 Alpha virt. eigenvalues --    0.14627   0.14774   0.15259   0.15766   0.15828
 Alpha virt. eigenvalues --    0.16243   0.16388   0.16858   0.17318   0.17540
 Alpha virt. eigenvalues --    0.17717   0.18155   0.18307   0.18937   0.19188
 Alpha virt. eigenvalues --    0.19645   0.19847   0.20800   0.21054   0.21565
 Alpha virt. eigenvalues --    0.21680   0.21753   0.21892   0.22746   0.23019
 Alpha virt. eigenvalues --    0.23458   0.24940   0.25122   0.26024   0.27064
 Alpha virt. eigenvalues --    0.27382   0.27612   0.28310   0.28756   0.29755
 Alpha virt. eigenvalues --    0.30013   0.30476   0.31086   0.31794   0.32691
 Alpha virt. eigenvalues --    0.33384   0.34614   0.34808   0.35399   0.35539
 Alpha virt. eigenvalues --    0.36128   0.37777   0.38886   0.39442   0.40652
 Alpha virt. eigenvalues --    0.42336   0.42464   0.42791   0.43855   0.44445
 Alpha virt. eigenvalues --    0.44524   0.44767   0.45386   0.45692   0.45872
 Alpha virt. eigenvalues --    0.46570   0.46902   0.46928   0.47525   0.47767
 Alpha virt. eigenvalues --    0.48220   0.48550   0.48814   0.48940   0.49296
 Alpha virt. eigenvalues --    0.49745   0.49960   0.50272   0.50514   0.50654
 Alpha virt. eigenvalues --    0.50861   0.51091   0.51587   0.52016   0.53081
 Alpha virt. eigenvalues --    0.53199   0.53848   0.53969   0.54402   0.54676
 Alpha virt. eigenvalues --    0.54711   0.55285   0.55517   0.55609   0.55829
 Alpha virt. eigenvalues --    0.56752   0.56988   0.57336   0.57852   0.58007
 Alpha virt. eigenvalues --    0.58355   0.58559   0.58883   0.59016   0.59564
 Alpha virt. eigenvalues --    0.59846   0.60092   0.60480   0.60614   0.60945
 Alpha virt. eigenvalues --    0.61397   0.61625   0.61859   0.62186   0.63019
 Alpha virt. eigenvalues --    0.63675   0.63931   0.64080   0.64731   0.65036
 Alpha virt. eigenvalues --    0.65429   0.65709   0.65966   0.66397   0.66650
 Alpha virt. eigenvalues --    0.67324   0.67538   0.67993   0.68582   0.69049
 Alpha virt. eigenvalues --    0.69683   0.69975   0.70307   0.70397   0.70711
 Alpha virt. eigenvalues --    0.71175   0.71762   0.72043   0.72269   0.72527
 Alpha virt. eigenvalues --    0.73200   0.73729   0.74039   0.74178   0.74734
 Alpha virt. eigenvalues --    0.74917   0.75321   0.75858   0.76149   0.76562
 Alpha virt. eigenvalues --    0.76610   0.77360   0.77429   0.77854   0.78178
 Alpha virt. eigenvalues --    0.78347   0.78689   0.78835   0.79109   0.79444
 Alpha virt. eigenvalues --    0.79550   0.79679   0.79882   0.79921   0.80320
 Alpha virt. eigenvalues --    0.80444   0.80534   0.81284   0.81451   0.81567
 Alpha virt. eigenvalues --    0.82406   0.82580   0.82734   0.83079   0.83204
 Alpha virt. eigenvalues --    0.83362   0.83674   0.83787   0.84372   0.84717
 Alpha virt. eigenvalues --    0.84828   0.84914   0.85173   0.85372   0.85531
 Alpha virt. eigenvalues --    0.85898   0.86242   0.86290   0.86450   0.86907
 Alpha virt. eigenvalues --    0.86966   0.87380   0.87507   0.87769   0.87999
 Alpha virt. eigenvalues --    0.88449   0.89155   0.89447   0.89736   0.89921
 Alpha virt. eigenvalues --    0.90064   0.90620   0.90637   0.91154   0.91549
 Alpha virt. eigenvalues --    0.91803   0.92274   0.92953   0.93028   0.93104
 Alpha virt. eigenvalues --    0.93461   0.93808   0.94402   0.95310   0.95525
 Alpha virt. eigenvalues --    0.96116   0.96746   0.97151   0.97625   0.97733
 Alpha virt. eigenvalues --    0.98646   0.99370   0.99960   1.00821   1.01373
 Alpha virt. eigenvalues --    1.01743   1.02360   1.03500   1.03753   1.03967
 Alpha virt. eigenvalues --    1.04547   1.05397   1.05930   1.06363   1.07214
 Alpha virt. eigenvalues --    1.07417   1.09377   1.09698   1.10033   1.10510
 Alpha virt. eigenvalues --    1.11382   1.11656   1.12392   1.13402   1.13697
 Alpha virt. eigenvalues --    1.14465   1.15423   1.15887   1.16107   1.17266
 Alpha virt. eigenvalues --    1.18390   1.18679   1.19551   1.19675   1.20496
 Alpha virt. eigenvalues --    1.20885   1.21037   1.22026   1.23192   1.23770
 Alpha virt. eigenvalues --    1.24388   1.25017   1.25597   1.26513   1.27256
 Alpha virt. eigenvalues --    1.27588   1.28233   1.29220   1.29592   1.30276
 Alpha virt. eigenvalues --    1.30656   1.31974   1.33173   1.33490   1.34270
 Alpha virt. eigenvalues --    1.35529   1.36677   1.37426   1.38491   1.38735
 Alpha virt. eigenvalues --    1.39539   1.39723   1.40134   1.40651   1.40763
 Alpha virt. eigenvalues --    1.41746   1.41982   1.42426   1.43076   1.43866
 Alpha virt. eigenvalues --    1.44575   1.44787   1.45438   1.45896   1.46124
 Alpha virt. eigenvalues --    1.47274   1.47591   1.47701   1.48332   1.49458
 Alpha virt. eigenvalues --    1.50279   1.50853   1.51499   1.53329   1.53797
 Alpha virt. eigenvalues --    1.54932   1.55897   1.56289   1.57264   1.57320
 Alpha virt. eigenvalues --    1.57810   1.58712   1.58953   1.59349   1.60433
 Alpha virt. eigenvalues --    1.60620   1.61634   1.62160   1.63058   1.63300
 Alpha virt. eigenvalues --    1.63824   1.64445   1.65184   1.66343   1.66999
 Alpha virt. eigenvalues --    1.67440   1.68039   1.68727   1.69090   1.69318
 Alpha virt. eigenvalues --    1.69582   1.69921   1.70454   1.70794   1.70976
 Alpha virt. eigenvalues --    1.71895   1.72821   1.73393   1.73787   1.74280
 Alpha virt. eigenvalues --    1.74632   1.75612   1.75980   1.76326   1.76581
 Alpha virt. eigenvalues --    1.77183   1.77734   1.78417   1.78551   1.79402
 Alpha virt. eigenvalues --    1.79593   1.80000   1.80212   1.80789   1.81255
 Alpha virt. eigenvalues --    1.82002   1.82411   1.82917   1.83194   1.83678
 Alpha virt. eigenvalues --    1.83909   1.84074   1.84597   1.84714   1.85124
 Alpha virt. eigenvalues --    1.85419   1.85546   1.86002   1.86377   1.86957
 Alpha virt. eigenvalues --    1.87634   1.87956   1.88550   1.89089   1.89496
 Alpha virt. eigenvalues --    1.90105   1.90819   1.91095   1.91598   1.91926
 Alpha virt. eigenvalues --    1.92419   1.93027   1.93380   1.93945   1.94053
 Alpha virt. eigenvalues --    1.94520   1.95172   1.95576   1.95867   1.96208
 Alpha virt. eigenvalues --    1.97450   1.97848   1.97853   1.98194   1.98467
 Alpha virt. eigenvalues --    1.98756   1.98912   1.99732   2.00044   2.00812
 Alpha virt. eigenvalues --    2.01182   2.01896   2.02540   2.03414   2.03760
 Alpha virt. eigenvalues --    2.04268   2.05015   2.05357   2.05780   2.06516
 Alpha virt. eigenvalues --    2.07160   2.07649   2.08354   2.08429   2.08733
 Alpha virt. eigenvalues --    2.10036   2.11025   2.11146   2.11571   2.12229
 Alpha virt. eigenvalues --    2.12556   2.13198   2.13993   2.15419   2.15501
 Alpha virt. eigenvalues --    2.16583   2.16803   2.17500   2.18044   2.18705
 Alpha virt. eigenvalues --    2.19140   2.19366   2.20232   2.21050   2.21076
 Alpha virt. eigenvalues --    2.21884   2.22370   2.22613   2.22865   2.23669
 Alpha virt. eigenvalues --    2.24272   2.24477   2.26584   2.27033   2.27482
 Alpha virt. eigenvalues --    2.29027   2.29123   2.30293   2.30781   2.32040
 Alpha virt. eigenvalues --    2.32683   2.33581   2.33904   2.34318   2.34599
 Alpha virt. eigenvalues --    2.34944   2.35817   2.36334   2.36792   2.37956
 Alpha virt. eigenvalues --    2.38345   2.38703   2.39199   2.39721   2.40527
 Alpha virt. eigenvalues --    2.41975   2.42490   2.42823   2.43154   2.43569
 Alpha virt. eigenvalues --    2.45208   2.45399   2.46340   2.47056   2.47309
 Alpha virt. eigenvalues --    2.48318   2.48514   2.49117   2.49486   2.50588
 Alpha virt. eigenvalues --    2.51932   2.53478   2.54476   2.55320   2.55973
 Alpha virt. eigenvalues --    2.56159   2.56498   2.57249   2.58239   2.58514
 Alpha virt. eigenvalues --    2.59585   2.60768   2.62261   2.62441   2.62965
 Alpha virt. eigenvalues --    2.64079   2.65316   2.65507   2.65757   2.66714
 Alpha virt. eigenvalues --    2.68151   2.68377   2.69023   2.70492   2.70933
 Alpha virt. eigenvalues --    2.72517   2.73033   2.73904   2.75202   2.75474
 Alpha virt. eigenvalues --    2.75737   2.78666   2.79311   2.82340   2.83289
 Alpha virt. eigenvalues --    2.84468   2.85128   2.86245   2.86700   2.88188
 Alpha virt. eigenvalues --    2.88904   2.90984   2.92305   2.92801   2.93643
 Alpha virt. eigenvalues --    2.95011   2.96010   2.98168   2.99602   3.02250
 Alpha virt. eigenvalues --    3.03280   3.07547   3.08072   3.10226   3.13527
 Alpha virt. eigenvalues --    3.16919   3.38239   3.62529   3.74913   3.80442
 Alpha virt. eigenvalues --    3.91544   3.92914   3.93236   3.96792   3.97621
 Alpha virt. eigenvalues --    3.99198   4.00932   4.04271   4.04999   4.06581
 Alpha virt. eigenvalues --    4.08690   4.08955   4.10455   4.12372   4.13386
 Alpha virt. eigenvalues --    4.14675   4.15173   4.16337   4.21790   4.23501
 Alpha virt. eigenvalues --    4.23593   4.23768   4.24932   4.25418   4.28888
 Alpha virt. eigenvalues --    4.30358   4.30759   4.33071   4.33731   4.35919
 Alpha virt. eigenvalues --    4.36732   4.39303   4.44043   4.45299   4.46454
 Alpha virt. eigenvalues --    4.48295   4.49862   4.51743   4.53435   4.53668
 Alpha virt. eigenvalues --    4.57298   4.60895   4.65150   4.67083   4.73773
          Condensed to atoms (all electrons):
 Mulliken charges:
               1
     1  N   -0.760083
     2  H    0.421513
     3  H    0.414087
     4  H    0.441390
     5  C   -0.105316
     6  H    0.216643
     7  C    0.667933
     8  C   -0.124080
     9  H    0.177066
    10  O   -0.543190
    11  C   -0.466444
    12  H    0.144723
    13  H    0.206138
    14  H    0.174381
    15  C   -0.493660
    16  H    0.142200
    17  H    0.206903
    18  H    0.198720
    19  N   -0.593494
    20  H    0.357070
    21  C   -0.118507
    22  H    0.230464
    23  C    0.634927
    24  C   -0.031245
    25  H    0.137345
    26  H    0.163418
    27  O   -0.514233
    28  O   -0.608701
    29  H    0.434935
    30  N   -0.601349
    31  H    0.365336
    32  C   -0.071463
    33  H    0.183735
    34  C    0.624664
    35  C   -0.459951
    36  H    0.181423
    37  H    0.167331
    38  H    0.153978
    39  O   -0.544589
    40  N   -0.582202
    41  H    0.351729
    42  C   -0.082899
    43  H    0.185304
    44  C    0.635731
    45  C   -0.257825
    46  H    0.148242
    47  H    0.148985
    48  O   -0.555394
    49  C   -0.076672
    50  H    0.114657
    51  C   -0.458907
    52  H    0.146440
    53  H    0.161298
    54  H    0.140469
    55  C   -0.481899
    56  H    0.140837
    57  H    0.142178
    58  H    0.176367
    59  N   -0.619435
    60  H    0.356488
    61  C   -0.037891
    62  H    0.172413
    63  C    0.610874
    64  C   -0.351625
    65  H    0.155302
    66  H    0.179269
    67  O   -0.544866
    68  C    0.141942
    69  C   -0.193213
    70  H    0.140578
    71  C   -0.212174
    72  H    0.138923
    73  C   -0.157565
    74  H    0.159405
    75  C   -0.189653
    76  H    0.123174
    77  O   -0.643916
    78  H    0.408005
    79  C    0.367383
    80  N   -0.610479
    81  H    0.358937
    82  C   -0.020253
    83  H    0.191127
    84  C    0.609986
    85  C   -0.267602
    86  H    0.157402
    87  H    0.147805
    88  O   -0.503190
    89  C   -0.290709
    90  H    0.146748
    91  H    0.159341
    92  C   -0.283937
    93  H    0.145366
    94  H    0.155345
    95  C   -0.160407
    96  H    0.142150
    97  H    0.195233
    98  N   -0.772154
    99  H    0.336915
   100  H    0.321618
   101  H    0.457339
   102  O   -0.626458
 Sum of Mulliken charges =   1.00000
 Mulliken charges with hydrogens summed into heavy atoms:
               1
     1  N    0.516908
     5  C    0.111327
     7  C    0.667933
     8  C    0.052985
    10  O   -0.543190
    11  C    0.058798
    15  C    0.054163
    19  N   -0.236424
    21  C    0.111957
    23  C    0.634927
    24  C    0.269518
    27  O   -0.514233
    28  O   -0.173766
    30  N   -0.236012
    32  C    0.112272
    34  C    0.624664
    35  C    0.042781
    39  O   -0.544589
    40  N   -0.230473
    42  C    0.102405
    44  C    0.635731
    45  C    0.039403
    48  O   -0.555394
    49  C    0.037984
    51  C   -0.010701
    55  C   -0.022517
    59  N   -0.262947
    61  C    0.134522
    63  C    0.610874
    64  C   -0.017054
    67  O   -0.544866
    68  C    0.141942
    69  C   -0.052635
    71  C   -0.073251
    73  C    0.001840
    75  C   -0.066478
    77  O   -0.235912
    79  C    0.367383
    80  N   -0.251543
    82  C    0.170874
    84  C    0.609986
    85  C    0.037605
    88  O   -0.503190
    89  C    0.015380
    92  C    0.016774
    95  C    0.176975
    98  N   -0.113621
   102  O   -0.169119
 Electronic spatial extent (au):  <R**2>=          64634.7997
 Charge=              1.0000 electrons
 Dipole moment (field-independent basis, Debye):
    X=            -23.0537    Y=             12.9325    Z=              8.7720  Tot=             27.8508
 Quadrupole moment (field-independent basis, Debye-Ang):
   XX=            -67.8411   YY=           -136.1574   ZZ=           -180.0239
   XY=           -177.6323   XZ=           -134.9000   YZ=            115.0572
 Traceless Quadrupole moment (field-independent basis, Debye-Ang):
   XX=             60.1664   YY=             -8.1499   ZZ=            -52.0164
   XY=           -177.6323   XZ=           -134.9000   YZ=            115.0572
 Octapole moment (field-independent basis, Debye-Ang**2):
  XXX=          -1248.1927  YYY=           1256.5486  ZZZ=            729.6515  XYY=           -286.7718
  XXY=            661.5743  XXZ=            584.3653  XZZ=           -238.4928  YZZ=            351.8425
  YYZ=            337.9301  XYZ=            -84.4852
 Hexadecapole moment (field-independent basis, Debye-Ang**3):
 XXXX=         -32151.4771 YYYY=         -14775.0768 ZZZZ=         -15484.7747 XXXY=           3073.0080
 XXXZ=           5810.5473 YYYX=           5804.7681 YYYZ=          -2526.6404 ZZZX=           8417.6326
 ZZZY=          -2497.8830 XXYY=          -3648.5845 XXZZ=          -6148.5266 YYZZ=          -3364.3996
 XXYZ=           3082.5245 YYXZ=           -160.7976 ZZXY=            -80.3329
 N-N= 6.310423204242D+03 E-N=-1.798088775429D+04  KE= 2.290944163588D+03
 Unable to Open any file for archive entry.
 1\1\GINC-LAC-257\SP\RB3LYP\6-31G(d)\C32H54N7O9(1+)\KENGMITH\14-Jul-202
 2\0\\# B3LYP/6-31G* empiricaldispersion=gd3bj guess=read geom=check no
 symm integral(ultrafinegrid)\\Candidate Structure: Conf:270 Charge cal
 c in gas phase\\1,1\N,0,-5.311219863,4.9774880482,3.9656180265\H,0,-5.
 4187890466,5.263887672,4.9419366085\H,0,-5.4542171118,5.7966674077,3.3
 685284589\H,0,-4.3386456722,4.5750477652,3.8202615418\C,0,-6.202510196
 4,3.8135506372,3.5808493862\H,0,-6.884639372,3.6288230952,4.4142741244
 \C,0,-5.1916156257,2.655266299,3.4104385013\C,0,-6.9946095227,4.111470
 532,2.2880747239\H,0,-7.5979410772,3.210767343,2.1158303371\O,0,-3.984
 0606041,2.9352587638,3.4353733879\C,0,-7.9629029081,5.2855027522,2.486
 3224104\H,0,-7.439641533,6.2440358427,2.607065209\H,0,-8.6004864377,5.
 3930100924,1.604751012\H,0,-8.6125973426,5.1398198577,3.3560675943\C,0
 ,-6.0748878879,4.3044415585,1.0735612384\H,0,-5.4156323645,5.176027641
 8,1.1836292904\H,0,-5.4491341236,3.4265223403,0.8857307606\H,0,-6.6812
 726429,4.4831048908,0.1815386655\N,0,-5.6861904798,1.435914722,3.20836
 10388\H,0,-6.6895771098,1.3110897645,3.1401081735\C,0,-4.8441518616,0.
 2666127878,2.9106648546\H,0,-3.897952518,0.4002619191,3.4427960002\C,0
 ,-4.5473363637,0.1847744375,1.3950112382\C,0,-5.5313857538,-1.01531944
 18,3.4056355904\H,0,-6.5156902105,-1.1085951087,2.9183424919\H,0,-5.68
 78382224,-0.9411428557,4.4859673695\O,0,-4.9179859067,-0.7792321418,0.
 7332810145\O,0,-4.7220778214,-2.1372904535,3.1737159569\H,0,-4.7065056
 163,-2.2636992967,2.2080487655\N,0,-3.8747730512,1.256998638,0.8855725
 054\H,0,-3.3416139909,1.7888544545,1.5719699593\C,0,-3.130601225,1.104
 303137,-0.3759822213\H,0,-3.7077190296,0.4306727092,-1.0109625517\C,0,
 -1.7874864807,0.4761594742,0.0416355576\C,0,-2.924816537,2.4600107484,
 -1.0448832032\H,0,-2.37189555,2.3394200571,-1.9814880509\H,0,-2.341756
 4623,3.1182243327,-0.3923894989\H,0,-3.8870891256,2.9309438365,-1.2691
 815267\O,0,-1.1825097138,0.9638388277,0.9995715614\N,0,-1.4095319208,-
 0.620312139,-0.6348796607\H,0,-1.8780992465,-0.8973748561,-1.490507716
 7\C,0,-0.2416095841,-1.4162315283,-0.295619589\H,0,0.3734728966,-0.819
 4569419,0.3810351659\C,0,0.4894116663,-1.713546556,-1.6104347139\C,0,-
 0.647372989,-2.7578733188,0.3623006889\H,0,-1.1018097974,-3.3823879002
 ,-0.4180952486\H,0,0.2702559737,-3.2711842579,0.6789953014\O,0,-0.1405
 19357,-1.7839526289,-2.6683624188\C,0,-1.6219866625,-2.6523847534,1.54
 62008574\H,0,-2.5072944699,-2.1076139522,1.1912211835\C,0,-2.077637934
 5,-4.0548528111,1.9708733437\H,0,-1.2292257992,-4.6479570355,2.3343619
 735\H,0,-2.8129301782,-3.9939498058,2.7802980533\H,0,-2.5313888842,-4.
 600423919,1.1349262936\C,0,-1.0381929138,-1.8881518874,2.7406359306\H,
 0,-0.1475386792,-2.3979967052,3.1300047327\H,0,-1.7770328014,-1.845685
 4527,3.5493606981\H,0,-0.7627538215,-0.8631574296,2.4765272879\N,0,1.8
 093475405,-1.9469700406,-1.5015184311\H,0,2.3102231096,-1.8587475418,-
 0.6219993032\C,0,2.6412756086,-2.3311855406,-2.6250111483\H,0,2.109057
 3017,-3.0801848412,-3.2201858949\C,0,3.9225446826,-2.9190643516,-2.021
 890972\C,0,2.9587331068,-1.1093041796,-3.5354274642\H,0,3.4559767753,-
 0.3524850945,-2.919302413\H,0,1.9925178099,-0.7040512841,-3.8520370904
 \O,0,4.2822492172,-2.5949768236,-0.8889788483\C,0,3.8132641016,-1.4750
 224274,-4.7220129741\C,0,5.186427256,-1.1927798945,-4.7412120032\H,0,5
 .6299798162,-0.6469650597,-3.9125073822\C,0,3.2744219952,-2.1962497436
 ,-5.7933948612\H,0,2.2099249516,-2.4196641089,-5.8095786536\C,0,6.0019
 955117,-1.6196079245,-5.7821762927\H,0,7.0689539105,-1.4277999949,-5.7
 751807831\C,0,4.0808416526,-2.639466725,-6.841456408\H,0,3.6463160721,
 -3.2060414335,-7.6627445061\O,0,6.2986186097,-2.7942391868,-7.81049218
 19\H,0,5.7864703481,-3.2763339849,-8.4780561215\C,0,5.4503174549,-2.36
 08477471,-6.8308839467\N,0,4.6047728411,-3.7684932286,-2.8198217489\H,
 0,4.285019988,-3.9136611644,-3.7699350154\C,0,5.9664229466,-4.20114147
 15,-2.5192462237\H,0,6.3626118318,-3.5382059404,-1.7499522517\C,0,6.83
 46397636,-4.0693977444,-3.7578748979\C,0,5.9960145707,-5.670226377,-2.
 0323885968\H,0,5.5796274335,-5.6725024248,-1.0189187595\H,0,5.30767499
 6,-6.2479608051,-2.6594705013\O,0,7.9227490593,-3.5260170161,-3.754968
 7381\C,0,7.3842589047,-6.3523972649,-2.031935926\H,0,7.367205658,-7.10
 89645891,-1.2405233366\H,0,8.1521295255,-5.6283979776,-1.7311520957\C,
 0,7.8035190667,-7.05571258,-3.3594547802\H,0,8.1152481659,-8.076866920
 3,-3.1160369013\H,0,6.9229686894,-7.1581450609,-4.0034136693\C,0,8.939
 8480758,-6.3899648866,-4.179216258\H,0,9.8020780166,-7.0672227877,-4.2
 400871114\H,0,9.2773251044,-5.4751712829,-3.6906526828\N,0,8.492409637
 4,-5.9914632917,-5.5412111847\H,0,9.2159461887,-5.4315079089,-5.989587
 5076\H,0,8.3566681,-6.8184982936,-6.1219379032\H,0,7.1187610083,-5.077
 3183486,-5.3421472824\O,0,6.3165367305,-4.7362369051,-4.7928917728\\Ve
 rsion=ES64L-G16RevC.01\HF=-2312.2943589\RMSD=6.687e-09\Dipole=-10.0474
 854,7.4844364,5.3077806\Quadrupole=44.7322357,-6.0592848,-38.6729509,-
 132.0652246,-100.2948505,85.5422014\PG=C01 [X(C32H54N7O9)]\\@
 The archive entry for this job was punched.


 DO NOT LET SELFISH MEN OR GREEDY INTERESTS SKIN YOUR COUNTRY OF ITS
 BEAUTY, ITS RICHES, OR ITS ROMANCE. -- THEODORE ROOSEVELT
 Job cpu time:       0 days  0 hours  2 minutes 58.0 seconds.
 Elapsed time:       0 days  0 hours  0 minutes 45.2 seconds.
 File lengths (MBytes):  RWF=    472 Int=      0 D2E=      0 Chk=     72 Scr=     16
 Normal termination of Gaussian 16 at Thu Jul 14 14:14:29 2022.
