 Entering Gaussian System, Link 0=/opt/software/Gaussian/g16-AVX2-C.01/g16/g16
 Input=charge-conf-549.com
 Output=charge-conf-549.log
 Initial command:
 /opt/software/Gaussian/g16-AVX2-C.01/g16/l1.exe "/mnt/gs18/scratch/users/kengmith/Gau-44852.inp" -scrdir="/mnt/gs18/scratch/users/kengmith/"
 Entering Link 1 = /opt/software/Gaussian/g16-AVX2-C.01/g16/l1.exe PID=     44862.
  
 Copyright (c) 1988-2019, Gaussian, Inc.  All Rights Reserved.
  
 This is part of the Gaussian(R) 16 program.  It is based on
 the Gaussian(R) 09 system (copyright 2009, Gaussian, Inc.),
 the Gaussian(R) 03 system (copyright 2003, Gaussian, Inc.),
 the Gaussian(R) 98 system (copyright 1998, Gaussian, Inc.),
 the Gaussian(R) 94 system (copyright 1995, Gaussian, Inc.),
 the Gaussian 92(TM) system (copyright 1992, Gaussian, Inc.),
 the Gaussian 90(TM) system (copyright 1990, Gaussian, Inc.),
 the Gaussian 88(TM) system (copyright 1988, Gaussian, Inc.),
 the Gaussian 86(TM) system (copyright 1986, Carnegie Mellon
 University), and the Gaussian 82(TM) system (copyright 1983,
 Carnegie Mellon University). Gaussian is a federally registered
 trademark of Gaussian, Inc.
  
 This software contains proprietary and confidential information,
 including trade secrets, belonging to Gaussian, Inc.
  
 This software is provided under written license and may be
 used, copied, transmitted, or stored only in accord with that
 written license.
  
 The following legend is applicable only to US Government
 contracts under FAR:
  
                    RESTRICTED RIGHTS LEGEND
  
 Use, reproduction and disclosure by the US Government is
 subject to restrictions as set forth in subparagraphs (a)
 and (c) of the Commercial Computer Software - Restricted
 Rights clause in FAR 52.227-19.
  
 Gaussian, Inc.
 340 Quinnipiac St., Bldg. 40, Wallingford CT 06492
  
  
 ---------------------------------------------------------------
 Warning -- This program may not be used in any manner that
 competes with the business of Gaussian, Inc. or will provide
 assistance to any competitor of Gaussian, Inc.  The licensee
 of this program is prohibited from giving any competitor of
 Gaussian, Inc. access to this program.  By using this program,
 the user acknowledges that Gaussian, Inc. is engaged in the
 business of creating and licensing software in the field of
 computational chemistry and represents and warrants to the
 licensee that it is not a competitor of Gaussian, Inc. and that
 it will not use this program in any manner prohibited above.
 ---------------------------------------------------------------
  

 Cite this work as:
 Gaussian 16, Revision C.01,
 M. J. Frisch, G. W. Trucks, H. B. Schlegel, G. E. Scuseria, 
 M. A. Robb, J. R. Cheeseman, G. Scalmani, V. Barone, 
 G. A. Petersson, H. Nakatsuji, X. Li, M. Caricato, A. V. Marenich, 
 J. Bloino, B. G. Janesko, R. Gomperts, B. Mennucci, H. P. Hratchian, 
 J. V. Ortiz, A. F. Izmaylov, J. L. Sonnenberg, D. Williams-Young, 
 F. Ding, F. Lipparini, F. Egidi, J. Goings, B. Peng, A. Petrone, 
 T. Henderson, D. Ranasinghe, V. G. Zakrzewski, J. Gao, N. Rega, 
 G. Zheng, W. Liang, M. Hada, M. Ehara, K. Toyota, R. Fukuda, 
 J. Hasegawa, M. Ishida, T. Nakajima, Y. Honda, O. Kitao, H. Nakai, 
 T. Vreven, K. Throssell, J. A. Montgomery, Jr., J. E. Peralta, 
 F. Ogliaro, M. J. Bearpark, J. J. Heyd, E. N. Brothers, K. N. Kudin, 
 V. N. Staroverov, T. A. Keith, R. Kobayashi, J. Normand, 
 K. Raghavachari, A. P. Rendell, J. C. Burant, S. S. Iyengar, 
 J. Tomasi, M. Cossi, J. M. Millam, M. Klene, C. Adamo, R. Cammi, 
 J. W. Ochterski, R. L. Martin, K. Morokuma, O. Farkas, 
 J. B. Foresman, and D. J. Fox, Gaussian, Inc., Wallingford CT, 2019.
 
 ******************************************
 Gaussian 16:  ES64L-G16RevC.01  3-Jul-2019
                 1-Jun-2022 
 ******************************************
 %mem=8gb
 %nproc=4
 Will use up to    4 processors via shared memory.
 %chk=conf-549.chk
 ----------------------------------------------------------------------
 # B3LYP/6-31G* empiricaldispersion=gd3 guess=read geom=check nosymm in
 tegral(ultrafinegrid)
 ----------------------------------------------------------------------
 1/29=2,38=1,172=1/1;
 2/12=2,15=1,40=1/2;
 3/5=1,6=6,7=1,11=2,14=-4,25=1,30=1,74=-5,75=-5,116=-2,124=31/1,2,3;
 4/5=1/1;
 5/5=2,38=6/2;
 6/7=2,8=2,9=2,10=2,28=1/1;
 99/5=1,9=1/99;
 ------------------------------------------------------
 Candidate Structure: Conf:549 Charge calc in gas phase
 ------------------------------------------------------
 Structure from the checkpoint file:  "conf-549.chk"
 Charge =  1 Multiplicity = 1
 Redundant internal coordinates found in file.  (old form).
 N,0,-3.2394561205,0.5880195494,-3.8494603279
 H,0,-3.9838003216,0.0571140148,-4.3075875781
 H,0,-3.5388094753,0.9642174857,-2.9111975492
 H,0,-2.9750999808,1.374376457,-4.4534413473
 C,0,-2.0242669876,-0.2549284843,-3.4904367214
 H,0,-2.4339950152,-1.2302833159,-3.2040316569
 C,0,-1.5634339573,0.3875040744,-2.1498945522
 C,0,-1.0808379208,-0.4204039716,-4.6755186085
 H,0,-1.6562239882,-0.8760652828,-5.4912846661
 H,0,-0.3288139623,-1.1595341241,-4.3836408886
 O,0,-2.4597140724,0.9619239898,-1.5032585818
 C,0,-0.3625198392,0.8561056701,-5.1506541849
 H,0,-0.4429920845,0.9816161844,-6.2329623061
 H,0,-0.7948646946,1.7685860868,-4.7084487903
 C,0,1.1430195804,0.8882659433,-4.7885930985
 O,0,1.8472551022,1.6743950007,-5.4513495821
 O,0,1.5196112733,0.1309063344,-3.835375821
 N,0,-0.3132016046,0.1885413915,-1.7456178877
 H,0,0.423147418,-0.0643600883,-2.4371529719
 C,0,0.0764559779,0.4948222275,-0.3584660677
 H,0,-0.6569739091,1.2036903942,0.0315825862
 C,0,1.48000358,1.1060163678,-0.3495288694
 C,0,0.1078096197,-0.7850402898,0.5050986342
 H,0,0.4862746692,-0.5060647969,1.4990111089
 H,0,0.8551175682,-1.4536209157,0.062840913
 O,0,2.4476816986,0.4545528381,-0.747262878
 C,0,-1.2365261079,-1.5153306026,0.6703454911
 H,0,-1.6333766902,-1.731638072,-0.3335783327
 C,0,-1.0011617435,-2.8592888768,1.3768600122
 H,0,-0.5988197803,-2.7027153959,2.3855425569
 H,0,-1.9382940058,-3.4176121435,1.4774888775
 H,0,-0.2901629152,-3.4858727132,0.826083597
 C,0,-2.2728697266,-0.6744874749,1.4301970681
 H,0,-1.8966066176,-0.4059301448,2.4257000373
 H,0,-2.5301195569,0.2450230127,0.8959244134
 H,0,-3.1991537809,-1.2423475067,1.5723906444
 N,0,1.5950974244,2.3524344338,0.1622945569
 H,0,0.8013754695,2.8382566453,0.564078079
 C,0,2.9021134759,2.9573545526,0.3730351865
 H,0,3.6196947289,2.1569778164,0.5777712066
 C,0,2.7848159453,3.853639072,1.6006183669
 C,0,3.3606633399,3.7746932,-0.8690715811
 H,0,2.7962018189,4.7146802108,-0.8833398298
 H,0,3.0428422172,3.2167845193,-1.7546788677
 O,0,1.7339986499,4.2689859903,2.0367327915
 C,0,4.8719816593,4.061966589,-0.9250755809
 H,0,5.0489530433,4.9370966888,-1.5624513126
 H,0,5.2445288199,4.3252278069,0.0699392887
 C,0,5.7113233432,2.8919262426,-1.4747897612
 H,0,5.4618483142,1.9473993456,-0.9820701752
 H,0,6.7726480382,3.0644424043,-1.2728152688
 N,0,5.5750311921,2.7241676223,-2.9250001457
 H,0,6.0538391759,3.4137717949,-3.4881444429
 N,0,3.9560571611,1.0327073254,-2.9508912447
 H,0,3.1288913643,0.5894824314,-3.4040374764
 H,0,3.9176236414,0.9587825814,-1.941844322
 N,0,4.5008095266,2.1120557199,-4.9047133442
 H,0,3.5684667039,1.8254949668,-5.2699104713
 H,0,4.9082758819,2.9237354925,-5.348763933
 C,0,4.6587406195,1.9661294343,-3.575214391
 O,0,3.9887538289,4.1567275031,2.1182814773
 H,0,3.8411938881,4.7610763473,2.8721848434
 Recover connectivity data from disk.
                           ----------------------------
                           !    Current Parameters    !
                           ! (Angstroms and Degrees)  !
 --------------------------                            --------------------------
 ! Name  Definition              Value                                          !
 --------------------------------------------------------------------------------
 ! R1    R(1,2)                  1.0226                                         !
 ! R2    R(1,3)                  1.0543                                         !
 ! R3    R(1,4)                  1.0262                                         !
 ! R4    R(1,5)                  1.5219                                         !
 ! R5    R(5,6)                  1.096                                          !
 ! R6    R(5,7)                  1.5563                                         !
 ! R7    R(5,8)                  1.5238                                         !
 ! R8    R(7,11)                 1.2456                                         !
 ! R9    R(7,18)                 1.3289                                         !
 ! R10   R(8,9)                  1.0973                                         !
 ! R11   R(8,10)                 1.0941                                         !
 ! R12   R(8,12)                 1.5399                                         !
 ! R13   R(12,13)                1.0925                                         !
 ! R14   R(12,14)                1.1023                                         !
 ! R15   R(12,15)                1.5488                                         !
 ! R16   R(15,16)                1.2463                                         !
 ! R17   R(15,17)                1.2744                                         !
 ! R18   R(18,19)                1.0413                                         !
 ! R19   R(18,20)                1.473                                          !
 ! R20   R(20,21)                1.092                                          !
 ! R21   R(20,22)                1.5309                                         !
 ! R22   R(20,23)                1.5443                                         !
 ! R23   R(22,26)                1.2325                                         !
 ! R24   R(22,37)                1.3523                                         !
 ! R25   R(23,24)                1.0995                                         !
 ! R26   R(23,25)                1.0959                                         !
 ! R27   R(23,27)                1.5388                                         !
 ! R28   R(27,28)                1.101                                          !
 ! R29   R(27,29)                1.5365                                         !
 ! R30   R(27,33)                1.5357                                         !
 ! R31   R(29,30)                1.0972                                         !
 ! R32   R(29,31)                1.0955                                         !
 ! R33   R(29,32)                1.0961                                         !
 ! R34   R(33,34)                1.0976                                         !
 ! R35   R(33,35)                1.0941                                         !
 ! R36   R(33,36)                1.0958                                         !
 ! R37   R(37,38)                1.0136                                         !
 ! R38   R(37,39)                1.4556                                         !
 ! R39   R(39,40)                1.0943                                         !
 ! R40   R(39,41)                1.5245                                         !
 ! R41   R(39,42)                1.556                                          !
 ! R42   R(41,45)                1.2112                                         !
 ! R43   R(41,61)                1.3451                                         !
 ! R44   R(42,43)                1.0965                                         !
 ! R45   R(42,44)                1.0939                                         !
 ! R46   R(42,46)                1.5394                                         !
 ! R47   R(46,47)                1.097                                          !
 ! R48   R(46,48)                1.0946                                         !
 ! R49   R(46,49)                1.5413                                         !
 ! R50   R(49,50)                1.0941                                         !
 ! R51   R(49,51)                1.0941                                         !
 ! R52   R(49,52)                1.4662                                         !
 ! R53   R(52,53)                1.0109                                         !
 ! R54   R(52,60)                1.3554                                         !
 ! R55   R(54,55)                1.0421                                         !
 ! R56   R(54,56)                1.0125                                         !
 ! R57   R(54,60)                1.3247                                         !
 ! R58   R(57,58)                1.0415                                         !
 ! R59   R(57,59)                1.011                                          !
 ! R60   R(57,60)                1.3468                                         !
 ! R61   R(61,62)                0.9774                                         !
 ! A1    A(2,1,3)              112.1647                                         !
 ! A2    A(2,1,4)              108.7634                                         !
 ! A3    A(2,1,5)              113.5354                                         !
 ! A4    A(3,1,4)              108.8759                                         !
 ! A5    A(3,1,5)              102.3814                                         !
 ! A6    A(4,1,5)              110.9523                                         !
 ! A7    A(1,5,6)              104.8363                                         !
 ! A8    A(1,5,7)              102.1806                                         !
 ! A9    A(1,5,8)              111.7802                                         !
 ! A10   A(6,5,7)              104.6526                                         !
 ! A11   A(6,5,8)              109.7583                                         !
 ! A12   A(7,5,8)              122.1                                            !
 ! A13   A(5,7,11)             115.1172                                         !
 ! A14   A(5,7,18)             118.6067                                         !
 ! A15   A(11,7,18)            126.0203                                         !
 ! A16   A(5,8,9)              107.3745                                         !
 ! A17   A(5,8,10)             106.9448                                         !
 ! A18   A(5,8,12)             116.0252                                         !
 ! A19   A(9,8,10)             106.1532                                         !
 ! A20   A(9,8,12)             111.0656                                         !
 ! A21   A(10,8,12)            108.766                                          !
 ! A22   A(8,12,13)            111.5025                                         !
 ! A23   A(8,12,14)            112.3009                                         !
 ! A24   A(8,12,15)            113.4865                                         !
 ! A25   A(13,12,14)           105.8681                                         !
 ! A26   A(13,12,15)           107.5054                                         !
 ! A27   A(14,12,15)           105.6818                                         !
 ! A28   A(12,15,16)           115.981                                          !
 ! A29   A(12,15,17)           116.7291                                         !
 ! A30   A(16,15,17)           127.2765                                         !
 ! A31   A(7,18,19)            119.9718                                         !
 ! A32   A(7,18,20)            120.2783                                         !
 ! A33   A(19,18,20)           119.2623                                         !
 ! A34   A(18,20,21)           107.0771                                         !
 ! A35   A(18,20,22)           109.3317                                         !
 ! A36   A(18,20,23)           111.0786                                         !
 ! A37   A(21,20,22)           110.7634                                         !
 ! A38   A(21,20,23)           110.6025                                         !
 ! A39   A(22,20,23)           107.9994                                         !
 ! A40   A(20,22,26)           120.4594                                         !
 ! A41   A(20,22,37)           116.6294                                         !
 ! A42   A(26,22,37)           122.8542                                         !
 ! A43   A(20,23,24)           107.59                                           !
 ! A44   A(20,23,25)           107.0846                                         !
 ! A45   A(20,23,27)           115.8262                                         !
 ! A46   A(24,23,25)           106.5505                                         !
 ! A47   A(24,23,27)           108.9084                                         !
 ! A48   A(25,23,27)           110.4589                                         !
 ! A49   A(23,27,28)           108.0728                                         !
 ! A50   A(23,27,29)           109.3097                                         !
 ! A51   A(23,27,33)           112.5096                                         !
 ! A52   A(28,27,29)           107.6173                                         !
 ! A53   A(28,27,33)           108.391                                          !
 ! A54   A(29,27,33)           110.7798                                         !
 ! A55   A(27,29,30)           110.7371                                         !
 ! A56   A(27,29,31)           110.9159                                         !
 ! A57   A(27,29,32)           111.6121                                         !
 ! A58   A(30,29,31)           107.5765                                         !
 ! A59   A(30,29,32)           107.7977                                         !
 ! A60   A(31,29,32)           108.0415                                         !
 ! A61   A(27,33,34)           110.5728                                         !
 ! A62   A(27,33,35)           112.1603                                         !
 ! A63   A(27,33,36)           110.5435                                         !
 ! A64   A(34,33,35)           108.5335                                         !
 ! A65   A(34,33,36)           107.3909                                         !
 ! A66   A(35,33,36)           107.4659                                         !
 ! A67   A(22,37,38)           121.6772                                         !
 ! A68   A(22,37,39)           120.9487                                         !
 ! A69   A(38,37,39)           116.5232                                         !
 ! A70   A(37,39,40)           108.177                                          !
 ! A71   A(37,39,41)           106.9679                                         !
 ! A72   A(37,39,42)           111.5524                                         !
 ! A73   A(40,39,41)           109.2578                                         !
 ! A74   A(40,39,42)           109.8955                                         !
 ! A75   A(41,39,42)           110.8946                                         !
 ! A76   A(39,41,45)           123.9401                                         !
 ! A77   A(39,41,61)           111.9321                                         !
 ! A78   A(45,41,61)           124.1046                                         !
 ! A79   A(39,42,43)           107.9974                                         !
 ! A80   A(39,42,44)           107.0226                                         !
 ! A81   A(39,42,46)           114.6068                                         !
 ! A82   A(43,42,44)           106.088                                          !
 ! A83   A(43,42,46)           110.1777                                         !
 ! A84   A(44,42,46)           110.5466                                         !
 ! A85   A(42,46,47)           109.171                                          !
 ! A86   A(42,46,48)           110.24                                           !
 ! A87   A(42,46,49)           113.95                                           !
 ! A88   A(47,46,48)           106.3428                                         !
 ! A89   A(47,46,49)           108.09                                           !
 ! A90   A(48,46,49)           108.7498                                         !
 ! A91   A(46,49,50)           111.7489                                         !
 ! A92   A(46,49,51)           110.0429                                         !
 ! A93   A(46,49,52)           112.8916                                         !
 ! A94   A(50,49,51)           105.9129                                         !
 ! A95   A(50,49,52)           108.9923                                         !
 ! A96   A(51,49,52)           106.9063                                         !
 ! A97   A(49,52,53)           115.398                                          !
 ! A98   A(49,52,60)           126.9651                                         !
 ! A99   A(53,52,60)           115.7526                                         !
 ! A100  A(55,54,56)           111.8499                                         !
 ! A101  A(55,54,60)           121.0505                                         !
 ! A102  A(56,54,60)           122.7708                                         !
 ! A103  A(58,57,59)           115.3212                                         !
 ! A104  A(58,57,60)           114.917                                          !
 ! A105  A(59,57,60)           118.2509                                         !
 ! A106  A(52,60,54)           121.7765                                         !
 ! A107  A(52,60,57)           119.4893                                         !
 ! A108  A(54,60,57)           118.6458                                         !
 ! A109  A(41,61,62)           107.5197                                         !
 ! D1    D(2,1,5,6)            -35.7462                                         !
 ! D2    D(2,1,5,7)           -144.7048                                         !
 ! D3    D(2,1,5,8)             83.0985                                         !
 ! D4    D(3,1,5,6)             85.3792                                         !
 ! D5    D(3,1,5,7)            -23.5794                                         !
 ! D6    D(3,1,5,8)           -155.7761                                         !
 ! D7    D(4,1,5,6)           -158.5977                                         !
 ! D8    D(4,1,5,7)             92.4437                                         !
 ! D9    D(4,1,5,8)            -39.753                                          !
 ! D10   D(1,5,7,11)            25.7614                                         !
 ! D11   D(1,5,7,18)          -159.6969                                         !
 ! D12   D(6,5,7,11)           -83.3373                                         !
 ! D13   D(6,5,7,18)            91.2043                                         !
 ! D14   D(8,5,7,11)           151.4587                                         !
 ! D15   D(8,5,7,18)           -33.9997                                         !
 ! D16   D(1,5,8,9)            -57.6015                                         !
 ! D17   D(1,5,8,10)          -171.1839                                         !
 ! D18   D(1,5,8,12)            67.2811                                         !
 ! D19   D(6,5,8,9)             58.2804                                         !
 ! D20   D(6,5,8,10)           -55.302                                          !
 ! D21   D(6,5,8,12)          -176.8371                                         !
 ! D22   D(7,5,8,9)           -178.8579                                         !
 ! D23   D(7,5,8,10)            67.5597                                         !
 ! D24   D(7,5,8,12)           -53.9753                                         !
 ! D25   D(5,7,18,19)           22.61                                           !
 ! D26   D(5,7,18,20)         -165.4591                                         !
 ! D27   D(11,7,18,19)        -163.5028                                         !
 ! D28   D(11,7,18,20)           8.4281                                         !
 ! D29   D(5,8,12,13)         -131.2772                                         !
 ! D30   D(5,8,12,14)          -12.6429                                         !
 ! D31   D(5,8,12,15)          107.1428                                         !
 ! D32   D(9,8,12,13)           -8.3082                                         !
 ! D33   D(9,8,12,14)          110.326                                          !
 ! D34   D(9,8,12,15)         -129.8883                                         !
 ! D35   D(10,8,12,13)         108.1623                                         !
 ! D36   D(10,8,12,14)        -133.2034                                         !
 ! D37   D(10,8,12,15)         -13.4177                                         !
 ! D38   D(8,12,15,16)         160.2561                                         !
 ! D39   D(8,12,15,17)         -20.979                                          !
 ! D40   D(13,12,15,16)         36.4688                                         !
 ! D41   D(13,12,15,17)       -144.7663                                         !
 ! D42   D(14,12,15,16)        -76.2577                                         !
 ! D43   D(14,12,15,17)        102.5072                                         !
 ! D44   D(7,18,20,21)         -21.433                                          !
 ! D45   D(7,18,20,22)        -141.4854                                         !
 ! D46   D(7,18,20,23)          99.4254                                         !
 ! D47   D(19,18,20,21)        150.5549                                         !
 ! D48   D(19,18,20,22)         30.5025                                         !
 ! D49   D(19,18,20,23)        -88.5867                                         !
 ! D50   D(18,20,22,26)        -62.6318                                         !
 ! D51   D(18,20,22,37)        120.0337                                         !
 ! D52   D(21,20,22,26)        179.6044                                         !
 ! D53   D(21,20,22,37)          2.27                                           !
 ! D54   D(23,20,22,26)         58.3478                                         !
 ! D55   D(23,20,22,37)       -118.9867                                         !
 ! D56   D(18,20,23,24)        175.2284                                         !
 ! D57   D(18,20,23,25)         61.0194                                         !
 ! D58   D(18,20,23,27)        -62.6912                                         !
 ! D59   D(21,20,23,24)        -66.0133                                         !
 ! D60   D(21,20,23,25)        179.7777                                         !
 ! D61   D(21,20,23,27)         56.0671                                         !
 ! D62   D(22,20,23,24)         55.3432                                         !
 ! D63   D(22,20,23,25)        -58.8657                                         !
 ! D64   D(22,20,23,27)        177.4237                                         !
 ! D65   D(20,22,37,38)          3.1121                                         !
 ! D66   D(20,22,37,39)        172.1827                                         !
 ! D67   D(26,22,37,38)       -174.1527                                         !
 ! D68   D(26,22,37,39)         -5.0821                                         !
 ! D69   D(20,23,27,28)         55.1035                                         !
 ! D70   D(20,23,27,29)        171.9551                                         !
 ! D71   D(20,23,27,33)        -64.5316                                         !
 ! D72   D(24,23,27,28)        176.4808                                         !
 ! D73   D(24,23,27,29)        -66.6676                                         !
 ! D74   D(24,23,27,33)         56.8457                                         !
 ! D75   D(25,23,27,28)        -66.8286                                         !
 ! D76   D(25,23,27,29)         50.0229                                         !
 ! D77   D(25,23,27,33)        173.5362                                         !
 ! D78   D(23,27,29,30)         62.58                                           !
 ! D79   D(23,27,29,31)       -178.0549                                         !
 ! D80   D(23,27,29,32)        -57.5219                                         !
 ! D81   D(28,27,29,30)        179.7194                                         !
 ! D82   D(28,27,29,31)        -60.9154                                         !
 ! D83   D(28,27,29,32)         59.6176                                         !
 ! D84   D(33,27,29,30)        -61.9502                                         !
 ! D85   D(33,27,29,31)         57.4149                                         !
 ! D86   D(33,27,29,32)        177.9479                                         !
 ! D87   D(23,27,33,34)        -58.4357                                         !
 ! D88   D(23,27,33,35)         62.8601                                         !
 ! D89   D(23,27,33,36)       -177.2248                                         !
 ! D90   D(28,27,33,34)       -177.8859                                         !
 ! D91   D(28,27,33,35)        -56.5901                                         !
 ! D92   D(28,27,33,36)         63.325                                          !
 ! D93   D(29,27,33,34)         64.2548                                         !
 ! D94   D(29,27,33,35)       -174.4494                                         !
 ! D95   D(29,27,33,36)        -54.5343                                         !
 ! D96   D(22,37,39,40)        -29.6772                                         !
 ! D97   D(22,37,39,41)       -147.266                                          !
 ! D98   D(22,37,39,42)         91.3061                                         !
 ! D99   D(38,37,39,40)        139.9338                                         !
 ! D100  D(38,37,39,41)         22.3449                                         !
 ! D101  D(38,37,39,42)        -99.083                                          !
 ! D102  D(37,39,41,45)        -19.6374                                         !
 ! D103  D(37,39,41,61)        162.0534                                         !
 ! D104  D(40,39,41,45)       -136.5147                                         !
 ! D105  D(40,39,41,61)         45.1761                                         !
 ! D106  D(42,39,41,45)        102.2051                                         !
 ! D107  D(42,39,41,61)        -76.1041                                         !
 ! D108  D(37,39,42,43)         75.5079                                         !
 ! D109  D(37,39,42,44)        -38.3321                                         !
 ! D110  D(37,39,42,46)       -161.2836                                         !
 ! D111  D(40,39,42,43)       -164.5163                                         !
 ! D112  D(40,39,42,44)         81.6437                                         !
 ! D113  D(40,39,42,46)        -41.3078                                         !
 ! D114  D(41,39,42,43)        -43.6122                                         !
 ! D115  D(41,39,42,44)       -157.4522                                         !
 ! D116  D(41,39,42,46)         79.5963                                         !
 ! D117  D(39,41,61,62)        177.5431                                         !
 ! D118  D(45,41,61,62)         -0.7628                                         !
 ! D119  D(39,42,46,47)       -157.5444                                         !
 ! D120  D(39,42,46,48)        -41.0761                                         !
 ! D121  D(39,42,46,49)         81.5155                                         !
 ! D122  D(43,42,46,47)        -35.5148                                         !
 ! D123  D(43,42,46,48)         80.9535                                         !
 ! D124  D(43,42,46,49)       -156.455                                          !
 ! D125  D(44,42,46,47)         81.4233                                         !
 ! D126  D(44,42,46,48)       -162.1084                                         !
 ! D127  D(44,42,46,49)        -39.5168                                         !
 ! D128  D(42,46,49,50)        -49.4586                                         !
 ! D129  D(42,46,49,51)       -166.8301                                         !
 ! D130  D(42,46,49,52)         73.8252                                         !
 ! D131  D(47,46,49,50)       -170.9995                                         !
 ! D132  D(47,46,49,51)         71.629                                          !
 ! D133  D(47,46,49,52)        -47.7157                                         !
 ! D134  D(48,46,49,50)         73.9454                                         !
 ! D135  D(48,46,49,51)        -43.4261                                         !
 ! D136  D(48,46,49,52)       -162.7708                                         !
 ! D137  D(46,49,52,53)         74.094                                          !
 ! D138  D(46,49,52,60)        -89.5021                                         !
 ! D139  D(50,49,52,53)       -161.1069                                         !
 ! D140  D(50,49,52,60)         35.297                                          !
 ! D141  D(51,49,52,53)        -47.0484                                         !
 ! D142  D(51,49,52,60)        149.3555                                         !
 ! D143  D(49,52,60,54)        -16.0133                                         !
 ! D144  D(49,52,60,57)        167.4529                                         !
 ! D145  D(53,52,60,54)       -179.5594                                         !
 ! D146  D(53,52,60,57)          3.9069                                         !
 ! D147  D(55,54,60,52)        167.6593                                         !
 ! D148  D(55,54,60,57)        -15.7787                                         !
 ! D149  D(56,54,60,52)         12.9407                                         !
 ! D150  D(56,54,60,57)       -170.4973                                         !
 ! D151  D(58,57,60,52)       -155.7724                                         !
 ! D152  D(58,57,60,54)         27.5852                                         !
 ! D153  D(59,57,60,52)        -14.0538                                         !
 ! D154  D(59,57,60,54)        169.3038                                         !
 --------------------------------------------------------------------------------
 Symmetry turned off by external request.
 Stoichiometry    C17H33N6O6(1+)
 Framework group  C1[X(C17H33N6O6)]
 Deg. of freedom   180
 Full point group                 C1      NOp   1
                          Input orientation:                          
 ---------------------------------------------------------------------
 Center     Atomic      Atomic             Coordinates (Angstroms)
 Number     Number       Type             X           Y           Z
 ---------------------------------------------------------------------
      1          7           0       -3.239456    0.588020   -3.849460
      2          1           0       -3.983800    0.057114   -4.307588
      3          1           0       -3.538809    0.964217   -2.911198
      4          1           0       -2.975100    1.374376   -4.453441
      5          6           0       -2.024267   -0.254928   -3.490437
      6          1           0       -2.433995   -1.230283   -3.204032
      7          6           0       -1.563434    0.387504   -2.149895
      8          6           0       -1.080838   -0.420404   -4.675519
      9          1           0       -1.656224   -0.876065   -5.491285
     10          1           0       -0.328814   -1.159534   -4.383641
     11          8           0       -2.459714    0.961924   -1.503259
     12          6           0       -0.362520    0.856106   -5.150654
     13          1           0       -0.442992    0.981616   -6.232962
     14          1           0       -0.794865    1.768586   -4.708449
     15          6           0        1.143020    0.888266   -4.788593
     16          8           0        1.847255    1.674395   -5.451350
     17          8           0        1.519611    0.130906   -3.835376
     18          7           0       -0.313202    0.188541   -1.745618
     19          1           0        0.423147   -0.064360   -2.437153
     20          6           0        0.076456    0.494822   -0.358466
     21          1           0       -0.656974    1.203690    0.031583
     22          6           0        1.480004    1.106016   -0.349529
     23          6           0        0.107810   -0.785040    0.505099
     24          1           0        0.486275   -0.506065    1.499011
     25          1           0        0.855118   -1.453621    0.062841
     26          8           0        2.447682    0.454553   -0.747263
     27          6           0       -1.236526   -1.515331    0.670345
     28          1           0       -1.633377   -1.731638   -0.333578
     29          6           0       -1.001162   -2.859289    1.376860
     30          1           0       -0.598820   -2.702715    2.385543
     31          1           0       -1.938294   -3.417612    1.477489
     32          1           0       -0.290163   -3.485873    0.826084
     33          6           0       -2.272870   -0.674487    1.430197
     34          1           0       -1.896607   -0.405930    2.425700
     35          1           0       -2.530120    0.245023    0.895924
     36          1           0       -3.199154   -1.242348    1.572391
     37          7           0        1.595097    2.352434    0.162295
     38          1           0        0.801375    2.838257    0.564078
     39          6           0        2.902113    2.957355    0.373035
     40          1           0        3.619695    2.156978    0.577771
     41          6           0        2.784816    3.853639    1.600618
     42          6           0        3.360663    3.774693   -0.869072
     43          1           0        2.796202    4.714680   -0.883340
     44          1           0        3.042842    3.216785   -1.754679
     45          8           0        1.733999    4.268986    2.036733
     46          6           0        4.871982    4.061967   -0.925076
     47          1           0        5.048953    4.937097   -1.562451
     48          1           0        5.244529    4.325228    0.069939
     49          6           0        5.711323    2.891926   -1.474790
     50          1           0        5.461848    1.947399   -0.982070
     51          1           0        6.772648    3.064442   -1.272815
     52          7           0        5.575031    2.724168   -2.925000
     53          1           0        6.053839    3.413772   -3.488144
     54          7           0        3.956057    1.032707   -2.950891
     55          1           0        3.128891    0.589482   -3.404037
     56          1           0        3.917624    0.958783   -1.941844
     57          7           0        4.500810    2.112056   -4.904713
     58          1           0        3.568467    1.825495   -5.269910
     59          1           0        4.908276    2.923735   -5.348764
     60          6           0        4.658741    1.966129   -3.575214
     61          8           0        3.988754    4.156728    2.118281
     62          1           0        3.841194    4.761076    2.872185
 ---------------------------------------------------------------------
 Rotational constants (GHZ):           0.1755084           0.1210732           0.0845922
 Standard basis: 6-31G(d) (6D, 7F)
   501 basis functions,   944 primitive gaussians,   501 cartesian basis functions
   112 alpha electrons      112 beta electrons
       nuclear repulsion energy      3156.8465369803 Hartrees.
 NAtoms=   62 NActive=   62 NUniq=   62 SFac= 1.00D+00 NAtFMM=   60 NAOKFM=T Big=T
 Integral buffers will be    131072 words long.
 Raffenetti 2 integral format.
 Two-electron integral symmetry is turned off.
 Nuclear repulsion after empirical dispersion term =     3156.7653005353 Hartrees.
 One-electron integrals computed using PRISM.
 NBasis=   501 RedAO= T EigKep=  2.00D-03  NBF=   501
 NBsUse=   501 1.00D-06 EigRej= -1.00D+00 NBFU=   501
 Initial guess from the checkpoint file:  "conf-549.chk"
 B after Tr=     0.000000    0.000000    0.000000
         Rot=    1.000000    0.000000    0.000000    0.000000 Ang=   0.00 deg.
 Requested convergence on RMS density matrix=1.00D-08 within 128 cycles.
 Requested convergence on MAX density matrix=1.00D-06.
 Requested convergence on             energy=1.00D-06.
 No special actions if energy rises.
 SCF Done:  E(RB3LYP) =  -1447.51063394     A.U. after    1 cycles
            NFock=  1  Conv=0.31D-08     -V/T= 2.0094

 **********************************************************************

            Population analysis using the SCF Density.

 **********************************************************************

 Alpha  occ. eigenvalues --  -19.30472 -19.25434 -19.24810 -19.22614 -19.19572
 Alpha  occ. eigenvalues --  -19.18487 -14.59377 -14.47860 -14.47825 -14.47215
 Alpha  occ. eigenvalues --  -14.44482 -14.43876 -10.42870 -10.42394 -10.42377
 Alpha  occ. eigenvalues --  -10.39775 -10.39770 -10.37144 -10.34779 -10.33897
 Alpha  occ. eigenvalues --  -10.33717 -10.31866 -10.29862 -10.29516 -10.29302
 Alpha  occ. eigenvalues --  -10.27633 -10.27425 -10.24763 -10.24714  -1.21395
 Alpha  occ. eigenvalues --   -1.18006  -1.14701  -1.13066  -1.12528  -1.12344
 Alpha  occ. eigenvalues --   -1.10924  -1.04701  -1.03672  -1.03417  -1.01100
 Alpha  occ. eigenvalues --   -0.97931  -0.92973  -0.91025  -0.89636  -0.86232
 Alpha  occ. eigenvalues --   -0.84979  -0.83156  -0.79360  -0.76575  -0.75759
 Alpha  occ. eigenvalues --   -0.75099  -0.73892  -0.73562  -0.72650  -0.71555
 Alpha  occ. eigenvalues --   -0.70767  -0.69018  -0.68862  -0.68338  -0.66550
 Alpha  occ. eigenvalues --   -0.64240  -0.63990  -0.62908  -0.61414  -0.60318
 Alpha  occ. eigenvalues --   -0.60069  -0.59416  -0.58899  -0.58345  -0.57745
 Alpha  occ. eigenvalues --   -0.57267  -0.56590  -0.56373  -0.56264  -0.55543
 Alpha  occ. eigenvalues --   -0.55261  -0.54328  -0.53567  -0.53276  -0.52630
 Alpha  occ. eigenvalues --   -0.52094  -0.51443  -0.50904  -0.50580  -0.50046
 Alpha  occ. eigenvalues --   -0.49898  -0.49574  -0.48802  -0.48480  -0.48185
 Alpha  occ. eigenvalues --   -0.47066  -0.46662  -0.46347  -0.45848  -0.45323
 Alpha  occ. eigenvalues --   -0.45029  -0.44971  -0.44392  -0.42357  -0.41160
 Alpha  occ. eigenvalues --   -0.40722  -0.40671  -0.39754  -0.38863  -0.38064
 Alpha  occ. eigenvalues --   -0.36918  -0.36357  -0.36196  -0.35839  -0.34518
 Alpha  occ. eigenvalues --   -0.34377  -0.32769
 Alpha virt. eigenvalues --   -0.12530  -0.09842  -0.09368  -0.08579  -0.06799
 Alpha virt. eigenvalues --   -0.06009  -0.03780  -0.03542  -0.02892  -0.02244
 Alpha virt. eigenvalues --   -0.01306  -0.00967  -0.00272   0.00531   0.01052
 Alpha virt. eigenvalues --    0.01900   0.02154   0.02558   0.02933   0.03507
 Alpha virt. eigenvalues --    0.03930   0.04411   0.05199   0.05628   0.05973
 Alpha virt. eigenvalues --    0.06572   0.06917   0.07197   0.07564   0.08201
 Alpha virt. eigenvalues --    0.08310   0.09193   0.09573   0.09737   0.10111
 Alpha virt. eigenvalues --    0.10493   0.11129   0.11469   0.11675   0.12336
 Alpha virt. eigenvalues --    0.12815   0.13490   0.13640   0.14138   0.14654
 Alpha virt. eigenvalues --    0.15296   0.15440   0.16007   0.16574   0.16976
 Alpha virt. eigenvalues --    0.17503   0.17811   0.18374   0.19156   0.19348
 Alpha virt. eigenvalues --    0.19890   0.22047   0.23772   0.26189   0.27342
 Alpha virt. eigenvalues --    0.28492   0.29879   0.31341   0.32224   0.32957
 Alpha virt. eigenvalues --    0.35948   0.37216   0.39303   0.39650   0.40553
 Alpha virt. eigenvalues --    0.40585   0.41303   0.42016   0.42525   0.42798
 Alpha virt. eigenvalues --    0.43820   0.44124   0.44315   0.44537   0.45250
 Alpha virt. eigenvalues --    0.46404   0.46571   0.47326   0.47969   0.48731
 Alpha virt. eigenvalues --    0.49716   0.50191   0.50274   0.51401   0.51633
 Alpha virt. eigenvalues --    0.52438   0.53439   0.53643   0.53804   0.54722
 Alpha virt. eigenvalues --    0.54927   0.55335   0.55630   0.56514   0.56706
 Alpha virt. eigenvalues --    0.57336   0.58104   0.58222   0.59150   0.59947
 Alpha virt. eigenvalues --    0.60567   0.61535   0.62746   0.63063   0.63514
 Alpha virt. eigenvalues --    0.63820   0.65072   0.65628   0.65739   0.66363
 Alpha virt. eigenvalues --    0.66593   0.67391   0.68116   0.68292   0.69568
 Alpha virt. eigenvalues --    0.70122   0.70496   0.70943   0.71367   0.72215
 Alpha virt. eigenvalues --    0.73287   0.73783   0.74289   0.75259   0.76021
 Alpha virt. eigenvalues --    0.76536   0.76882   0.77077   0.77777   0.77932
 Alpha virt. eigenvalues --    0.78250   0.79064   0.79382   0.79571   0.80218
 Alpha virt. eigenvalues --    0.80386   0.81185   0.81397   0.81662   0.82566
 Alpha virt. eigenvalues --    0.82809   0.83172   0.83560   0.84253   0.84552
 Alpha virt. eigenvalues --    0.84693   0.85314   0.85834   0.86416   0.86891
 Alpha virt. eigenvalues --    0.87397   0.87780   0.88183   0.88438   0.89666
 Alpha virt. eigenvalues --    0.90435   0.91154   0.91281   0.92878   0.93176
 Alpha virt. eigenvalues --    0.93620   0.94263   0.94691   0.95708   0.96484
 Alpha virt. eigenvalues --    0.97206   0.98291   0.99862   1.01032   1.01754
 Alpha virt. eigenvalues --    1.02716   1.03764   1.04495   1.05105   1.06203
 Alpha virt. eigenvalues --    1.06815   1.08264   1.09951   1.10835   1.12948
 Alpha virt. eigenvalues --    1.14017   1.14324   1.15650   1.17055   1.19448
 Alpha virt. eigenvalues --    1.19582   1.20561   1.21661   1.23725   1.23885
 Alpha virt. eigenvalues --    1.26256   1.26835   1.28639   1.29195   1.29564
 Alpha virt. eigenvalues --    1.30343   1.31892   1.34144   1.34774   1.37221
 Alpha virt. eigenvalues --    1.37630   1.37817   1.38617   1.39014   1.40229
 Alpha virt. eigenvalues --    1.41203   1.41545   1.43816   1.44740   1.45789
 Alpha virt. eigenvalues --    1.47105   1.48549   1.49766   1.51264   1.52588
 Alpha virt. eigenvalues --    1.52831   1.53494   1.54372   1.55009   1.55740
 Alpha virt. eigenvalues --    1.58298   1.60212   1.61145   1.61945   1.62287
 Alpha virt. eigenvalues --    1.63556   1.64064   1.64499   1.65781   1.66255
 Alpha virt. eigenvalues --    1.66824   1.67931   1.68413   1.69288   1.69681
 Alpha virt. eigenvalues --    1.70172   1.70472   1.71293   1.71880   1.72293
 Alpha virt. eigenvalues --    1.73301   1.73536   1.74096   1.75005   1.75641
 Alpha virt. eigenvalues --    1.76012   1.76965   1.78498   1.79400   1.80305
 Alpha virt. eigenvalues --    1.80447   1.81048   1.81609   1.83291   1.83456
 Alpha virt. eigenvalues --    1.84621   1.85076   1.85259   1.85374   1.86745
 Alpha virt. eigenvalues --    1.87816   1.88446   1.89047   1.89824   1.90554
 Alpha virt. eigenvalues --    1.91000   1.91391   1.92158   1.93725   1.93985
 Alpha virt. eigenvalues --    1.94847   1.95776   1.97273   1.97957   1.98303
 Alpha virt. eigenvalues --    1.99546   2.00438   2.01554   2.02143   2.03144
 Alpha virt. eigenvalues --    2.04454   2.04930   2.05801   2.08123   2.09973
 Alpha virt. eigenvalues --    2.10811   2.11642   2.14936   2.15941   2.16971
 Alpha virt. eigenvalues --    2.17570   2.17928   2.18962   2.19471   2.19979
 Alpha virt. eigenvalues --    2.20025   2.20966   2.21544   2.23075   2.26220
 Alpha virt. eigenvalues --    2.26692   2.27480   2.29609   2.29876   2.30913
 Alpha virt. eigenvalues --    2.31519   2.32051   2.33863   2.34809   2.35381
 Alpha virt. eigenvalues --    2.37694   2.38892   2.39243   2.40593   2.41067
 Alpha virt. eigenvalues --    2.41917   2.42669   2.44246   2.44850   2.45247
 Alpha virt. eigenvalues --    2.46764   2.47734   2.50172   2.51494   2.52551
 Alpha virt. eigenvalues --    2.52707   2.53773   2.55636   2.56880   2.59489
 Alpha virt. eigenvalues --    2.60508   2.61577   2.62815   2.63234   2.64369
 Alpha virt. eigenvalues --    2.65266   2.68057   2.68775   2.70554   2.73270
 Alpha virt. eigenvalues --    2.75216   2.77239   2.81559   2.83570   2.86410
 Alpha virt. eigenvalues --    2.88007   2.90877   2.92145   2.93707   2.95009
 Alpha virt. eigenvalues --    3.00574   3.01560   3.03526   3.07015   3.09469
 Alpha virt. eigenvalues --    3.63782   3.77297   3.79290   3.87493   3.92110
 Alpha virt. eigenvalues --    3.93135   3.95905   4.00319   4.01441   4.03568
 Alpha virt. eigenvalues --    4.04671   4.08820   4.10159   4.15984   4.17654
 Alpha virt. eigenvalues --    4.21713   4.22091   4.22750   4.24799   4.27022
 Alpha virt. eigenvalues --    4.33795   4.36605   4.38018   4.44177   4.47649
 Alpha virt. eigenvalues --    4.49782   4.52182   4.56266   4.61373
          Condensed to atoms (all electrons):
 Mulliken charges:
               1
     1  N   -0.744678
     2  H    0.412801
     3  H    0.430207
     4  H    0.410231
     5  C   -0.136564
     6  H    0.229795
     7  C    0.643464
     8  C   -0.291182
     9  H    0.164018
    10  H    0.220841
    11  O   -0.556989
    12  C   -0.388032
    13  H    0.194037
    14  H    0.139888
    15  C    0.621580
    16  O   -0.564893
    17  O   -0.607561
    18  N   -0.628947
    19  H    0.421516
    20  C   -0.070180
    21  H    0.183717
    22  C    0.631741
    23  C   -0.253943
    24  H    0.150263
    25  H    0.171567
    26  O   -0.545514
    27  C   -0.076686
    28  H    0.105946
    29  C   -0.445457
    30  H    0.153184
    31  H    0.153854
    32  H    0.149224
    33  C   -0.466040
    34  H    0.147249
    35  H    0.166137
    36  H    0.152837
    37  N   -0.611916
    38  H    0.363564
    39  C   -0.042921
    40  H    0.196196
    41  C    0.589226
    42  C   -0.291229
    43  H    0.167013
    44  H    0.173920
    45  O   -0.453199
    46  C   -0.274959
    47  H    0.153373
    48  H    0.185160
    49  C   -0.177885
    50  H    0.182554
    51  H    0.188138
    52  N   -0.596087
    53  H    0.343753
    54  N   -0.797621
    55  H    0.425736
    56  H    0.383738
    57  N   -0.772021
    58  H    0.413577
    59  H    0.338025
    60  C    0.761231
    61  O   -0.557149
    62  H    0.432352
 Sum of Mulliken charges =   1.00000
 Mulliken charges with hydrogens summed into heavy atoms:
               1
     1  N    0.508562
     5  C    0.093231
     7  C    0.643464
     8  C    0.093677
    11  O   -0.556989
    12  C   -0.054106
    15  C    0.621580
    16  O   -0.564893
    17  O   -0.607561
    18  N   -0.207431
    20  C    0.113537
    22  C    0.631741
    23  C    0.067887
    26  O   -0.545514
    27  C    0.029260
    29  C    0.010805
    33  C    0.000183
    37  N   -0.248353
    39  C    0.153275
    41  C    0.589226
    42  C    0.049704
    45  O   -0.453199
    46  C    0.063574
    49  C    0.192806
    52  N   -0.252334
    54  N    0.011853
    57  N   -0.020419
    60  C    0.761231
    61  O   -0.124797
 Electronic spatial extent (au):  <R**2>=          17795.5730
 Charge=              1.0000 electrons
 Dipole moment (field-independent basis, Debye):
    X=              1.2861    Y=              8.8519    Z=            -11.9840  Tot=             14.9542
 Quadrupole moment (field-independent basis, Debye-Ang):
   XX=            -76.1592   YY=           -132.4780   ZZ=           -111.0888
   XY=             50.7319   XZ=             29.7908   YZ=            -14.0788
 Traceless Quadrupole moment (field-independent basis, Debye-Ang):
   XX=             30.4161   YY=            -25.9027   ZZ=             -4.5135
   XY=             50.7319   XZ=             29.7908   YZ=            -14.0788
 Octapole moment (field-independent basis, Debye-Ang**2):
  XXX=           -418.9499  YYY=           -489.4983  ZZZ=            595.6592  XYY=            -27.0763
  XXY=             72.8192  XXZ=             -4.3596  XZZ=           -313.7576  YZZ=           -118.6668
  YYZ=            219.4217  XYZ=            -60.8705
 Hexadecapole moment (field-independent basis, Debye-Ang**3):
 XXXX=          -6455.1049 YYYY=          -4616.6039 ZZZZ=          -7357.0761 XXXY=          -1112.7867
 XXXZ=            738.2055 YYYX=          -1736.3174 YYYZ=            718.5596 ZZZX=           1691.5808
 ZZZY=            647.3737 XXYY=          -1273.7588 XXZZ=          -1573.3973 YYZZ=          -1830.8920
 XXYZ=           -349.7305 YYXZ=            155.0097 ZZXY=           -347.7288
 N-N= 3.156765300535D+03 E-N=-9.665013557768D+03  KE= 1.434055182746D+03
 Unable to Open any file for archive entry.
 1\1\GINC-AMR-147\SP\RB3LYP\6-31G(d)\C17H33N6O6(1+)\KENGMITH\01-Jun-202
 2\0\\# B3LYP/6-31G* empiricaldispersion=gd3 guess=read geom=check nosy
 mm integral(ultrafinegrid)\\Candidate Structure: Conf:549 Charge calc 
 in gas phase\\1,1\N,0,-3.2394561205,0.5880195494,-3.8494603279\H,0,-3.
 9838003216,0.0571140148,-4.3075875781\H,0,-3.5388094753,0.9642174857,-
 2.9111975492\H,0,-2.9750999808,1.374376457,-4.4534413473\C,0,-2.024266
 9876,-0.2549284843,-3.4904367214\H,0,-2.4339950152,-1.2302833159,-3.20
 40316569\C,0,-1.5634339573,0.3875040744,-2.1498945522\C,0,-1.080837920
 8,-0.4204039716,-4.6755186085\H,0,-1.6562239882,-0.8760652828,-5.49128
 46661\H,0,-0.3288139623,-1.1595341241,-4.3836408886\O,0,-2.4597140724,
 0.9619239898,-1.5032585818\C,0,-0.3625198392,0.8561056701,-5.150654184
 9\H,0,-0.4429920845,0.9816161844,-6.2329623061\H,0,-0.7948646946,1.768
 5860868,-4.7084487903\C,0,1.1430195804,0.8882659433,-4.7885930985\O,0,
 1.8472551022,1.6743950007,-5.4513495821\O,0,1.5196112733,0.1309063344,
 -3.835375821\N,0,-0.3132016046,0.1885413915,-1.7456178877\H,0,0.423147
 418,-0.0643600883,-2.4371529719\C,0,0.0764559779,0.4948222275,-0.35846
 60677\H,0,-0.6569739091,1.2036903942,0.0315825862\C,0,1.48000358,1.106
 0163678,-0.3495288694\C,0,0.1078096197,-0.7850402898,0.5050986342\H,0,
 0.4862746692,-0.5060647969,1.4990111089\H,0,0.8551175682,-1.4536209157
 ,0.062840913\O,0,2.4476816986,0.4545528381,-0.747262878\C,0,-1.2365261
 079,-1.5153306026,0.6703454911\H,0,-1.6333766902,-1.731638072,-0.33357
 83327\C,0,-1.0011617435,-2.8592888768,1.3768600122\H,0,-0.5988197803,-
 2.7027153959,2.3855425569\H,0,-1.9382940058,-3.4176121435,1.4774888775
 \H,0,-0.2901629152,-3.4858727132,0.826083597\C,0,-2.2728697266,-0.6744
 874749,1.4301970681\H,0,-1.8966066176,-0.4059301448,2.4257000373\H,0,-
 2.5301195569,0.2450230127,0.8959244134\H,0,-3.1991537809,-1.2423475067
 ,1.5723906444\N,0,1.5950974244,2.3524344338,0.1622945569\H,0,0.8013754
 695,2.8382566453,0.564078079\C,0,2.9021134759,2.9573545526,0.373035186
 5\H,0,3.6196947289,2.1569778164,0.5777712066\C,0,2.7848159453,3.853639
 072,1.6006183669\C,0,3.3606633399,3.7746932,-0.8690715811\H,0,2.796201
 8189,4.7146802108,-0.8833398298\H,0,3.0428422172,3.2167845193,-1.75467
 88677\O,0,1.7339986499,4.2689859903,2.0367327915\C,0,4.8719816593,4.06
 1966589,-0.9250755809\H,0,5.0489530433,4.9370966888,-1.5624513126\H,0,
 5.2445288199,4.3252278069,0.0699392887\C,0,5.7113233432,2.8919262426,-
 1.4747897612\H,0,5.4618483142,1.9473993456,-0.9820701752\H,0,6.7726480
 382,3.0644424043,-1.2728152688\N,0,5.5750311921,2.7241676223,-2.925000
 1457\H,0,6.0538391759,3.4137717949,-3.4881444429\N,0,3.9560571611,1.03
 27073254,-2.9508912447\H,0,3.1288913643,0.5894824314,-3.4040374764\H,0
 ,3.9176236414,0.9587825814,-1.941844322\N,0,4.5008095266,2.1120557199,
 -4.9047133442\H,0,3.5684667039,1.8254949668,-5.2699104713\H,0,4.908275
 8819,2.9237354925,-5.348763933\C,0,4.6587406195,1.9661294343,-3.575214
 391\O,0,3.9887538289,4.1567275031,2.1182814773\H,0,3.8411938881,4.7610
 763473,2.8721848434\\Version=ES64L-G16RevC.01\HF=-1447.5106339\RMSD=3.
 141e-09\Dipole=-1.9594237,1.0761129,-1.752053\Quadrupole=22.6136376,-1
 9.2579967,-3.3556409,37.7179603,22.1487526,-10.4672192\PG=C01 [X(C17H3
 3N6O6)]\\@
 The archive entry for this job was punched.


 KNOWLEDGE IS CHIMERA - FOR BEYOND IT LIES OTHER KNOWLEDGE,
 AND THE INCOMPLETENESS OF WHAT IS KNOWN RENDERS THE KNOWING FALSE.
     -- THE THOMAS COVENANT CHRONICLES
 Job cpu time:       0 days  0 hours  0 minutes 59.8 seconds.
 Elapsed time:       0 days  0 hours  0 minutes 15.4 seconds.
 File lengths (MBytes):  RWF=    248 Int=      0 D2E=      0 Chk=     32 Scr=     16
 Normal termination of Gaussian 16 at Wed Jun  1 02:11:51 2022.
