 Entering Gaussian System, Link 0=/opt/software/Gaussian/g16-AVX2-C.01/g16/g16
 Input=charge-conf-962.com
 Output=charge-conf-962.log
 Initial command:
 /opt/software/Gaussian/g16-AVX2-C.01/g16/l1.exe "/mnt/gs18/scratch/users/kengmith/Gau-74856.inp" -scrdir="/mnt/gs18/scratch/users/kengmith/"
 Entering Link 1 = /opt/software/Gaussian/g16-AVX2-C.01/g16/l1.exe PID=     74871.
  
 Copyright (c) 1988-2019, Gaussian, Inc.  All Rights Reserved.
  
 This is part of the Gaussian(R) 16 program.  It is based on
 the Gaussian(R) 09 system (copyright 2009, Gaussian, Inc.),
 the Gaussian(R) 03 system (copyright 2003, Gaussian, Inc.),
 the Gaussian(R) 98 system (copyright 1998, Gaussian, Inc.),
 the Gaussian(R) 94 system (copyright 1995, Gaussian, Inc.),
 the Gaussian 92(TM) system (copyright 1992, Gaussian, Inc.),
 the Gaussian 90(TM) system (copyright 1990, Gaussian, Inc.),
 the Gaussian 88(TM) system (copyright 1988, Gaussian, Inc.),
 the Gaussian 86(TM) system (copyright 1986, Carnegie Mellon
 University), and the Gaussian 82(TM) system (copyright 1983,
 Carnegie Mellon University). Gaussian is a federally registered
 trademark of Gaussian, Inc.
  
 This software contains proprietary and confidential information,
 including trade secrets, belonging to Gaussian, Inc.
  
 This software is provided under written license and may be
 used, copied, transmitted, or stored only in accord with that
 written license.
  
 The following legend is applicable only to US Government
 contracts under FAR:
  
                    RESTRICTED RIGHTS LEGEND
  
 Use, reproduction and disclosure by the US Government is
 subject to restrictions as set forth in subparagraphs (a)
 and (c) of the Commercial Computer Software - Restricted
 Rights clause in FAR 52.227-19.
  
 Gaussian, Inc.
 340 Quinnipiac St., Bldg. 40, Wallingford CT 06492
  
  
 ---------------------------------------------------------------
 Warning -- This program may not be used in any manner that
 competes with the business of Gaussian, Inc. or will provide
 assistance to any competitor of Gaussian, Inc.  The licensee
 of this program is prohibited from giving any competitor of
 Gaussian, Inc. access to this program.  By using this program,
 the user acknowledges that Gaussian, Inc. is engaged in the
 business of creating and licensing software in the field of
 computational chemistry and represents and warrants to the
 licensee that it is not a competitor of Gaussian, Inc. and that
 it will not use this program in any manner prohibited above.
 ---------------------------------------------------------------
  

 Cite this work as:
 Gaussian 16, Revision C.01,
 M. J. Frisch, G. W. Trucks, H. B. Schlegel, G. E. Scuseria, 
 M. A. Robb, J. R. Cheeseman, G. Scalmani, V. Barone, 
 G. A. Petersson, H. Nakatsuji, X. Li, M. Caricato, A. V. Marenich, 
 J. Bloino, B. G. Janesko, R. Gomperts, B. Mennucci, H. P. Hratchian, 
 J. V. Ortiz, A. F. Izmaylov, J. L. Sonnenberg, D. Williams-Young, 
 F. Ding, F. Lipparini, F. Egidi, J. Goings, B. Peng, A. Petrone, 
 T. Henderson, D. Ranasinghe, V. G. Zakrzewski, J. Gao, N. Rega, 
 G. Zheng, W. Liang, M. Hada, M. Ehara, K. Toyota, R. Fukuda, 
 J. Hasegawa, M. Ishida, T. Nakajima, Y. Honda, O. Kitao, H. Nakai, 
 T. Vreven, K. Throssell, J. A. Montgomery, Jr., J. E. Peralta, 
 F. Ogliaro, M. J. Bearpark, J. J. Heyd, E. N. Brothers, K. N. Kudin, 
 V. N. Staroverov, T. A. Keith, R. Kobayashi, J. Normand, 
 K. Raghavachari, A. P. Rendell, J. C. Burant, S. S. Iyengar, 
 J. Tomasi, M. Cossi, J. M. Millam, M. Klene, C. Adamo, R. Cammi, 
 J. W. Ochterski, R. L. Martin, K. Morokuma, O. Farkas, 
 J. B. Foresman, and D. J. Fox, Gaussian, Inc., Wallingford CT, 2019.
 
 ******************************************
 Gaussian 16:  ES64L-G16RevC.01  3-Jul-2019
                 2-Jun-2022 
 ******************************************
 %mem=8gb
 %nproc=4
 Will use up to    4 processors via shared memory.
 %chk=conf-962.chk
 ----------------------------------------------------------------------
 # B3LYP/6-31G* empiricaldispersion=gd3 guess=read geom=check nosymm in
 tegral(ultrafinegrid)
 ----------------------------------------------------------------------
 1/29=2,38=1,172=1/1;
 2/12=2,15=1,40=1/2;
 3/5=1,6=6,7=1,11=2,14=-4,25=1,30=1,74=-5,75=-5,116=-2,124=31/1,2,3;
 4/5=1/1;
 5/5=2,38=6/2;
 6/7=2,8=2,9=2,10=2,28=1/1;
 99/5=1,9=1/99;
 ------------------------------------------------------
 Candidate Structure: Conf:962 Charge calc in gas phase
 ------------------------------------------------------
 Structure from the checkpoint file:  "conf-962.chk"
 Charge =  1 Multiplicity = 1
 Redundant internal coordinates found in file.  (old form).
 N,0,-1.1838077331,-3.634263117,3.7630974162
 H,0,-0.2745420483,-3.4855670946,4.1987663574
 H,0,-2.6014199928,-3.33692067,5.0296094132
 H,0,-1.0620902289,-4.4440230877,3.1547574884
 C,0,-1.5485775935,-2.4687883871,2.9586676558
 H,0,-1.6948389492,-1.6326402091,3.6552160716
 C,0,-0.4507605276,-2.0826396504,1.9547968727
 C,0,-2.881209309,-2.7246672664,2.2124789336
 H,0,-2.6960819643,-3.4065492554,1.3721869447
 H,0,-3.234915451,-1.7804764703,1.7825906337
 O,0,0.4721500886,-2.8308138954,1.6745070288
 C,0,-3.991580178,-3.3192917745,3.1049018198
 H,0,-3.7467543022,-4.3545538333,3.3631027039
 H,0,-4.9323145663,-3.3191924432,2.5502143995
 C,0,-4.2026608628,-2.4977314188,4.378209095
 O,0,-5.0772505607,-1.6737183906,4.4960934938
 O,0,-3.301339632,-2.7198882088,5.3598788651
 N,0,-0.6056677377,-0.8301718729,1.3925993989
 H,0,-1.3793033971,-0.2622233684,1.7110454679
 C,0,0.2329822023,-0.2702344611,0.3551233019
 H,0,-0.2944710045,0.6011053477,-0.0467517473
 C,0,1.5583809751,0.244769308,0.9008381194
 C,0,0.4940928967,-1.2398811057,-0.8546353863
 H,0,0.9445192789,-2.1530543534,-0.4661085412
 H,0,-0.5031113864,-1.4951849936,-1.2301220328
 O,0,2.0468478555,-0.3752683622,1.9262015195
 C,0,1.3535104504,-0.6079524645,-1.918204685
 C,0,0.8638728304,0.4325470134,-2.7273069576
 H,0,-0.1826344005,0.7255876672,-2.6543669704
 C,0,2.6959946734,-0.9806184912,-2.066028715
 H,0,3.0939871236,-1.7950368927,-1.463864199
 C,0,1.6850996204,1.0845951668,-3.6421348313
 H,0,1.3046875867,1.878115118,-4.2772694312
 C,0,3.528270244,-0.3478368609,-2.9874760301
 H,0,4.5547881853,-0.6771672863,-3.1177516913
 O,0,3.7771071715,1.3512096619,-4.690828988
 C,0,3.0320392862,0.6997555203,-3.786416659
 N,0,2.16252978,1.247960892,0.2959659708
 H,0,1.7035759671,1.5792574139,-0.5522688868
 C,0,3.5715142989,1.7075313556,0.44574291
 H,0,4.215344324,0.8254235406,0.3441598908
 C,0,3.7801563115,2.3174623081,1.8454556258
 C,0,3.9007439292,2.7501734387,-0.6292417174
 H,0,3.5331954519,2.3860714996,-1.5961536817
 H,0,3.3607520568,3.6694964983,-0.3828425177
 O,0,3.8296668765,3.482945251,2.1124895339
 C,0,5.4230953927,3.0076742857,-0.7091181698
 H,0,5.8677502954,2.9179677788,0.2888732213
 H,0,5.5890060318,4.0506063113,-1.0003302977
 C,0,6.1356797464,2.0726684926,-1.7065618716
 H,0,7.1671045403,1.8856197218,-1.3838211779
 H,0,5.6328745541,1.0960960884,-1.7308082201
 C,0,6.1482854856,2.6672995455,-3.1202249575
 H,0,5.1701234441,3.10525728,-3.3526749043
 H,0,6.8839774154,3.4837336769,-3.1549891145
 N,0,6.401688608,1.6292192315,-4.14183573
 H,0,6.6926068185,2.0639366768,-5.0176916601
 H,0,4.7573404119,1.1746813005,-4.5536034344
 H,0,7.1715862564,1.0237813276,-3.8585350313
 O,0,3.9120212889,1.3226209635,2.7821647672
 H,0,2.8566998874,0.0476693754,2.3150430236
 H,0,4.0172224541,1.7268030881,3.6678277039
 Recover connectivity data from disk.
                           ----------------------------
                           !    Current Parameters    !
                           ! (Angstroms and Degrees)  !
 --------------------------                            --------------------------
 ! Name  Definition              Value                                          !
 --------------------------------------------------------------------------------
 ! R1    R(1,2)                  1.0192                                         !
 ! R2    R(1,3)                  1.9241                                         !
 ! R3    R(1,4)                  1.0201                                         !
 ! R4    R(1,5)                  1.4624                                         !
 ! R5    R(5,6)                  1.0981                                         !
 ! R6    R(5,7)                  1.5369                                         !
 ! R7    R(5,8)                  1.5486                                         !
 ! R8    R(7,11)                 1.2207                                         !
 ! R9    R(7,18)                 1.3816                                         !
 ! R10   R(8,9)                  1.0979                                         !
 ! R11   R(8,10)                 1.0961                                         !
 ! R12   R(8,12)                 1.5437                                         !
 ! R13   R(12,13)                1.0947                                         !
 ! R14   R(12,14)                1.0921                                         !
 ! R15   R(12,15)                1.53                                           !
 ! R16   R(15,16)                1.2074                                         !
 ! R17   R(15,17)                1.3511                                         !
 ! R18   R(18,19)                1.0112                                         !
 ! R19   R(18,20)                1.4468                                         !
 ! R20   R(20,21)                1.095                                          !
 ! R21   R(20,22)                1.5231                                         !
 ! R22   R(20,23)                1.5722                                         !
 ! R23   R(22,26)                1.294                                          !
 ! R24   R(22,38)                1.3181                                         !
 ! R25   R(23,24)                1.0898                                         !
 ! R26   R(23,25)                1.0957                                         !
 ! R27   R(23,27)                1.5064                                         !
 ! R28   R(27,28)                1.4061                                         !
 ! R29   R(27,30)                1.4011                                         !
 ! R30   R(28,29)                1.0892                                         !
 ! R31   R(28,32)                1.3916                                         !
 ! R32   R(30,31)                1.0882                                         !
 ! R33   R(30,34)                1.3936                                         !
 ! R34   R(32,33)                1.0853                                         !
 ! R35   R(32,37)                1.4082                                         !
 ! R36   R(34,35)                1.0859                                         !
 ! R37   R(34,37)                1.4078                                         !
 ! R38   R(36,37)                1.3407                                         !
 ! R39   R(38,39)                1.0198                                         !
 ! R40   R(38,40)                1.4896                                         !
 ! R41   R(40,41)                1.0968                                         !
 ! R42   R(40,42)                1.541                                          !
 ! R43   R(40,43)                1.5333                                         !
 ! R44   R(42,46)                1.1967                                         !
 ! R45   R(42,60)                1.3728                                         !
 ! R46   R(43,44)                1.0966                                         !
 ! R47   R(43,45)                1.0943                                         !
 ! R48   R(43,47)                1.546                                          !
 ! R49   R(47,48)                1.0962                                         !
 ! R50   R(47,49)                1.0955                                         !
 ! R51   R(47,50)                1.5417                                         !
 ! R52   R(50,51)                1.0968                                         !
 ! R53   R(50,52)                1.0987                                         !
 ! R54   R(50,53)                1.5337                                         !
 ! R55   R(53,54)                1.0966                                         !
 ! R56   R(53,55)                1.0996                                         !
 ! R57   R(53,56)                1.4783                                         !
 ! R58   R(56,57)                1.0202                                         !
 ! R59   R(56,58)                1.755                                          !
 ! R60   R(56,59)                1.0196                                         !
 ! R61   R(60,61)                1.7197                                         !
 ! R62   R(60,62)                0.9792                                         !
 ! A1    A(2,1,3)              110.6953                                         !
 ! A2    A(2,1,4)              105.3249                                         !
 ! A3    A(2,1,5)              109.9631                                         !
 ! A4    A(3,1,4)              127.0943                                         !
 ! A5    A(3,1,5)               93.1614                                         !
 ! A6    A(4,1,5)              109.5338                                         !
 ! A7    A(1,5,6)              106.9277                                         !
 ! A8    A(1,5,7)              112.4188                                         !
 ! A9    A(1,5,8)              110.3665                                         !
 ! A10   A(6,5,7)              108.552                                          !
 ! A11   A(6,5,8)              108.4729                                         !
 ! A12   A(7,5,8)              109.9664                                         !
 ! A13   A(5,7,11)             122.4144                                         !
 ! A14   A(5,7,18)             114.4235                                         !
 ! A15   A(11,7,18)            123.1594                                         !
 ! A16   A(5,8,9)              109.0452                                         !
 ! A17   A(5,8,10)             108.9257                                         !
 ! A18   A(5,8,12)             113.833                                          !
 ! A19   A(9,8,10)             106.8132                                         !
 ! A20   A(9,8,12)             108.9369                                         !
 ! A21   A(10,8,12)            109.0528                                         !
 ! A22   A(8,12,13)            109.863                                          !
 ! A23   A(8,12,14)            109.0229                                         !
 ! A24   A(8,12,15)            111.9332                                         !
 ! A25   A(13,12,14)           108.2121                                         !
 ! A26   A(13,12,15)           110.0218                                         !
 ! A27   A(14,12,15)           107.6869                                         !
 ! A28   A(12,15,16)           123.2068                                         !
 ! A29   A(12,15,17)           115.1101                                         !
 ! A30   A(16,15,17)           121.6352                                         !
 ! A31   A(7,18,19)            117.8278                                         !
 ! A32   A(7,18,20)            125.2861                                         !
 ! A33   A(19,18,20)           116.8682                                         !
 ! A34   A(18,20,21)           106.9739                                         !
 ! A35   A(18,20,22)           112.2324                                         !
 ! A36   A(18,20,23)           114.1637                                         !
 ! A37   A(21,20,22)           106.3567                                         !
 ! A38   A(21,20,23)           106.7606                                         !
 ! A39   A(22,20,23)           109.8594                                         !
 ! A40   A(20,22,26)           116.7689                                         !
 ! A41   A(20,22,38)           119.4597                                         !
 ! A42   A(26,22,38)           123.7327                                         !
 ! A43   A(20,23,24)           108.125                                          !
 ! A44   A(20,23,25)           104.8469                                         !
 ! A45   A(20,23,27)           112.2905                                         !
 ! A46   A(24,23,25)           107.6426                                         !
 ! A47   A(24,23,27)           111.5566                                         !
 ! A48   A(25,23,27)           112.0259                                         !
 ! A49   A(23,27,28)           121.2016                                         !
 ! A50   A(23,27,30)           120.636                                          !
 ! A51   A(28,27,30)           118.0206                                         !
 ! A52   A(27,28,29)           119.6788                                         !
 ! A53   A(27,28,32)           121.3007                                         !
 ! A54   A(29,28,32)           119.0102                                         !
 ! A55   A(27,30,31)           119.4132                                         !
 ! A56   A(27,30,34)           121.4143                                         !
 ! A57   A(31,30,34)           119.1605                                         !
 ! A58   A(28,32,33)           121.3648                                         !
 ! A59   A(28,32,37)           120.2487                                         !
 ! A60   A(33,32,37)           118.3672                                         !
 ! A61   A(30,34,35)           120.4089                                         !
 ! A62   A(30,34,37)           120.1717                                         !
 ! A63   A(35,34,37)           119.393                                          !
 ! A64   A(32,37,34)           118.8382                                         !
 ! A65   A(32,37,36)           117.8957                                         !
 ! A66   A(34,37,36)           123.2648                                         !
 ! A67   A(22,38,39)           115.0054                                         !
 ! A68   A(22,38,40)           128.4799                                         !
 ! A69   A(39,38,40)           114.1492                                         !
 ! A70   A(38,40,41)           107.3257                                         !
 ! A71   A(38,40,42)           109.9687                                         !
 ! A72   A(38,40,43)           110.0229                                         !
 ! A73   A(41,40,42)           108.8428                                         !
 ! A74   A(41,40,43)           110.8495                                         !
 ! A75   A(42,40,43)           109.7907                                         !
 ! A76   A(40,42,46)           126.4236                                         !
 ! A77   A(40,42,60)           110.2398                                         !
 ! A78   A(46,42,60)           123.3361                                         !
 ! A79   A(40,43,44)           108.6883                                         !
 ! A80   A(40,43,45)           107.9056                                         !
 ! A81   A(40,43,47)           111.1557                                         !
 ! A82   A(44,43,45)           108.1846                                         !
 ! A83   A(44,43,47)           109.8631                                         !
 ! A84   A(45,43,47)           110.9537                                         !
 ! A85   A(43,47,48)           109.8                                            !
 ! A86   A(43,47,49)           108.7497                                         !
 ! A87   A(43,47,50)           112.8011                                         !
 ! A88   A(48,47,49)           104.9801                                         !
 ! A89   A(48,47,50)           110.6022                                         !
 ! A90   A(49,47,50)           109.5968                                         !
 ! A91   A(47,50,51)           110.3468                                         !
 ! A92   A(47,50,52)           109.9878                                         !
 ! A93   A(47,50,53)           111.4076                                         !
 ! A94   A(51,50,52)           106.5751                                         !
 ! A95   A(51,50,53)           109.2456                                         !
 ! A96   A(52,50,53)           109.1501                                         !
 ! A97   A(50,53,54)           110.0526                                         !
 ! A98   A(50,53,55)           108.8157                                         !
 ! A99   A(50,53,56)           111.4771                                         !
 ! A100  A(54,53,55)           107.0712                                         !
 ! A101  A(54,53,56)           106.6688                                         !
 ! A102  A(55,53,56)           112.6344                                         !
 ! A103  A(53,56,57)           110.0571                                         !
 ! A104  A(53,56,58)           100.5678                                         !
 ! A105  A(53,56,59)           110.7557                                         !
 ! A106  A(57,56,58)           100.1436                                         !
 ! A107  A(57,56,59)           106.0369                                         !
 ! A108  A(58,56,59)           128.2356                                         !
 ! A109  A(42,60,61)           107.0363                                         !
 ! A110  A(42,60,62)           109.169                                          !
 ! A111  A(61,60,62)           128.1431                                         !
 ! D1    D(2,1,5,6)            -66.2015                                         !
 ! D2    D(2,1,5,7)             52.8325                                         !
 ! D3    D(2,1,5,8)            176.0057                                         !
 ! D4    D(3,1,5,6)             47.166                                          !
 ! D5    D(3,1,5,7)            166.1999                                         !
 ! D6    D(3,1,5,8)            -70.6269                                         !
 ! D7    D(4,1,5,6)            178.5065                                         !
 ! D8    D(4,1,5,7)            -62.4595                                         !
 ! D9    D(4,1,5,8)             60.7137                                         !
 ! D10   D(1,5,7,11)            14.6002                                         !
 ! D11   D(1,5,7,18)          -165.9818                                         !
 ! D12   D(6,5,7,11)           132.6793                                         !
 ! D13   D(6,5,7,18)           -47.9027                                         !
 ! D14   D(8,5,7,11)          -108.7968                                         !
 ! D15   D(8,5,7,18)            70.6212                                         !
 ! D16   D(1,5,8,9)            -74.9839                                         !
 ! D17   D(1,5,8,10)           168.7938                                         !
 ! D18   D(1,5,8,12)            46.8742                                         !
 ! D19   D(6,5,8,9)            168.178                                          !
 ! D20   D(6,5,8,10)            51.9558                                         !
 ! D21   D(6,5,8,12)           -69.9639                                         !
 ! D22   D(7,5,8,9)             49.6054                                         !
 ! D23   D(7,5,8,10)           -66.6168                                         !
 ! D24   D(7,5,8,12)           171.4635                                         !
 ! D25   D(5,7,18,19)            3.0173                                         !
 ! D26   D(5,7,18,20)         -175.3897                                         !
 ! D27   D(11,7,18,19)        -177.5696                                         !
 ! D28   D(11,7,18,20)           4.0234                                         !
 ! D29   D(5,8,12,13)          -70.5027                                         !
 ! D30   D(5,8,12,14)          171.0692                                         !
 ! D31   D(5,8,12,15)           52.0389                                         !
 ! D32   D(9,8,12,13)           51.4153                                         !
 ! D33   D(9,8,12,14)          -67.0128                                         !
 ! D34   D(9,8,12,15)          173.9569                                         !
 ! D35   D(10,8,12,13)         167.648                                          !
 ! D36   D(10,8,12,14)          49.2199                                         !
 ! D37   D(10,8,12,15)         -69.8104                                         !
 ! D38   D(8,12,15,16)          98.1498                                         !
 ! D39   D(8,12,15,17)         -79.3675                                         !
 ! D40   D(13,12,15,16)       -139.3991                                         !
 ! D41   D(13,12,15,17)         43.0836                                         !
 ! D42   D(14,12,15,16)        -21.6665                                         !
 ! D43   D(14,12,15,17)        160.8162                                         !
 ! D44   D(7,18,20,21)         165.5823                                         !
 ! D45   D(7,18,20,22)         -78.1314                                         !
 ! D46   D(7,18,20,23)          47.7162                                         !
 ! D47   D(19,18,20,21)        -12.8384                                         !
 ! D48   D(19,18,20,22)        103.4479                                         !
 ! D49   D(19,18,20,23)       -130.7045                                         !
 ! D50   D(18,20,22,26)         31.4208                                         !
 ! D51   D(18,20,22,38)       -150.7576                                         !
 ! D52   D(21,20,22,26)        148.0781                                         !
 ! D53   D(21,20,22,38)        -34.1003                                         !
 ! D54   D(23,20,22,26)        -96.7365                                         !
 ! D55   D(23,20,22,38)         81.0851                                         !
 ! D56   D(18,20,23,24)        -57.3587                                         !
 ! D57   D(18,20,23,25)         57.267                                          !
 ! D58   D(18,20,23,27)        179.1361                                         !
 ! D59   D(21,20,23,24)       -175.3469                                         !
 ! D60   D(21,20,23,25)        -60.7212                                         !
 ! D61   D(21,20,23,27)         61.148                                          !
 ! D62   D(22,20,23,24)         69.7245                                         !
 ! D63   D(22,20,23,25)       -175.6498                                         !
 ! D64   D(22,20,23,27)        -53.7806                                         !
 ! D65   D(20,22,38,39)         -3.3668                                         !
 ! D66   D(20,22,38,40)       -164.7017                                         !
 ! D67   D(26,22,38,39)        174.2944                                         !
 ! D68   D(26,22,38,40)         12.9595                                         !
 ! D69   D(20,23,27,28)        -70.2109                                         !
 ! D70   D(20,23,27,30)        105.3744                                         !
 ! D71   D(24,23,27,28)        168.2254                                         !
 ! D72   D(24,23,27,30)        -16.1894                                         !
 ! D73   D(25,23,27,28)         47.4718                                         !
 ! D74   D(25,23,27,30)       -136.9429                                         !
 ! D75   D(23,27,28,29)         -5.9887                                         !
 ! D76   D(23,27,28,32)        175.1864                                         !
 ! D77   D(30,27,28,29)        178.3139                                         !
 ! D78   D(30,27,28,32)         -0.5109                                         !
 ! D79   D(23,27,30,31)          5.3581                                         !
 ! D80   D(23,27,30,34)       -175.9136                                         !
 ! D81   D(28,27,30,31)       -178.9192                                         !
 ! D82   D(28,27,30,34)         -0.1909                                         !
 ! D83   D(27,28,32,33)        179.1051                                         !
 ! D84   D(27,28,32,37)          0.7305                                         !
 ! D85   D(29,28,32,33)          0.2726                                         !
 ! D86   D(29,28,32,37)       -178.102                                          !
 ! D87   D(27,30,34,35)       -177.45                                           !
 ! D88   D(27,30,34,37)          0.6695                                         !
 ! D89   D(31,30,34,35)          1.2814                                         !
 ! D90   D(31,30,34,37)        179.4009                                         !
 ! D91   D(28,32,37,34)         -0.2425                                         !
 ! D92   D(28,32,37,36)        179.3659                                         !
 ! D93   D(33,32,37,34)       -178.6652                                         !
 ! D94   D(33,32,37,36)          0.9432                                         !
 ! D95   D(30,34,37,32)         -0.4459                                         !
 ! D96   D(30,34,37,36)        179.968                                          !
 ! D97   D(35,34,37,32)        177.6927                                         !
 ! D98   D(35,34,37,36)         -1.8934                                         !
 ! D99   D(22,38,40,41)         49.446                                          !
 ! D100  D(22,38,40,42)        -68.8037                                         !
 ! D101  D(22,38,40,43)        170.1431                                         !
 ! D102  D(39,38,40,41)       -112.0207                                         !
 ! D103  D(39,38,40,42)        129.7296                                         !
 ! D104  D(39,38,40,43)          8.6764                                         !
 ! D105  D(38,40,42,46)       -102.1576                                         !
 ! D106  D(38,40,42,60)         78.0722                                         !
 ! D107  D(41,40,42,46)        140.5332                                         !
 ! D108  D(41,40,42,60)        -39.2371                                         !
 ! D109  D(43,40,42,46)         19.0348                                         !
 ! D110  D(43,40,42,60)       -160.7355                                         !
 ! D111  D(38,40,43,44)        -46.0384                                         !
 ! D112  D(38,40,43,45)         71.0593                                         !
 ! D113  D(38,40,43,47)       -167.0697                                         !
 ! D114  D(41,40,43,44)         72.514                                          !
 ! D115  D(41,40,43,45)       -170.3883                                         !
 ! D116  D(41,40,43,47)        -48.5173                                         !
 ! D117  D(42,40,43,44)       -167.1982                                         !
 ! D118  D(42,40,43,45)        -50.1005                                         !
 ! D119  D(42,40,43,47)         71.7705                                         !
 ! D120  D(40,42,60,61)        -36.1257                                         !
 ! D121  D(40,42,60,62)       -178.35                                           !
 ! D122  D(46,42,60,61)        144.0956                                         !
 ! D123  D(46,42,60,62)          1.8713                                         !
 ! D124  D(40,43,47,48)        -33.8135                                         !
 ! D125  D(40,43,47,49)       -148.1648                                         !
 ! D126  D(40,43,47,50)         90.0377                                         !
 ! D127  D(44,43,47,48)       -154.1524                                         !
 ! D128  D(44,43,47,49)         91.4962                                         !
 ! D129  D(44,43,47,50)        -30.3013                                         !
 ! D130  D(45,43,47,48)         86.2662                                         !
 ! D131  D(45,43,47,49)        -28.0852                                         !
 ! D132  D(45,43,47,50)       -149.8827                                         !
 ! D133  D(43,47,50,51)       -149.8795                                         !
 ! D134  D(43,47,50,52)        -32.5799                                         !
 ! D135  D(43,47,50,53)         88.5873                                         !
 ! D136  D(48,47,50,51)        -26.4721                                         !
 ! D137  D(48,47,50,52)         90.8275                                         !
 ! D138  D(48,47,50,53)       -148.0053                                         !
 ! D139  D(49,47,50,51)         88.8026                                         !
 ! D140  D(49,47,50,52)       -153.8978                                         !
 ! D141  D(49,47,50,53)        -32.7306                                         !
 ! D142  D(47,50,53,54)        -42.7245                                         !
 ! D143  D(47,50,53,55)         74.3094                                         !
 ! D144  D(47,50,53,56)       -160.8722                                         !
 ! D145  D(51,50,53,54)       -164.8957                                         !
 ! D146  D(51,50,53,55)        -47.8618                                         !
 ! D147  D(51,50,53,56)         76.9566                                         !
 ! D148  D(52,50,53,54)         78.9303                                         !
 ! D149  D(52,50,53,55)       -164.0357                                         !
 ! D150  D(52,50,53,56)        -39.2174                                         !
 ! D151  D(50,53,56,57)       -162.4302                                         !
 ! D152  D(50,53,56,58)         92.5688                                         !
 ! D153  D(50,53,56,59)        -45.5023                                         !
 ! D154  D(54,53,56,57)         77.4084                                         !
 ! D155  D(54,53,56,58)        -27.5926                                         !
 ! D156  D(54,53,56,59)       -165.6636                                         !
 ! D157  D(55,53,56,57)        -39.776                                          !
 ! D158  D(55,53,56,58)       -144.777                                          !
 ! D159  D(55,53,56,59)         77.152                                          !
 --------------------------------------------------------------------------------
 Symmetry turned off by external request.
 Stoichiometry    C20H31N4O7(1+)
 Framework group  C1[X(C20H31N4O7)]
 Deg. of freedom   180
 Full point group                 C1      NOp   1
                          Input orientation:                          
 ---------------------------------------------------------------------
 Center     Atomic      Atomic             Coordinates (Angstroms)
 Number     Number       Type             X           Y           Z
 ---------------------------------------------------------------------
      1          7           0       -1.183808   -3.634263    3.763097
      2          1           0       -0.274542   -3.485567    4.198766
      3          1           0       -2.601420   -3.336921    5.029609
      4          1           0       -1.062090   -4.444023    3.154757
      5          6           0       -1.548578   -2.468788    2.958668
      6          1           0       -1.694839   -1.632640    3.655216
      7          6           0       -0.450761   -2.082640    1.954797
      8          6           0       -2.881209   -2.724667    2.212479
      9          1           0       -2.696082   -3.406549    1.372187
     10          1           0       -3.234915   -1.780476    1.782591
     11          8           0        0.472150   -2.830814    1.674507
     12          6           0       -3.991580   -3.319292    3.104902
     13          1           0       -3.746754   -4.354554    3.363103
     14          1           0       -4.932315   -3.319192    2.550214
     15          6           0       -4.202661   -2.497731    4.378209
     16          8           0       -5.077251   -1.673718    4.496093
     17          8           0       -3.301340   -2.719888    5.359879
     18          7           0       -0.605668   -0.830172    1.392599
     19          1           0       -1.379303   -0.262223    1.711045
     20          6           0        0.232982   -0.270234    0.355123
     21          1           0       -0.294471    0.601105   -0.046752
     22          6           0        1.558381    0.244769    0.900838
     23          6           0        0.494093   -1.239881   -0.854635
     24          1           0        0.944519   -2.153054   -0.466109
     25          1           0       -0.503111   -1.495185   -1.230122
     26          8           0        2.046848   -0.375268    1.926202
     27          6           0        1.353510   -0.607952   -1.918205
     28          6           0        0.863873    0.432547   -2.727307
     29          1           0       -0.182634    0.725588   -2.654367
     30          6           0        2.695995   -0.980618   -2.066029
     31          1           0        3.093987   -1.795037   -1.463864
     32          6           0        1.685100    1.084595   -3.642135
     33          1           0        1.304688    1.878115   -4.277269
     34          6           0        3.528270   -0.347837   -2.987476
     35          1           0        4.554788   -0.677167   -3.117752
     36          8           0        3.777107    1.351210   -4.690829
     37          6           0        3.032039    0.699756   -3.786417
     38          7           0        2.162530    1.247961    0.295966
     39          1           0        1.703576    1.579257   -0.552269
     40          6           0        3.571514    1.707531    0.445743
     41          1           0        4.215344    0.825424    0.344160
     42          6           0        3.780156    2.317462    1.845456
     43          6           0        3.900744    2.750173   -0.629242
     44          1           0        3.533195    2.386071   -1.596154
     45          1           0        3.360752    3.669496   -0.382843
     46          8           0        3.829667    3.482945    2.112490
     47          6           0        5.423095    3.007674   -0.709118
     48          1           0        5.867750    2.917968    0.288873
     49          1           0        5.589006    4.050606   -1.000330
     50          6           0        6.135680    2.072668   -1.706562
     51          1           0        7.167105    1.885620   -1.383821
     52          1           0        5.632875    1.096096   -1.730808
     53          6           0        6.148285    2.667300   -3.120225
     54          1           0        5.170123    3.105257   -3.352675
     55          1           0        6.883977    3.483734   -3.154989
     56          7           0        6.401689    1.629219   -4.141836
     57          1           0        6.692607    2.063937   -5.017692
     58          1           0        4.757340    1.174681   -4.553603
     59          1           0        7.171586    1.023781   -3.858535
     60          8           0        3.912021    1.322621    2.782165
     61          1           0        2.856700    0.047669    2.315043
     62          1           0        4.017222    1.726803    3.667828
 ---------------------------------------------------------------------
 Rotational constants (GHZ):           0.2767613           0.0604635           0.0537102
 Standard basis: 6-31G(d) (6D, 7F)
   527 basis functions,   992 primitive gaussians,   527 cartesian basis functions
   117 alpha electrons      117 beta electrons
       nuclear repulsion energy      3253.2090413216 Hartrees.
 NAtoms=   62 NActive=   62 NUniq=   62 SFac= 1.00D+00 NAtFMM=   60 NAOKFM=T Big=T
 Integral buffers will be    131072 words long.
 Raffenetti 2 integral format.
 Two-electron integral symmetry is turned off.
 Nuclear repulsion after empirical dispersion term =     3253.1266218945 Hartrees.
 One-electron integrals computed using PRISM.
 NBasis=   527 RedAO= T EigKep=  4.32D-04  NBF=   527
 NBsUse=   527 1.00D-06 EigRej= -1.00D+00 NBFU=   527
 Initial guess from the checkpoint file:  "conf-962.chk"
 B after Tr=     0.000000    0.000000    0.000000
         Rot=    1.000000    0.000000    0.000000    0.000000 Ang=   0.00 deg.
 Requested convergence on RMS density matrix=1.00D-08 within 128 cycles.
 Requested convergence on MAX density matrix=1.00D-06.
 Requested convergence on             energy=1.00D-06.
 No special actions if energy rises.
 SCF Done:  E(RB3LYP) =  -1526.25965679     A.U. after    3 cycles
            NFock=  3  Conv=0.86D-09     -V/T= 2.0093

 **********************************************************************

            Population analysis using the SCF Density.

 **********************************************************************

 Alpha  occ. eigenvalues --  -19.38221 -19.37433 -19.30962 -19.25278 -19.23894
 Alpha  occ. eigenvalues --  -19.23535 -19.18439 -14.57212 -14.49613 -14.44643
 Alpha  occ. eigenvalues --  -14.43489 -10.50352 -10.48883 -10.41478 -10.40778
 Alpha  occ. eigenvalues --  -10.40239 -10.37117 -10.35443 -10.33600 -10.33221
 Alpha  occ. eigenvalues --  -10.32269 -10.32174 -10.31296 -10.30610 -10.30535
 Alpha  occ. eigenvalues --  -10.30450 -10.30256 -10.29893 -10.29571 -10.29342
 Alpha  occ. eigenvalues --  -10.27524  -1.29100  -1.27149  -1.18934  -1.15974
 Alpha  occ. eigenvalues --   -1.14502  -1.14205  -1.14030  -1.06525  -1.06327
 Alpha  occ. eigenvalues --   -1.00497  -1.00453  -0.97407  -0.96366  -0.92322
 Alpha  occ. eigenvalues --   -0.89682  -0.88013  -0.86289  -0.85800  -0.83779
 Alpha  occ. eigenvalues --   -0.82638  -0.80276  -0.79358  -0.77665  -0.75432
 Alpha  occ. eigenvalues --   -0.74615  -0.72868  -0.72440  -0.70694  -0.70353
 Alpha  occ. eigenvalues --   -0.69847  -0.68183  -0.67936  -0.65904  -0.65199
 Alpha  occ. eigenvalues --   -0.65100  -0.64496  -0.63180  -0.62266  -0.61253
 Alpha  occ. eigenvalues --   -0.60501  -0.59682  -0.59569  -0.59185  -0.58651
 Alpha  occ. eigenvalues --   -0.58360  -0.57896  -0.57476  -0.57120  -0.55809
 Alpha  occ. eigenvalues --   -0.54882  -0.54518  -0.54165  -0.53717  -0.53150
 Alpha  occ. eigenvalues --   -0.53027  -0.52326  -0.52179  -0.51820  -0.51400
 Alpha  occ. eigenvalues --   -0.50536  -0.50198  -0.50127  -0.49406  -0.49164
 Alpha  occ. eigenvalues --   -0.48822  -0.48516  -0.47787  -0.46803  -0.46633
 Alpha  occ. eigenvalues --   -0.46067  -0.45586  -0.45029  -0.45010  -0.44100
 Alpha  occ. eigenvalues --   -0.44021  -0.43666  -0.42862  -0.41997  -0.39088
 Alpha  occ. eigenvalues --   -0.37917  -0.37065  -0.36572  -0.36193  -0.35943
 Alpha  occ. eigenvalues --   -0.32123  -0.32047
 Alpha virt. eigenvalues --   -0.19386  -0.16621  -0.12175  -0.10582  -0.10049
 Alpha virt. eigenvalues --   -0.08629  -0.06839  -0.05201  -0.04541  -0.04154
 Alpha virt. eigenvalues --   -0.03118  -0.02323  -0.01736  -0.01426  -0.00643
 Alpha virt. eigenvalues --   -0.00143   0.00800   0.01437   0.01668   0.02417
 Alpha virt. eigenvalues --    0.02717   0.03151   0.03346   0.03707   0.04422
 Alpha virt. eigenvalues --    0.04503   0.04565   0.05407   0.05804   0.06173
 Alpha virt. eigenvalues --    0.07190   0.07325   0.07484   0.07700   0.08223
 Alpha virt. eigenvalues --    0.08344   0.08505   0.08854   0.09214   0.09723
 Alpha virt. eigenvalues --    0.09948   0.10642   0.11391   0.11857   0.12099
 Alpha virt. eigenvalues --    0.12481   0.12822   0.13491   0.14006   0.15865
 Alpha virt. eigenvalues --    0.16412   0.16598   0.17160   0.17277   0.17533
 Alpha virt. eigenvalues --    0.18262   0.19261   0.19935   0.21159   0.23360
 Alpha virt. eigenvalues --    0.24014   0.24776   0.26433   0.27316   0.28191
 Alpha virt. eigenvalues --    0.29615   0.30351   0.31173   0.33009   0.36568
 Alpha virt. eigenvalues --    0.37084   0.37555   0.38224   0.38965   0.40282
 Alpha virt. eigenvalues --    0.40416   0.41877   0.42122   0.42913   0.43216
 Alpha virt. eigenvalues --    0.43752   0.44170   0.44526   0.45155   0.45714
 Alpha virt. eigenvalues --    0.45922   0.47083   0.47175   0.47492   0.48258
 Alpha virt. eigenvalues --    0.48506   0.50332   0.50501   0.50826   0.51396
 Alpha virt. eigenvalues --    0.51696   0.52096   0.52217   0.52603   0.52887
 Alpha virt. eigenvalues --    0.53866   0.54397   0.54517   0.55037   0.55436
 Alpha virt. eigenvalues --    0.55588   0.56554   0.56915   0.58569   0.58854
 Alpha virt. eigenvalues --    0.59489   0.59822   0.61206   0.61525   0.63356
 Alpha virt. eigenvalues --    0.63918   0.63938   0.64480   0.65078   0.65447
 Alpha virt. eigenvalues --    0.66234   0.67038   0.67533   0.67959   0.68010
 Alpha virt. eigenvalues --    0.68707   0.69733   0.69864   0.70667   0.71211
 Alpha virt. eigenvalues --    0.71848   0.72452   0.72665   0.73324   0.73823
 Alpha virt. eigenvalues --    0.74132   0.74655   0.75141   0.75403   0.76311
 Alpha virt. eigenvalues --    0.76737   0.76937   0.77292   0.77603   0.78164
 Alpha virt. eigenvalues --    0.78479   0.79113   0.79571   0.79775   0.80190
 Alpha virt. eigenvalues --    0.80410   0.81019   0.81294   0.81677   0.82563
 Alpha virt. eigenvalues --    0.83058   0.83758   0.84256   0.84513   0.84807
 Alpha virt. eigenvalues --    0.85196   0.86138   0.86834   0.87014   0.87731
 Alpha virt. eigenvalues --    0.88498   0.88841   0.89032   0.89836   0.90514
 Alpha virt. eigenvalues --    0.91124   0.92250   0.92549   0.93703   0.95412
 Alpha virt. eigenvalues --    0.96258   0.96656   0.97222   0.98391   0.98988
 Alpha virt. eigenvalues --    0.99483   1.02036   1.02247   1.02905   1.04485
 Alpha virt. eigenvalues --    1.04914   1.05912   1.06685   1.08131   1.08378
 Alpha virt. eigenvalues --    1.09068   1.10261   1.11417   1.11588   1.13098
 Alpha virt. eigenvalues --    1.13827   1.14291   1.15289   1.17543   1.18184
 Alpha virt. eigenvalues --    1.19023   1.19630   1.21391   1.22680   1.23708
 Alpha virt. eigenvalues --    1.25601   1.25737   1.27248   1.28018   1.28425
 Alpha virt. eigenvalues --    1.30116   1.30943   1.33041   1.33361   1.34041
 Alpha virt. eigenvalues --    1.34974   1.35238   1.35602   1.36803   1.37626
 Alpha virt. eigenvalues --    1.38430   1.38772   1.39541   1.40332   1.40624
 Alpha virt. eigenvalues --    1.41255   1.43205   1.44456   1.45415   1.46068
 Alpha virt. eigenvalues --    1.48907   1.49928   1.51512   1.51878   1.52537
 Alpha virt. eigenvalues --    1.52873   1.55654   1.56457   1.56953   1.59115
 Alpha virt. eigenvalues --    1.59705   1.60056   1.60839   1.62330   1.63309
 Alpha virt. eigenvalues --    1.64820   1.65973   1.66260   1.67210   1.67718
 Alpha virt. eigenvalues --    1.68752   1.68823   1.69767   1.70503   1.70924
 Alpha virt. eigenvalues --    1.71866   1.72290   1.72743   1.73093   1.73495
 Alpha virt. eigenvalues --    1.74408   1.75102   1.76303   1.76466   1.77946
 Alpha virt. eigenvalues --    1.78286   1.78459   1.78591   1.79707   1.80511
 Alpha virt. eigenvalues --    1.80821   1.81378   1.82496   1.83150   1.83913
 Alpha virt. eigenvalues --    1.84169   1.84764   1.85492   1.86103   1.86588
 Alpha virt. eigenvalues --    1.87255   1.87347   1.87898   1.88637   1.89426
 Alpha virt. eigenvalues --    1.92102   1.92497   1.94098   1.94509   1.95181
 Alpha virt. eigenvalues --    1.95534   1.96604   1.96944   1.97802   1.98725
 Alpha virt. eigenvalues --    2.00493   2.01576   2.02640   2.03094   2.03675
 Alpha virt. eigenvalues --    2.04274   2.04693   2.06124   2.07620   2.10435
 Alpha virt. eigenvalues --    2.10876   2.12380   2.13277   2.14058   2.14559
 Alpha virt. eigenvalues --    2.15581   2.17803   2.19105   2.19460   2.20801
 Alpha virt. eigenvalues --    2.21865   2.22237   2.23037   2.24231   2.26377
 Alpha virt. eigenvalues --    2.27073   2.27704   2.28011   2.29242   2.30642
 Alpha virt. eigenvalues --    2.31351   2.32006   2.32916   2.34715   2.35202
 Alpha virt. eigenvalues --    2.35689   2.37640   2.37787   2.39060   2.40128
 Alpha virt. eigenvalues --    2.40804   2.42601   2.43038   2.45209   2.46022
 Alpha virt. eigenvalues --    2.47758   2.47903   2.49527   2.49890   2.51375
 Alpha virt. eigenvalues --    2.51952   2.52460   2.55289   2.55537   2.57378
 Alpha virt. eigenvalues --    2.57758   2.58458   2.59703   2.61024   2.62188
 Alpha virt. eigenvalues --    2.63802   2.65670   2.66618   2.68080   2.68972
 Alpha virt. eigenvalues --    2.69325   2.69927   2.71524   2.74164   2.78917
 Alpha virt. eigenvalues --    2.79496   2.80291   2.83722   2.84500   2.85657
 Alpha virt. eigenvalues --    2.89460   2.92029   2.92895   2.93924   2.98357
 Alpha virt. eigenvalues --    3.01556   3.02402   3.04599   3.30415   3.74389
 Alpha virt. eigenvalues --    3.75566   3.77424   3.81601   3.87460   3.90314
 Alpha virt. eigenvalues --    3.95607   4.00392   4.02713   4.03353   4.05176
 Alpha virt. eigenvalues --    4.05293   4.06302   4.07113   4.15421   4.16357
 Alpha virt. eigenvalues --    4.17813   4.20279   4.23033   4.25056   4.26365
 Alpha virt. eigenvalues --    4.27352   4.35786   4.38666   4.39717   4.41322
 Alpha virt. eigenvalues --    4.45574   4.50644   4.52392   4.60279   4.66567
          Condensed to atoms (all electrons):
 Mulliken charges:
               1
     1  N   -0.736382
     2  H    0.331943
     3  H    0.442971
     4  H    0.333450
     5  C   -0.101551
     6  H    0.179998
     7  C    0.617191
     8  C   -0.284087
     9  H    0.164082
    10  H    0.155853
    11  O   -0.505663
    12  C   -0.359939
    13  H    0.170672
    14  H    0.190007
    15  C    0.575857
    16  O   -0.442705
    17  O   -0.589129
    18  N   -0.619883
    19  H    0.355160
    20  C   -0.061706
    21  H    0.189116
    22  C    0.648903
    23  C   -0.370991
    24  H    0.226017
    25  H    0.191906
    26  O   -0.534101
    27  C    0.131466
    28  C   -0.232667
    29  H    0.144606
    30  C   -0.208847
    31  H    0.148303
    32  C   -0.170149
    33  H    0.167303
    34  C   -0.203098
    35  H    0.153009
    36  O   -0.671387
    37  C    0.367476
    38  N   -0.568996
    39  H    0.395926
    40  C   -0.061889
    41  H    0.218540
    42  C    0.615584
    43  C   -0.328839
    44  H    0.186109
    45  H    0.195343
    46  O   -0.381631
    47  C   -0.285782
    48  H    0.155985
    49  H    0.181410
    50  C   -0.291880
    51  H    0.162248
    52  H    0.145051
    53  C   -0.141807
    54  H    0.167188
    55  H    0.162624
    56  N   -0.783060
    57  H    0.343744
    58  H    0.464868
    59  H    0.329969
    60  O   -0.611903
    61  H    0.481810
    62  H    0.456385
 Sum of Mulliken charges =   1.00000
 Mulliken charges with hydrogens summed into heavy atoms:
               1
     1  N   -0.070990
     5  C    0.078447
     7  C    0.617191
     8  C    0.035847
    11  O   -0.505663
    12  C    0.000740
    15  C    0.575857
    16  O   -0.442705
    17  O   -0.146158
    18  N   -0.264722
    20  C    0.127410
    22  C    0.648903
    23  C    0.046932
    26  O   -0.052292
    27  C    0.131466
    28  C   -0.088061
    30  C   -0.060544
    32  C   -0.002846
    34  C   -0.050088
    36  O   -0.206518
    37  C    0.367476
    38  N   -0.173070
    40  C    0.156651
    42  C    0.615584
    43  C    0.052613
    46  O   -0.381631
    47  C    0.051612
    50  C    0.015419
    53  C    0.188006
    56  N   -0.109347
    60  O   -0.155519
 Electronic spatial extent (au):  <R**2>=          21176.8222
 Charge=              1.0000 electrons
 Dipole moment (field-independent basis, Debye):
    X=             17.9117    Y=              3.4334    Z=             -1.5295  Tot=             18.3019
 Quadrupole moment (field-independent basis, Debye-Ang):
   XX=           -103.8974   YY=           -158.4070   ZZ=           -173.0035
   XY=             30.4170   XZ=              6.8455   YZ=            -10.7869
 Traceless Quadrupole moment (field-independent basis, Debye-Ang):
   XX=             41.2052   YY=            -13.3044   ZZ=            -27.9009
   XY=             30.4170   XZ=              6.8455   YZ=            -10.7869
 Octapole moment (field-independent basis, Debye-Ang**2):
  XXX=            -70.8093  YYY=            -25.7598  ZZZ=           -231.0181  XYY=           -260.5210
  XXY=            166.8577  XXZ=           -354.3885  XZZ=             52.1108  YZZ=             66.6657
  YYZ=            -31.6357  XYZ=            -57.2943
 Hexadecapole moment (field-independent basis, Debye-Ang**3):
 XXXX=         -10144.9439 YYYY=          -4589.4592 ZZZZ=          -9039.3093 XXXY=          -2003.4290
 XXXZ=           2239.8876 YYYX=          -2688.8236 YYYZ=           1360.2513 ZZZX=           3737.8868
 ZZZY=           1829.7378 XXYY=          -2597.0524 XXZZ=          -3138.4154 YYZZ=          -2021.2826
 XXYZ=            295.9126 YYXZ=            759.9897 ZZXY=           -830.1784
 N-N= 3.253126621894D+03 E-N=-1.003717997771D+04  KE= 1.512208648408D+03
 Unable to Open any file for archive entry.
 1\1\GINC-AMR-134\SP\RB3LYP\6-31G(d)\C20H31N4O7(1+)\KENGMITH\02-Jun-202
 2\0\\# B3LYP/6-31G* empiricaldispersion=gd3 guess=read geom=check nosy
 mm integral(ultrafinegrid)\\Candidate Structure: Conf:962 Charge calc 
 in gas phase\\1,1\N,0,-1.1838077331,-3.634263117,3.7630974162\H,0,-0.2
 745420483,-3.4855670946,4.1987663574\H,0,-2.6014199928,-3.33692067,5.0
 296094132\H,0,-1.0620902289,-4.4440230877,3.1547574884\C,0,-1.54857759
 35,-2.4687883871,2.9586676558\H,0,-1.6948389492,-1.6326402091,3.655216
 0716\C,0,-0.4507605276,-2.0826396504,1.9547968727\C,0,-2.881209309,-2.
 7246672664,2.2124789336\H,0,-2.6960819643,-3.4065492554,1.3721869447\H
 ,0,-3.234915451,-1.7804764703,1.7825906337\O,0,0.4721500886,-2.8308138
 954,1.6745070288\C,0,-3.991580178,-3.3192917745,3.1049018198\H,0,-3.74
 67543022,-4.3545538333,3.3631027039\H,0,-4.9323145663,-3.3191924432,2.
 5502143995\C,0,-4.2026608628,-2.4977314188,4.378209095\O,0,-5.07725056
 07,-1.6737183906,4.4960934938\O,0,-3.301339632,-2.7198882088,5.3598788
 651\N,0,-0.6056677377,-0.8301718729,1.3925993989\H,0,-1.3793033971,-0.
 2622233684,1.7110454679\C,0,0.2329822023,-0.2702344611,0.3551233019\H,
 0,-0.2944710045,0.6011053477,-0.0467517473\C,0,1.5583809751,0.24476930
 8,0.9008381194\C,0,0.4940928967,-1.2398811057,-0.8546353863\H,0,0.9445
 192789,-2.1530543534,-0.4661085412\H,0,-0.5031113864,-1.4951849936,-1.
 2301220328\O,0,2.0468478555,-0.3752683622,1.9262015195\C,0,1.353510450
 4,-0.6079524645,-1.918204685\C,0,0.8638728304,0.4325470134,-2.72730695
 76\H,0,-0.1826344005,0.7255876672,-2.6543669704\C,0,2.6959946734,-0.98
 06184912,-2.066028715\H,0,3.0939871236,-1.7950368927,-1.463864199\C,0,
 1.6850996204,1.0845951668,-3.6421348313\H,0,1.3046875867,1.878115118,-
 4.2772694312\C,0,3.528270244,-0.3478368609,-2.9874760301\H,0,4.5547881
 853,-0.6771672863,-3.1177516913\O,0,3.7771071715,1.3512096619,-4.69082
 8988\C,0,3.0320392862,0.6997555203,-3.786416659\N,0,2.16252978,1.24796
 0892,0.2959659708\H,0,1.7035759671,1.5792574139,-0.5522688868\C,0,3.57
 15142989,1.7075313556,0.44574291\H,0,4.215344324,0.8254235406,0.344159
 8908\C,0,3.7801563115,2.3174623081,1.8454556258\C,0,3.9007439292,2.750
 1734387,-0.6292417174\H,0,3.5331954519,2.3860714996,-1.5961536817\H,0,
 3.3607520568,3.6694964983,-0.3828425177\O,0,3.8296668765,3.482945251,2
 .1124895339\C,0,5.4230953927,3.0076742857,-0.7091181698\H,0,5.86775029
 54,2.9179677788,0.2888732213\H,0,5.5890060318,4.0506063113,-1.00033029
 77\C,0,6.1356797464,2.0726684926,-1.7065618716\H,0,7.1671045403,1.8856
 197218,-1.3838211779\H,0,5.6328745541,1.0960960884,-1.7308082201\C,0,6
 .1482854856,2.6672995455,-3.1202249575\H,0,5.1701234441,3.10525728,-3.
 3526749043\H,0,6.8839774154,3.4837336769,-3.1549891145\N,0,6.401688608
 ,1.6292192315,-4.14183573\H,0,6.6926068185,2.0639366768,-5.0176916601\
 H,0,4.7573404119,1.1746813005,-4.5536034344\H,0,7.1715862564,1.0237813
 276,-3.8585350313\O,0,3.9120212889,1.3226209635,2.7821647672\H,0,2.856
 6998874,0.0476693754,2.3150430236\H,0,4.0172224541,1.7268030881,3.6678
 277039\\Version=ES64L-G16RevC.01\HF=-1526.2596568\RMSD=8.554e-10\Dipol
 e=4.2921641,1.4946411,-1.2136843\Quadrupole=30.6350914,-9.8914905,-20.
 7436009,22.6142832,5.0894308,-8.0197606\PG=C01 [X(C20H31N4O7)]\\@
 The archive entry for this job was punched.


 Spring appears, and we are once more children.
                                  -- Anonymous
 Job cpu time:       0 days  0 hours  2 minutes 15.9 seconds.
 Elapsed time:       0 days  0 hours  0 minutes 34.5 seconds.
 File lengths (MBytes):  RWF=    264 Int=      0 D2E=      0 Chk=     40 Scr=     16
 Normal termination of Gaussian 16 at Thu Jun  2 00:02:43 2022.
