 Entering Gaussian System, Link 0=/opt/software/Gaussian/g16-AVX2-C.01/g16/g16
 Input=charge-conf-950.com
 Output=charge-conf-950.log
 Initial command:
 /opt/software/Gaussian/g16-AVX2-C.01/g16/l1.exe "/mnt/gs18/scratch/users/kengmith/Gau-23554.inp" -scrdir="/mnt/gs18/scratch/users/kengmith/"
 Entering Link 1 = /opt/software/Gaussian/g16-AVX2-C.01/g16/l1.exe PID=     23573.
  
 Copyright (c) 1988-2019, Gaussian, Inc.  All Rights Reserved.
  
 This is part of the Gaussian(R) 16 program.  It is based on
 the Gaussian(R) 09 system (copyright 2009, Gaussian, Inc.),
 the Gaussian(R) 03 system (copyright 2003, Gaussian, Inc.),
 the Gaussian(R) 98 system (copyright 1998, Gaussian, Inc.),
 the Gaussian(R) 94 system (copyright 1995, Gaussian, Inc.),
 the Gaussian 92(TM) system (copyright 1992, Gaussian, Inc.),
 the Gaussian 90(TM) system (copyright 1990, Gaussian, Inc.),
 the Gaussian 88(TM) system (copyright 1988, Gaussian, Inc.),
 the Gaussian 86(TM) system (copyright 1986, Carnegie Mellon
 University), and the Gaussian 82(TM) system (copyright 1983,
 Carnegie Mellon University). Gaussian is a federally registered
 trademark of Gaussian, Inc.
  
 This software contains proprietary and confidential information,
 including trade secrets, belonging to Gaussian, Inc.
  
 This software is provided under written license and may be
 used, copied, transmitted, or stored only in accord with that
 written license.
  
 The following legend is applicable only to US Government
 contracts under FAR:
  
                    RESTRICTED RIGHTS LEGEND
  
 Use, reproduction and disclosure by the US Government is
 subject to restrictions as set forth in subparagraphs (a)
 and (c) of the Commercial Computer Software - Restricted
 Rights clause in FAR 52.227-19.
  
 Gaussian, Inc.
 340 Quinnipiac St., Bldg. 40, Wallingford CT 06492
  
  
 ---------------------------------------------------------------
 Warning -- This program may not be used in any manner that
 competes with the business of Gaussian, Inc. or will provide
 assistance to any competitor of Gaussian, Inc.  The licensee
 of this program is prohibited from giving any competitor of
 Gaussian, Inc. access to this program.  By using this program,
 the user acknowledges that Gaussian, Inc. is engaged in the
 business of creating and licensing software in the field of
 computational chemistry and represents and warrants to the
 licensee that it is not a competitor of Gaussian, Inc. and that
 it will not use this program in any manner prohibited above.
 ---------------------------------------------------------------
  

 Cite this work as:
 Gaussian 16, Revision C.01,
 M. J. Frisch, G. W. Trucks, H. B. Schlegel, G. E. Scuseria, 
 M. A. Robb, J. R. Cheeseman, G. Scalmani, V. Barone, 
 G. A. Petersson, H. Nakatsuji, X. Li, M. Caricato, A. V. Marenich, 
 J. Bloino, B. G. Janesko, R. Gomperts, B. Mennucci, H. P. Hratchian, 
 J. V. Ortiz, A. F. Izmaylov, J. L. Sonnenberg, D. Williams-Young, 
 F. Ding, F. Lipparini, F. Egidi, J. Goings, B. Peng, A. Petrone, 
 T. Henderson, D. Ranasinghe, V. G. Zakrzewski, J. Gao, N. Rega, 
 G. Zheng, W. Liang, M. Hada, M. Ehara, K. Toyota, R. Fukuda, 
 J. Hasegawa, M. Ishida, T. Nakajima, Y. Honda, O. Kitao, H. Nakai, 
 T. Vreven, K. Throssell, J. A. Montgomery, Jr., J. E. Peralta, 
 F. Ogliaro, M. J. Bearpark, J. J. Heyd, E. N. Brothers, K. N. Kudin, 
 V. N. Staroverov, T. A. Keith, R. Kobayashi, J. Normand, 
 K. Raghavachari, A. P. Rendell, J. C. Burant, S. S. Iyengar, 
 J. Tomasi, M. Cossi, J. M. Millam, M. Klene, C. Adamo, R. Cammi, 
 J. W. Ochterski, R. L. Martin, K. Morokuma, O. Farkas, 
 J. B. Foresman, and D. J. Fox, Gaussian, Inc., Wallingford CT, 2019.
 
 ******************************************
 Gaussian 16:  ES64L-G16RevC.01  3-Jul-2019
                 7-Jun-2022 
 ******************************************
 %mem=8gb
 %nproc=4
 Will use up to    4 processors via shared memory.
 %chk=conf-950.chk
 -------------------------------------------------------------------
 # B3LYP/6-31G* guess=read geom=check nosymm integral(ultrafinegrid)
 -------------------------------------------------------------------
 1/29=2,38=1,172=1/1;
 2/12=2,15=1,40=1/2;
 3/5=1,6=6,7=1,11=2,14=-4,25=1,30=1,74=-5,75=-5,116=-2/1,2,3;
 4/5=1/1;
 5/5=2,38=6/2;
 6/7=2,8=2,9=2,10=2,28=1/1;
 99/5=1,9=1/99;
 ------------------------------------------------------
 Candidate Structure: Conf:950 Charge calc in gas phase
 ------------------------------------------------------
 Structure from the checkpoint file:  "conf-950.chk"
 Charge =  1 Multiplicity = 1
 Redundant internal coordinates found in file.  (old form).
 N,0,-3.7459166086,-1.4332548486,3.6449762554
 H,0,-4.5910785636,-1.6885454079,3.135610978
 H,0,-3.0816898985,-2.1897014246,3.4724136046
 C,0,-3.1808144666,-0.2028186419,3.0878027707
 H,0,-3.991451183,0.531239544,2.9973052135
 C,0,-2.5555452034,-0.439351378,1.7014222652
 C,0,-2.0934100911,0.3736718524,4.0280987039
 H,0,-1.3706739607,-0.4231188479,4.2511659603
 H,0,-1.547519056,1.1805982517,3.5329397091
 O,0,-2.0987785327,-1.5456272231,1.390242362
 C,0,-2.6147729905,0.968654459,5.3467784408
 N,0,-3.4992050742,0.1866349534,6.0179568791
 H,0,-3.8995281962,0.5446853028,6.873972265
 H,0,-3.861513858,-0.6554986254,5.5767276243
 O,0,-2.2172223505,2.0558159069,5.7432825182
 N,0,-2.4929681429,0.635546889,0.8751234713
 H,0,-2.9649347134,1.4858681429,1.1564085518
 C,0,-2.0525454487,0.5472174832,-0.5213981603
 H,0,-2.4084768946,-0.4167474481,-0.9055282481
 C,0,-0.5054457472,0.5501649034,-0.613320663
 C,0,-2.6517022527,1.697133799,-1.3502884345
 H,0,-2.1867523573,2.6347753278,-1.0275510842
 H,0,-2.3355872875,1.5454567295,-2.3886899112
 O,0,0.121037173,1.5133169853,-1.0775448909
 C,0,-4.1607375924,1.7898836566,-1.2581043115
 C,0,-4.9807471696,0.8320618268,-1.8723496448
 H,0,-4.5296489671,0.0227315441,-2.4431934558
 C,0,-4.7688461872,2.8281407532,-0.5401444522
 H,0,-4.1500621729,3.5946099396,-0.0761889229
 C,0,-6.3688389595,0.9069817421,-1.7658706648
 H,0,-6.9885952105,0.1582383565,-2.2514982326
 C,0,-6.1597671275,2.9060477815,-0.4296774006
 H,0,-6.6122699618,3.7208788506,0.128668096
 C,0,-6.9628897299,1.9440045571,-1.0413707383
 H,0,-8.0444514557,2.0031084248,-0.9603732511
 N,0,0.078024125,-0.5805094344,-0.1604011476
 H,0,-0.5402849514,-1.2686094406,0.2743155182
 C,0,1.5256279766,-0.7011701118,0.0415406131
 H,0,1.9082761082,0.2622355328,0.3918368472
 C,0,2.2532087018,-1.0350225449,-1.2840149771
 C,0,1.8396752835,-1.7630558708,1.0901447085
 H,0,1.6184632483,-2.7613038314,0.6984554068
 H,0,1.2141222686,-1.5999566181,1.9767228671
 O,0,2.7338948849,-2.1315091993,-1.5264922091
 C,0,3.3115769634,-1.6633598791,1.5049653808
 N,0,3.79895857,-2.7469674301,2.1701184246
 H,0,4.7851975468,-2.7513846993,2.3936607881
 H,0,3.3184821583,-3.6347186858,2.1590622993
 O,0,3.9743163812,-0.6546313283,1.3008258403
 N,0,2.3023488304,0.0291024738,-2.1460182795
 H,0,1.7697590494,0.856638965,-1.8769850001
 C,0,2.960680445,-0.0498070864,-3.4377732575
 H,0,3.2287923696,-1.1014073312,-3.5715699872
 C,0,4.2643403213,0.7470397301,-3.3314245008
 C,0,2.0642459318,0.3984512977,-4.6029869326
 H,0,2.6300237334,0.2924392575,-5.5386159224
 H,0,1.2484259374,-0.3276157446,-4.6666762327
 O,0,4.3969932457,1.950374759,-3.5867891977
 C,0,1.4863824851,1.8289541658,-4.4816585011
 H,0,0.3978740979,1.8099215548,-4.6046303022
 H,0,1.6579835548,2.2402255248,-3.4821605184
 C,0,2.0909080464,2.7757090852,-5.5278787504
 H,0,3.1793427248,2.6848504911,-5.5550988338
 H,0,1.7257890722,2.5374575222,-6.5308698603
 N,0,1.7619830074,4.1880391717,-5.2848882608
 H,0,0.8697960986,4.527265834,-5.6205329278
 N,0,3.4750943633,4.5168899537,-3.7509513461
 H,0,4.1059946113,5.1565507551,-3.2888698068
 H,0,3.7043873263,3.5194516457,-3.697727905
 N,0,2.103995857,6.2866377437,-4.3652447587
 H,0,2.4680928592,6.8700512995,-3.6261062475
 H,0,1.4672720717,6.714757749,-5.0210639081
 C,0,2.4470833176,4.9863224388,-4.4622813646
 O,0,5.2685841789,-0.0017752629,-2.8743460867
 H,0,6.0467115072,0.57368501,-2.7403651636
 Recover connectivity data from disk.
                           ----------------------------
                           !    Current Parameters    !
                           ! (Angstroms and Degrees)  !
 --------------------------                            --------------------------
 ! Name  Definition              Value                                          !
 --------------------------------------------------------------------------------
 ! R1    R(1,2)                  1.0193                                         !
 ! R2    R(1,3)                  1.0214                                         !
 ! R3    R(1,4)                  1.4642                                         !
 ! R4    R(4,5)                  1.0973                                         !
 ! R5    R(4,6)                  1.5391                                         !
 ! R6    R(4,7)                  1.5489                                         !
 ! R7    R(6,10)                 1.2367                                         !
 ! R8    R(6,16)                 1.3572                                         !
 ! R9    R(7,8)                  1.0986                                         !
 ! R10   R(7,9)                  1.0928                                         !
 ! R11   R(7,11)                 1.5378                                         !
 ! R12   R(11,12)                1.358                                          !
 ! R13   R(11,15)                1.2236                                         !
 ! R14   R(12,13)                1.0106                                         !
 ! R15   R(12,14)                1.0174                                         !
 ! R16   R(16,17)                1.0124                                         !
 ! R17   R(16,18)                1.467                                          !
 ! R18   R(18,19)                1.097                                          !
 ! R19   R(18,20)                1.5498                                         !
 ! R20   R(18,21)                1.5389                                         !
 ! R21   R(20,24)                1.2392                                         !
 ! R22   R(20,36)                1.3506                                         !
 ! R23   R(21,22)                1.0952                                         !
 ! R24   R(21,23)                1.096                                          !
 ! R25   R(21,25)                1.5147                                         !
 ! R26   R(25,26)                1.4025                                         !
 ! R27   R(25,28)                1.4012                                         !
 ! R28   R(26,27)                1.0883                                         !
 ! R29   R(26,30)                1.3942                                         !
 ! R30   R(28,29)                1.0889                                         !
 ! R31   R(28,32)                1.3975                                         !
 ! R32   R(30,31)                1.0865                                         !
 ! R33   R(30,34)                1.3976                                         !
 ! R34   R(32,33)                1.0865                                         !
 ! R35   R(32,34)                1.3945                                         !
 ! R36   R(34,35)                1.0862                                         !
 ! R37   R(36,37)                1.0221                                         !
 ! R38   R(36,38)                1.4666                                         !
 ! R39   R(38,39)                1.0942                                         !
 ! R40   R(38,40)                1.5485                                         !
 ! R41   R(38,41)                1.5251                                         !
 ! R42   R(40,44)                1.2215                                         !
 ! R43   R(40,50)                1.3703                                         !
 ! R44   R(41,42)                1.0949                                         !
 ! R45   R(41,43)                1.0972                                         !
 ! R46   R(41,45)                1.5325                                         !
 ! R47   R(45,46)                1.3617                                         !
 ! R48   R(45,49)                1.2241                                         !
 ! R49   R(46,47)                1.0113                                         !
 ! R50   R(46,48)                1.0095                                         !
 ! R51   R(50,51)                1.0202                                         !
 ! R52   R(50,52)                1.452                                          !
 ! R53   R(52,53)                1.0935                                         !
 ! R54   R(52,54)                1.5316                                         !
 ! R55   R(52,55)                1.537                                          !
 ! R56   R(54,58)                1.2373                                         !
 ! R57   R(54,74)                1.3335                                         !
 ! R58   R(55,56)                1.0985                                         !
 ! R59   R(55,57)                1.094                                          !
 ! R60   R(55,59)                1.5476                                         !
 ! R61   R(59,60)                1.0956                                         !
 ! R62   R(59,61)                1.0943                                         !
 ! R63   R(59,62)                1.535                                          !
 ! R64   R(62,63)                1.0926                                         !
 ! R65   R(62,64)                1.0936                                         !
 ! R66   R(62,65)                1.4703                                         !
 ! R67   R(65,66)                1.0118                                         !
 ! R68   R(65,73)                1.3354                                         !
 ! R69   R(67,68)                1.0103                                         !
 ! R70   R(67,69)                1.0248                                         !
 ! R71   R(67,73)                1.3354                                         !
 ! R72   R(70,71)                1.0096                                         !
 ! R73   R(70,72)                1.0094                                         !
 ! R74   R(70,73)                1.3483                                         !
 ! R75   R(74,75)                0.977                                          !
 ! A1    A(2,1,3)              105.6233                                         !
 ! A2    A(2,1,4)              109.8976                                         !
 ! A3    A(3,1,4)              107.8848                                         !
 ! A4    A(1,4,5)              107.9644                                         !
 ! A5    A(1,4,6)              111.7415                                         !
 ! A6    A(1,4,7)              110.6547                                         !
 ! A7    A(5,4,6)              109.1851                                         !
 ! A8    A(5,4,7)              108.6461                                         !
 ! A9    A(6,4,7)              108.5918                                         !
 ! A10   A(4,6,10)             120.9427                                         !
 ! A11   A(4,6,16)             116.4493                                         !
 ! A12   A(10,6,16)            122.5649                                         !
 ! A13   A(4,7,8)              108.3717                                         !
 ! A14   A(4,7,9)              110.5149                                         !
 ! A15   A(4,7,11)             115.2507                                         !
 ! A16   A(8,7,9)              107.3916                                         !
 ! A17   A(8,7,11)             109.2406                                         !
 ! A18   A(9,7,11)             105.7956                                         !
 ! A19   A(7,11,12)            114.9491                                         !
 ! A20   A(7,11,15)            120.7636                                         !
 ! A21   A(12,11,15)           124.2692                                         !
 ! A22   A(11,12,13)           118.2039                                         !
 ! A23   A(11,12,14)           119.6184                                         !
 ! A24   A(13,12,14)           121.3024                                         !
 ! A25   A(6,16,17)            118.3299                                         !
 ! A26   A(6,16,18)            123.0741                                         !
 ! A27   A(17,16,18)           117.0671                                         !
 ! A28   A(16,18,19)           106.7883                                         !
 ! A29   A(16,18,20)           110.8573                                         !
 ! A30   A(16,18,21)           110.54                                           !
 ! A31   A(19,18,20)           107.745                                          !
 ! A32   A(19,18,21)           109.9782                                         !
 ! A33   A(20,18,21)           110.8104                                         !
 ! A34   A(18,20,24)           121.8944                                         !
 ! A35   A(18,20,36)           114.1909                                         !
 ! A36   A(24,20,36)           123.9115                                         !
 ! A37   A(18,21,22)           108.4034                                         !
 ! A38   A(18,21,23)           107.1338                                         !
 ! A39   A(18,21,25)           113.6313                                         !
 ! A40   A(22,21,23)           105.9756                                         !
 ! A41   A(22,21,25)           110.6454                                         !
 ! A42   A(23,21,25)           110.7007                                         !
 ! A43   A(21,25,26)           120.9309                                         !
 ! A44   A(21,25,28)           120.5935                                         !
 ! A45   A(26,25,28)           118.4704                                         !
 ! A46   A(25,26,27)           119.6859                                         !
 ! A47   A(25,26,30)           120.7943                                         !
 ! A48   A(27,26,30)           119.5192                                         !
 ! A49   A(25,28,29)           119.5574                                         !
 ! A50   A(25,28,32)           120.9162                                         !
 ! A51   A(29,28,32)           119.5179                                         !
 ! A52   A(26,30,31)           119.7846                                         !
 ! A53   A(26,30,34)           120.1766                                         !
 ! A54   A(31,30,34)           120.0384                                         !
 ! A55   A(28,32,33)           119.7991                                         !
 ! A56   A(28,32,34)           120.0051                                         !
 ! A57   A(33,32,34)           120.1947                                         !
 ! A58   A(30,34,32)           119.6361                                         !
 ! A59   A(30,34,35)           120.1507                                         !
 ! A60   A(32,34,35)           120.2122                                         !
 ! A61   A(20,36,37)           116.416                                          !
 ! A62   A(20,36,38)           122.7847                                         !
 ! A63   A(37,36,38)           118.8905                                         !
 ! A64   A(36,38,39)           108.4707                                         !
 ! A65   A(36,38,40)           111.3239                                         !
 ! A66   A(36,38,41)           110.807                                          !
 ! A67   A(39,38,40)           107.4309                                         !
 ! A68   A(39,38,41)           108.7189                                         !
 ! A69   A(40,38,41)           109.981                                          !
 ! A70   A(38,40,44)           123.2531                                         !
 ! A71   A(38,40,50)           112.8239                                         !
 ! A72   A(44,40,50)           123.9225                                         !
 ! A73   A(38,41,42)           110.3186                                         !
 ! A74   A(38,41,43)           109.5525                                         !
 ! A75   A(38,41,45)           109.7919                                         !
 ! A76   A(42,41,43)           108.0224                                         !
 ! A77   A(42,41,45)           110.499                                          !
 ! A78   A(43,41,45)           108.614                                          !
 ! A79   A(41,45,46)           115.102                                          !
 ! A80   A(41,45,49)           121.9023                                         !
 ! A81   A(46,45,49)           122.9188                                         !
 ! A82   A(45,46,47)           117.4209                                         !
 ! A83   A(45,46,48)           121.6082                                         !
 ! A84   A(47,46,48)           117.5652                                         !
 ! A85   A(40,50,51)           116.4413                                         !
 ! A86   A(40,50,52)           122.2548                                         !
 ! A87   A(51,50,52)           121.0225                                         !
 ! A88   A(50,52,53)           105.801                                          !
 ! A89   A(50,52,54)           107.21                                           !
 ! A90   A(50,52,55)           113.2142                                         !
 ! A91   A(53,52,54)           107.4664                                         !
 ! A92   A(53,52,55)           109.3133                                         !
 ! A93   A(54,52,55)           113.4127                                         !
 ! A94   A(52,54,58)           125.6569                                         !
 ! A95   A(52,54,74)           111.88                                           !
 ! A96   A(58,54,74)           122.4223                                         !
 ! A97   A(52,55,56)           108.4919                                         !
 ! A98   A(52,55,57)           106.5899                                         !
 ! A99   A(52,55,59)           115.3368                                         !
 ! A100  A(56,55,57)           105.6908                                         !
 ! A101  A(56,55,59)           110.3829                                         !
 ! A102  A(57,55,59)           109.8521                                         !
 ! A103  A(55,59,60)           110.2505                                         !
 ! A104  A(55,59,61)           111.1271                                         !
 ! A105  A(55,59,62)           111.6921                                         !
 ! A106  A(60,59,61)           105.3572                                         !
 ! A107  A(60,59,62)           108.9948                                         !
 ! A108  A(61,59,62)           109.2047                                         !
 ! A109  A(59,62,63)           110.9786                                         !
 ! A110  A(59,62,64)           111.0523                                         !
 ! A111  A(59,62,65)           113.0597                                         !
 ! A112  A(63,62,64)           106.9555                                         !
 ! A113  A(63,62,65)           107.87                                           !
 ! A114  A(64,62,65)           106.6265                                         !
 ! A115  A(62,65,66)           117.6767                                         !
 ! A116  A(62,65,73)           124.141                                          !
 ! A117  A(66,65,73)           117.1491                                         !
 ! A118  A(68,67,69)           116.9196                                         !
 ! A119  A(68,67,73)           120.1192                                         !
 ! A120  A(69,67,73)           122.8233                                         !
 ! A121  A(71,70,72)           117.2633                                         !
 ! A122  A(71,70,73)           121.2133                                         !
 ! A123  A(72,70,73)           121.5208                                         !
 ! A124  A(65,73,67)           120.86                                           !
 ! A125  A(65,73,70)           119.3599                                         !
 ! A126  A(67,73,70)           119.7742                                         !
 ! A127  A(54,74,75)           108.4239                                         !
 ! D1    D(2,1,4,5)             48.6294                                         !
 ! D2    D(2,1,4,6)            -71.4513                                         !
 ! D3    D(2,1,4,7)            167.4076                                         !
 ! D4    D(3,1,4,5)            163.3222                                         !
 ! D5    D(3,1,4,6)             43.2415                                         !
 ! D6    D(3,1,4,7)            -77.8996                                         !
 ! D7    D(1,4,6,10)           -27.9225                                         !
 ! D8    D(1,4,6,16)           154.4064                                         !
 ! D9    D(5,4,6,10)          -147.2846                                         !
 ! D10   D(5,4,6,16)            35.0443                                         !
 ! D11   D(7,4,6,10)            94.4079                                         !
 ! D12   D(7,4,6,16)           -83.2631                                         !
 ! D13   D(1,4,7,8)             52.2208                                         !
 ! D14   D(1,4,7,9)            169.6433                                         !
 ! D15   D(1,4,7,11)           -70.5005                                         !
 ! D16   D(5,4,7,8)            170.5848                                         !
 ! D17   D(5,4,7,9)            -71.9926                                         !
 ! D18   D(5,4,7,11)            47.8635                                         !
 ! D19   D(6,4,7,8)            -70.7672                                         !
 ! D20   D(6,4,7,9)             46.6553                                         !
 ! D21   D(6,4,7,11)           166.5115                                         !
 ! D22   D(4,6,16,17)           -8.1682                                         !
 ! D23   D(4,6,16,18)         -173.6362                                         !
 ! D24   D(10,6,16,17)         174.2019                                         !
 ! D25   D(10,6,16,18)           8.7339                                         !
 ! D26   D(4,7,11,12)           47.7421                                         !
 ! D27   D(4,7,11,15)         -133.741                                          !
 ! D28   D(8,7,11,12)          -74.5145                                         !
 ! D29   D(8,7,11,15)          104.0024                                         !
 ! D30   D(9,7,11,12)          170.1608                                         !
 ! D31   D(9,7,11,15)          -11.3222                                         !
 ! D32   D(7,11,12,13)        -177.7731                                         !
 ! D33   D(7,11,12,14)          -8.3398                                         !
 ! D34   D(15,11,12,13)          3.769                                          !
 ! D35   D(15,11,12,14)        173.2023                                         !
 ! D36   D(6,16,18,19)          35.2292                                         !
 ! D37   D(6,16,18,20)         -81.8759                                         !
 ! D38   D(6,16,18,21)         154.8423                                         !
 ! D39   D(17,16,18,19)       -130.4096                                         !
 ! D40   D(17,16,18,20)        112.4854                                         !
 ! D41   D(17,16,18,21)        -10.7965                                         !
 ! D42   D(16,18,20,24)       -110.1636                                         !
 ! D43   D(16,18,20,36)         70.4646                                         !
 ! D44   D(19,18,20,24)        133.3198                                         !
 ! D45   D(19,18,20,36)        -46.052                                          !
 ! D46   D(21,18,20,24)         12.9624                                         !
 ! D47   D(21,18,20,36)       -166.4094                                         !
 ! D48   D(16,18,21,22)         69.2094                                         !
 ! D49   D(16,18,21,23)       -176.8301                                         !
 ! D50   D(16,18,21,25)        -54.2385                                         !
 ! D51   D(19,18,21,22)       -173.1187                                         !
 ! D52   D(19,18,21,23)        -59.1583                                         !
 ! D53   D(19,18,21,25)         63.4333                                         !
 ! D54   D(20,18,21,22)        -54.0996                                         !
 ! D55   D(20,18,21,23)         59.8609                                         !
 ! D56   D(20,18,21,25)       -177.5475                                         !
 ! D57   D(18,20,36,37)         -5.8676                                         !
 ! D58   D(18,20,36,38)       -169.943                                          !
 ! D59   D(24,20,36,37)        174.7751                                         !
 ! D60   D(24,20,36,38)         10.6996                                         !
 ! D61   D(18,21,25,26)        -71.2341                                         !
 ! D62   D(18,21,25,28)        107.9207                                         !
 ! D63   D(22,21,25,26)        166.5502                                         !
 ! D64   D(22,21,25,28)        -14.295                                          !
 ! D65   D(23,21,25,26)         49.3699                                         !
 ! D66   D(23,21,25,28)       -131.4753                                         !
 ! D67   D(21,25,26,27)         -1.4306                                         !
 ! D68   D(21,25,26,30)        178.8602                                         !
 ! D69   D(28,25,26,27)        179.3971                                         !
 ! D70   D(28,25,26,30)         -0.3121                                         !
 ! D71   D(21,25,28,29)          2.2749                                         !
 ! D72   D(21,25,28,32)       -178.7887                                         !
 ! D73   D(26,25,28,29)       -178.5499                                         !
 ! D74   D(26,25,28,32)          0.3865                                         !
 ! D75   D(25,26,30,31)        179.7682                                         !
 ! D76   D(25,26,30,34)          0.0064                                         !
 ! D77   D(27,26,30,31)          0.0585                                         !
 ! D78   D(27,26,30,34)       -179.7033                                         !
 ! D79   D(25,28,32,33)       -179.7942                                         !
 ! D80   D(25,28,32,34)         -0.1549                                         !
 ! D81   D(29,28,32,33)         -0.8574                                         !
 ! D82   D(29,28,32,34)        178.7819                                         !
 ! D83   D(26,30,34,32)          0.2318                                         !
 ! D84   D(26,30,34,35)        179.8757                                         !
 ! D85   D(31,30,34,32)       -179.5294                                         !
 ! D86   D(31,30,34,35)          0.1145                                         !
 ! D87   D(28,32,34,30)         -0.1582                                         !
 ! D88   D(28,32,34,35)       -179.8019                                         !
 ! D89   D(33,32,34,30)        179.4797                                         !
 ! D90   D(33,32,34,35)         -0.164                                          !
 ! D91   D(20,36,38,39)         35.3696                                         !
 ! D92   D(20,36,38,40)        -82.6275                                         !
 ! D93   D(20,36,38,41)        154.6376                                         !
 ! D94   D(37,36,38,39)       -128.3312                                         !
 ! D95   D(37,36,38,40)        113.6716                                         !
 ! D96   D(37,36,38,41)         -9.0633                                         !
 ! D97   D(36,38,40,44)       -107.5991                                         !
 ! D98   D(36,38,40,50)         72.6414                                         !
 ! D99   D(39,38,40,44)        133.7783                                         !
 ! D100  D(39,38,40,50)        -45.9811                                         !
 ! D101  D(41,38,40,44)         15.6092                                         !
 ! D102  D(41,38,40,50)       -164.1503                                         !
 ! D103  D(36,38,41,42)         70.1951                                         !
 ! D104  D(36,38,41,43)        -48.5956                                         !
 ! D105  D(36,38,41,45)       -167.7913                                         !
 ! D106  D(39,38,41,42)       -170.6865                                         !
 ! D107  D(39,38,41,43)         70.5229                                         !
 ! D108  D(39,38,41,45)        -48.6728                                         !
 ! D109  D(40,38,41,42)        -53.3157                                         !
 ! D110  D(40,38,41,43)       -172.1064                                         !
 ! D111  D(40,38,41,45)         68.698                                          !
 ! D112  D(38,40,50,51)         -7.2896                                         !
 ! D113  D(38,40,50,52)        178.7497                                         !
 ! D114  D(44,40,50,51)        172.9528                                         !
 ! D115  D(44,40,50,52)         -1.0079                                         !
 ! D116  D(38,41,45,46)       -164.2398                                         !
 ! D117  D(38,41,45,49)         18.8626                                         !
 ! D118  D(42,41,45,46)        -42.3338                                         !
 ! D119  D(42,41,45,49)        140.7686                                         !
 ! D120  D(43,41,45,46)         75.9902                                         !
 ! D121  D(43,41,45,49)       -100.9074                                         !
 ! D122  D(41,45,46,47)        175.1049                                         !
 ! D123  D(41,45,46,48)         16.4477                                         !
 ! D124  D(49,45,46,47)         -8.0327                                         !
 ! D125  D(49,45,46,48)       -166.6899                                         !
 ! D126  D(40,50,52,53)          7.709                                          !
 ! D127  D(40,50,52,54)       -106.7605                                         !
 ! D128  D(40,50,52,55)        127.4034                                         !
 ! D129  D(51,50,52,53)       -165.9798                                         !
 ! D130  D(51,50,52,54)         79.5507                                         !
 ! D131  D(51,50,52,55)        -46.2854                                         !
 ! D132  D(50,52,54,58)        -90.5094                                         !
 ! D133  D(50,52,54,74)         87.2044                                         !
 ! D134  D(53,52,54,58)        156.1436                                         !
 ! D135  D(53,52,54,74)        -26.1426                                         !
 ! D136  D(55,52,54,58)         35.2081                                         !
 ! D137  D(55,52,54,74)       -147.0782                                         !
 ! D138  D(50,52,55,56)       -179.0782                                         !
 ! D139  D(50,52,55,57)        -65.6754                                         !
 ! D140  D(50,52,55,59)         56.5409                                         !
 ! D141  D(53,52,55,56)        -61.4158                                         !
 ! D142  D(53,52,55,57)         51.987                                          !
 ! D143  D(53,52,55,59)        174.2033                                         !
 ! D144  D(54,52,55,56)         58.4736                                         !
 ! D145  D(54,52,55,57)        171.8764                                         !
 ! D146  D(54,52,55,59)        -65.9073                                         !
 ! D147  D(52,54,74,75)       -174.3135                                         !
 ! D148  D(58,54,74,75)          3.4859                                         !
 ! D149  D(52,55,59,60)       -127.0913                                         !
 ! D150  D(52,55,59,61)        -10.6562                                         !
 ! D151  D(52,55,59,62)        111.5681                                         !
 ! D152  D(56,55,59,60)        109.5215                                         !
 ! D153  D(56,55,59,61)       -134.0433                                         !
 ! D154  D(56,55,59,62)        -11.819                                          !
 ! D155  D(57,55,59,60)         -6.6392                                         !
 ! D156  D(57,55,59,61)        109.7959                                         !
 ! D157  D(57,55,59,62)       -127.9797                                         !
 ! D158  D(55,59,62,63)        -47.7675                                         !
 ! D159  D(55,59,62,64)         71.0654                                         !
 ! D160  D(55,59,62,65)       -169.1275                                         !
 ! D161  D(60,59,62,63)       -169.8329                                         !
 ! D162  D(60,59,62,64)        -50.9999                                         !
 ! D163  D(60,59,62,65)         68.8071                                         !
 ! D164  D(61,59,62,63)         75.5535                                         !
 ! D165  D(61,59,62,64)       -165.6135                                         !
 ! D166  D(61,59,62,65)        -45.8065                                         !
 ! D167  D(59,62,65,66)        -83.2113                                         !
 ! D168  D(59,62,65,73)         84.8061                                         !
 ! D169  D(63,62,65,66)        153.6897                                         !
 ! D170  D(63,62,65,73)        -38.2929                                         !
 ! D171  D(64,62,65,66)         39.1037                                         !
 ! D172  D(64,62,65,73)       -152.8789                                         !
 ! D173  D(62,65,73,67)         -2.6242                                         !
 ! D174  D(62,65,73,70)        176.491                                          !
 ! D175  D(66,65,73,67)        165.4511                                         !
 ! D176  D(66,65,73,70)        -15.4337                                         !
 ! D177  D(68,67,73,65)        166.897                                          !
 ! D178  D(68,67,73,70)        -12.2145                                         !
 ! D179  D(69,67,73,65)         -8.7016                                         !
 ! D180  D(69,67,73,70)        172.1868                                         !
 ! D181  D(71,70,73,65)        167.3729                                         !
 ! D182  D(71,70,73,67)        -13.5021                                         !
 ! D183  D(72,70,73,65)        -12.0286                                         !
 ! D184  D(72,70,73,67)        167.0964                                         !
 --------------------------------------------------------------------------------
 Symmetry turned off by external request.
 Stoichiometry    C23H36N9O7(1+)
 Framework group  C1[X(C23H36N9O7)]
 Deg. of freedom   219
 Full point group                 C1      NOp   1
                          Input orientation:                          
 ---------------------------------------------------------------------
 Center     Atomic      Atomic             Coordinates (Angstroms)
 Number     Number       Type             X           Y           Z
 ---------------------------------------------------------------------
      1          7           0       -3.745917   -1.433255    3.644976
      2          1           0       -4.591079   -1.688545    3.135611
      3          1           0       -3.081690   -2.189701    3.472414
      4          6           0       -3.180814   -0.202819    3.087803
      5          1           0       -3.991451    0.531240    2.997305
      6          6           0       -2.555545   -0.439351    1.701422
      7          6           0       -2.093410    0.373672    4.028099
      8          1           0       -1.370674   -0.423119    4.251166
      9          1           0       -1.547519    1.180598    3.532940
     10          8           0       -2.098779   -1.545627    1.390242
     11          6           0       -2.614773    0.968654    5.346778
     12          7           0       -3.499205    0.186635    6.017957
     13          1           0       -3.899528    0.544685    6.873972
     14          1           0       -3.861514   -0.655499    5.576728
     15          8           0       -2.217222    2.055816    5.743283
     16          7           0       -2.492968    0.635547    0.875123
     17          1           0       -2.964935    1.485868    1.156409
     18          6           0       -2.052545    0.547217   -0.521398
     19          1           0       -2.408477   -0.416747   -0.905528
     20          6           0       -0.505446    0.550165   -0.613321
     21          6           0       -2.651702    1.697134   -1.350288
     22          1           0       -2.186752    2.634775   -1.027551
     23          1           0       -2.335587    1.545457   -2.388690
     24          8           0        0.121037    1.513317   -1.077545
     25          6           0       -4.160738    1.789884   -1.258104
     26          6           0       -4.980747    0.832062   -1.872350
     27          1           0       -4.529649    0.022732   -2.443193
     28          6           0       -4.768846    2.828141   -0.540144
     29          1           0       -4.150062    3.594610   -0.076189
     30          6           0       -6.368839    0.906982   -1.765871
     31          1           0       -6.988595    0.158238   -2.251498
     32          6           0       -6.159767    2.906048   -0.429677
     33          1           0       -6.612270    3.720879    0.128668
     34          6           0       -6.962890    1.944005   -1.041371
     35          1           0       -8.044451    2.003108   -0.960373
     36          7           0        0.078024   -0.580509   -0.160401
     37          1           0       -0.540285   -1.268609    0.274316
     38          6           0        1.525628   -0.701170    0.041541
     39          1           0        1.908276    0.262236    0.391837
     40          6           0        2.253209   -1.035023   -1.284015
     41          6           0        1.839675   -1.763056    1.090145
     42          1           0        1.618463   -2.761304    0.698455
     43          1           0        1.214122   -1.599957    1.976723
     44          8           0        2.733895   -2.131509   -1.526492
     45          6           0        3.311577   -1.663360    1.504965
     46          7           0        3.798959   -2.746967    2.170118
     47          1           0        4.785198   -2.751385    2.393661
     48          1           0        3.318482   -3.634719    2.159062
     49          8           0        3.974316   -0.654631    1.300826
     50          7           0        2.302349    0.029102   -2.146018
     51          1           0        1.769759    0.856639   -1.876985
     52          6           0        2.960680   -0.049807   -3.437773
     53          1           0        3.228792   -1.101407   -3.571570
     54          6           0        4.264340    0.747040   -3.331425
     55          6           0        2.064246    0.398451   -4.602987
     56          1           0        2.630024    0.292439   -5.538616
     57          1           0        1.248426   -0.327616   -4.666676
     58          8           0        4.396993    1.950375   -3.586789
     59          6           0        1.486382    1.828954   -4.481659
     60          1           0        0.397874    1.809922   -4.604630
     61          1           0        1.657984    2.240226   -3.482161
     62          6           0        2.090908    2.775709   -5.527879
     63          1           0        3.179343    2.684850   -5.555099
     64          1           0        1.725789    2.537458   -6.530870
     65          7           0        1.761983    4.188039   -5.284888
     66          1           0        0.869796    4.527266   -5.620533
     67          7           0        3.475094    4.516890   -3.750951
     68          1           0        4.105995    5.156551   -3.288870
     69          1           0        3.704387    3.519452   -3.697728
     70          7           0        2.103996    6.286638   -4.365245
     71          1           0        2.468093    6.870051   -3.626106
     72          1           0        1.467272    6.714758   -5.021064
     73          6           0        2.447083    4.986322   -4.462281
     74          8           0        5.268584   -0.001775   -2.874346
     75          1           0        6.046712    0.573685   -2.740365
 ---------------------------------------------------------------------
 Rotational constants (GHZ):           0.0940358           0.0527999           0.0399825
 Standard basis: 6-31G(d) (6D, 7F)
   657 basis functions,  1236 primitive gaussians,   657 cartesian basis functions
   146 alpha electrons      146 beta electrons
       nuclear repulsion energy      4562.0184833119 Hartrees.
 NAtoms=   75 NActive=   75 NUniq=   75 SFac= 1.00D+00 NAtFMM=   60 NAOKFM=T Big=T
 Integral buffers will be    131072 words long.
 Raffenetti 2 integral format.
 Two-electron integral symmetry is turned off.
 One-electron integrals computed using PRISM.
 NBasis=   657 RedAO= T EigKep=  4.67D-04  NBF=   657
 NBsUse=   657 1.00D-06 EigRej= -1.00D+00 NBFU=   657
 Initial guess from the checkpoint file:  "conf-950.chk"
 B after Tr=     0.000000    0.000000    0.000000
         Rot=    1.000000    0.000000    0.000000    0.000000 Ang=   0.00 deg.
 Requested convergence on RMS density matrix=1.00D-08 within 128 cycles.
 Requested convergence on MAX density matrix=1.00D-06.
 Requested convergence on             energy=1.00D-06.
 No special actions if energy rises.
 SCF Done:  E(RB3LYP) =  -1917.38005478     A.U. after    1 cycles
            NFock=  1  Conv=0.29D-08     -V/T= 2.0094

 **********************************************************************

            Population analysis using the SCF Density.

 **********************************************************************

 Alpha  occ. eigenvalues --  -19.30984 -19.26411 -19.21274 -19.21127 -19.19786
 Alpha  occ. eigenvalues --  -19.17853 -19.15284 -14.52532 -14.52474 -14.50810
 Alpha  occ. eigenvalues --  -14.45512 -14.44440 -14.44242 -14.42058 -14.40109
 Alpha  occ. eigenvalues --  -14.39131 -10.48530 -10.44104 -10.37816 -10.37493
 Alpha  occ. eigenvalues --  -10.36763 -10.35764 -10.35763 -10.33798 -10.33351
 Alpha  occ. eigenvalues --  -10.32734 -10.31350 -10.30991 -10.30676 -10.30154
 Alpha  occ. eigenvalues --  -10.28004 -10.27523 -10.27208 -10.26520 -10.26391
 Alpha  occ. eigenvalues --  -10.26292 -10.26278 -10.26055 -10.26026  -1.22062
 Alpha  occ. eigenvalues --   -1.16970  -1.13086  -1.12921  -1.12327  -1.11529
 Alpha  occ. eigenvalues --   -1.09676  -1.07113  -1.06441  -1.04670  -1.01908
 Alpha  occ. eigenvalues --   -1.01526  -1.00744  -0.97385  -0.96838  -0.93982
 Alpha  occ. eigenvalues --   -0.93046  -0.91583  -0.88007  -0.86954  -0.85483
 Alpha  occ. eigenvalues --   -0.83101  -0.81758  -0.81536  -0.80989  -0.78538
 Alpha  occ. eigenvalues --   -0.76240  -0.74732  -0.74364  -0.74022  -0.72405
 Alpha  occ. eigenvalues --   -0.71128  -0.69793  -0.68147  -0.67483  -0.66952
 Alpha  occ. eigenvalues --   -0.66492  -0.65967  -0.65655  -0.65127  -0.64740
 Alpha  occ. eigenvalues --   -0.63125  -0.62858  -0.61358  -0.61218  -0.60171
 Alpha  occ. eigenvalues --   -0.59776  -0.59580  -0.58820  -0.58760  -0.58479
 Alpha  occ. eigenvalues --   -0.57986  -0.57467  -0.57455  -0.57167  -0.56849
 Alpha  occ. eigenvalues --   -0.55585  -0.54026  -0.53364  -0.53027  -0.52774
 Alpha  occ. eigenvalues --   -0.52387  -0.52097  -0.51908  -0.51332  -0.51048
 Alpha  occ. eigenvalues --   -0.50563  -0.50214  -0.49887  -0.49326  -0.48955
 Alpha  occ. eigenvalues --   -0.48703  -0.48178  -0.47795  -0.47566  -0.46695
 Alpha  occ. eigenvalues --   -0.46506  -0.46359  -0.45937  -0.45457  -0.45163
 Alpha  occ. eigenvalues --   -0.44785  -0.44231  -0.44073  -0.43797  -0.43283
 Alpha  occ. eigenvalues --   -0.42978  -0.42905  -0.42836  -0.41414  -0.41294
 Alpha  occ. eigenvalues --   -0.41138  -0.40908  -0.40001  -0.37282  -0.36253
 Alpha  occ. eigenvalues --   -0.35540  -0.34063  -0.33698  -0.33361  -0.32723
 Alpha  occ. eigenvalues --   -0.32407  -0.32352  -0.31843  -0.31591  -0.30651
 Alpha  occ. eigenvalues --   -0.29087
 Alpha virt. eigenvalues --   -0.12265  -0.11608  -0.08772  -0.08092  -0.07760
 Alpha virt. eigenvalues --   -0.07595  -0.06577  -0.05149  -0.04869  -0.03832
 Alpha virt. eigenvalues --   -0.03795  -0.02072  -0.01744  -0.01470  -0.00599
 Alpha virt. eigenvalues --    0.00176   0.01043   0.01402   0.01704   0.02088
 Alpha virt. eigenvalues --    0.02288   0.02803   0.03136   0.03849   0.04465
 Alpha virt. eigenvalues --    0.04679   0.05670   0.06030   0.06187   0.06332
 Alpha virt. eigenvalues --    0.06587   0.06768   0.07303   0.07862   0.08506
 Alpha virt. eigenvalues --    0.08910   0.09086   0.09283   0.09415   0.09989
 Alpha virt. eigenvalues --    0.10469   0.10648   0.11450   0.11650   0.11707
 Alpha virt. eigenvalues --    0.12087   0.12560   0.12620   0.12886   0.13054
 Alpha virt. eigenvalues --    0.13197   0.13851   0.13930   0.15001   0.16275
 Alpha virt. eigenvalues --    0.16345   0.17055   0.17373   0.17626   0.17846
 Alpha virt. eigenvalues --    0.19389   0.19716   0.19981   0.20772   0.21366
 Alpha virt. eigenvalues --    0.22573   0.23460   0.23677   0.24160   0.24691
 Alpha virt. eigenvalues --    0.25126   0.25846   0.26783   0.27405   0.28042
 Alpha virt. eigenvalues --    0.28455   0.28968   0.30124   0.30698   0.31884
 Alpha virt. eigenvalues --    0.34072   0.34370   0.34919   0.38357   0.38828
 Alpha virt. eigenvalues --    0.38982   0.39820   0.40502   0.41756   0.41870
 Alpha virt. eigenvalues --    0.42061   0.42877   0.43243   0.43539   0.44271
 Alpha virt. eigenvalues --    0.45617   0.45764   0.46016   0.46738   0.46998
 Alpha virt. eigenvalues --    0.47503   0.47612   0.48463   0.48567   0.49063
 Alpha virt. eigenvalues --    0.49166   0.49374   0.50184   0.50563   0.50754
 Alpha virt. eigenvalues --    0.51404   0.51732   0.51847   0.52229   0.52726
 Alpha virt. eigenvalues --    0.52984   0.53036   0.53150   0.53295   0.53985
 Alpha virt. eigenvalues --    0.54395   0.54754   0.55351   0.55862   0.55870
 Alpha virt. eigenvalues --    0.56335   0.57122   0.57235   0.57926   0.58302
 Alpha virt. eigenvalues --    0.59238   0.59431   0.59560   0.59748   0.60562
 Alpha virt. eigenvalues --    0.60822   0.61509   0.62058   0.62195   0.62553
 Alpha virt. eigenvalues --    0.62921   0.63369   0.63982   0.64260   0.64683
 Alpha virt. eigenvalues --    0.65496   0.66778   0.67138   0.67449   0.67568
 Alpha virt. eigenvalues --    0.68536   0.68901   0.69422   0.70289   0.70702
 Alpha virt. eigenvalues --    0.71159   0.71379   0.71927   0.72224   0.72625
 Alpha virt. eigenvalues --    0.73174   0.73368   0.73847   0.73993   0.74625
 Alpha virt. eigenvalues --    0.75338   0.75520   0.75584   0.75944   0.76341
 Alpha virt. eigenvalues --    0.76460   0.76992   0.77276   0.77645   0.78308
 Alpha virt. eigenvalues --    0.78640   0.79255   0.80127   0.80521   0.80604
 Alpha virt. eigenvalues --    0.80864   0.81313   0.81828   0.82310   0.82567
 Alpha virt. eigenvalues --    0.82592   0.82775   0.83067   0.83393   0.83934
 Alpha virt. eigenvalues --    0.84306   0.84841   0.85209   0.85327   0.86071
 Alpha virt. eigenvalues --    0.86480   0.87022   0.87226   0.87628   0.88357
 Alpha virt. eigenvalues --    0.88676   0.89122   0.89806   0.90859   0.90937
 Alpha virt. eigenvalues --    0.91510   0.91698   0.92083   0.93061   0.93513
 Alpha virt. eigenvalues --    0.93598   0.94958   0.95485   0.95892   0.96478
 Alpha virt. eigenvalues --    0.97161   0.98420   0.99311   0.99462   1.00182
 Alpha virt. eigenvalues --    1.01192   1.02132   1.02498   1.03656   1.04059
 Alpha virt. eigenvalues --    1.04519   1.05083   1.05406   1.06448   1.06732
 Alpha virt. eigenvalues --    1.08417   1.08710   1.09061   1.09544   1.10661
 Alpha virt. eigenvalues --    1.11467   1.12308   1.13257   1.13815   1.14710
 Alpha virt. eigenvalues --    1.16150   1.16326   1.18092   1.18328   1.18478
 Alpha virt. eigenvalues --    1.19809   1.20607   1.20920   1.22720   1.22912
 Alpha virt. eigenvalues --    1.24138   1.24901   1.26068   1.26457   1.27194
 Alpha virt. eigenvalues --    1.28050   1.28900   1.29403   1.29592   1.31446
 Alpha virt. eigenvalues --    1.32834   1.32948   1.34809   1.34898   1.35593
 Alpha virt. eigenvalues --    1.36025   1.36423   1.36523   1.38076   1.39329
 Alpha virt. eigenvalues --    1.40125   1.40850   1.41009   1.42458   1.42786
 Alpha virt. eigenvalues --    1.43544   1.44105   1.44986   1.45581   1.47269
 Alpha virt. eigenvalues --    1.47693   1.48077   1.49010   1.49187   1.49760
 Alpha virt. eigenvalues --    1.51063   1.52088   1.52387   1.53751   1.54494
 Alpha virt. eigenvalues --    1.55794   1.56311   1.57781   1.57938   1.58901
 Alpha virt. eigenvalues --    1.59826   1.60195   1.60898   1.62236   1.62453
 Alpha virt. eigenvalues --    1.63469   1.64571   1.64875   1.65736   1.66752
 Alpha virt. eigenvalues --    1.67114   1.67814   1.68880   1.69340   1.70358
 Alpha virt. eigenvalues --    1.71293   1.71663   1.72548   1.72837   1.73273
 Alpha virt. eigenvalues --    1.73623   1.73913   1.74201   1.74647   1.75303
 Alpha virt. eigenvalues --    1.75755   1.76634   1.77330   1.77701   1.78638
 Alpha virt. eigenvalues --    1.78923   1.79302   1.80004   1.80886   1.81430
 Alpha virt. eigenvalues --    1.81865   1.82013   1.82419   1.82662   1.83627
 Alpha virt. eigenvalues --    1.84299   1.84424   1.85287   1.85460   1.85846
 Alpha virt. eigenvalues --    1.86433   1.87424   1.87594   1.88608   1.89567
 Alpha virt. eigenvalues --    1.90119   1.90374   1.90605   1.91736   1.92094
 Alpha virt. eigenvalues --    1.92939   1.93514   1.93947   1.94063   1.95087
 Alpha virt. eigenvalues --    1.95878   1.96291   1.97408   1.98031   1.98225
 Alpha virt. eigenvalues --    1.99079   1.99707   2.00468   2.01481   2.01519
 Alpha virt. eigenvalues --    2.03174   2.03589   2.05243   2.05940   2.06907
 Alpha virt. eigenvalues --    2.07280   2.07999   2.08102   2.08274   2.09587
 Alpha virt. eigenvalues --    2.09633   2.11742   2.12762   2.13266   2.14264
 Alpha virt. eigenvalues --    2.14872   2.15322   2.15762   2.16386   2.16856
 Alpha virt. eigenvalues --    2.20916   2.21169   2.21753   2.22103   2.22522
 Alpha virt. eigenvalues --    2.22853   2.23868   2.25177   2.25844   2.26916
 Alpha virt. eigenvalues --    2.27411   2.28046   2.28667   2.30189   2.31011
 Alpha virt. eigenvalues --    2.31542   2.32460   2.32763   2.33850   2.34699
 Alpha virt. eigenvalues --    2.35147   2.35317   2.36205   2.36546   2.37519
 Alpha virt. eigenvalues --    2.39225   2.40076   2.40863   2.41748   2.43512
 Alpha virt. eigenvalues --    2.44537   2.45763   2.46010   2.46222   2.48184
 Alpha virt. eigenvalues --    2.48839   2.49414   2.50820   2.51346   2.51769
 Alpha virt. eigenvalues --    2.53411   2.53800   2.55537   2.55845   2.56639
 Alpha virt. eigenvalues --    2.57551   2.57623   2.58348   2.59286   2.59845
 Alpha virt. eigenvalues --    2.60866   2.62630   2.62994   2.63306   2.64210
 Alpha virt. eigenvalues --    2.65200   2.67325   2.67713   2.68644   2.68923
 Alpha virt. eigenvalues --    2.70877   2.73163   2.73271   2.75776   2.76390
 Alpha virt. eigenvalues --    2.77956   2.79934   2.83584   2.84082   2.86933
 Alpha virt. eigenvalues --    2.88653   2.91243   2.91291   2.91883   2.92023
 Alpha virt. eigenvalues --    2.93887   2.95442   2.95807   2.97251   2.98124
 Alpha virt. eigenvalues --    2.98599   3.01563   3.02808   3.06256   3.08124
 Alpha virt. eigenvalues --    3.10812   3.33495   3.65336   3.74080   3.74829
 Alpha virt. eigenvalues --    3.76832   3.80056   3.84137   3.86420   3.92573
 Alpha virt. eigenvalues --    3.94907   3.96050   3.99346   4.01870   4.03169
 Alpha virt. eigenvalues --    4.04511   4.05902   4.06767   4.07453   4.09945
 Alpha virt. eigenvalues --    4.13798   4.15374   4.17806   4.21595   4.22898
 Alpha virt. eigenvalues --    4.24788   4.25381   4.26200   4.29468   4.31624
 Alpha virt. eigenvalues --    4.33880   4.41513   4.41951   4.43798   4.45121
 Alpha virt. eigenvalues --    4.51071   4.53905   4.54858   4.59729   4.61821
 Alpha virt. eigenvalues --    4.63822
          Condensed to atoms (all electrons):
 Mulliken charges:
               1
     1  N   -0.717350
     2  H    0.320377
     3  H    0.327911
     4  C   -0.094470
     5  H    0.160952
     6  C    0.612270
     7  C   -0.350537
     8  H    0.172712
     9  H    0.169859
    10  O   -0.550170
    11  C    0.571538
    12  N   -0.746940
    13  H    0.339254
    14  H    0.374668
    15  O   -0.505583
    16  N   -0.597415
    17  H    0.347043
    18  C   -0.050845
    19  H    0.185144
    20  C    0.641810
    21  C   -0.391999
    22  H    0.171074
    23  H    0.159799
    24  O   -0.567622
    25  C    0.171619
    26  C   -0.180603
    27  H    0.128734
    28  C   -0.210885
    29  H    0.129769
    30  C   -0.128118
    31  H    0.146893
    32  C   -0.126531
    33  H    0.147526
    34  C   -0.129332
    35  H    0.148952
    36  N   -0.637622
    37  H    0.390739
    38  C   -0.047177
    39  H    0.201686
    40  C    0.649013
    41  C   -0.406782
    42  H    0.183592
    43  H    0.186002
    44  O   -0.507452
    45  C    0.626716
    46  N   -0.746892
    47  H    0.350476
    48  H    0.344141
    49  O   -0.515218
    50  N   -0.653007
    51  H    0.389330
    52  C   -0.045051
    53  H    0.220416
    54  C    0.612780
    55  C   -0.286314
    56  H    0.161410
    57  H    0.181270
    58  O   -0.525244
    59  C   -0.274166
    60  H    0.162631
    61  H    0.167121
    62  C   -0.191109
    63  H    0.202974
    64  H    0.191280
    65  N   -0.595397
    66  H    0.360878
    67  N   -0.797452
    68  H    0.371332
    69  H    0.458375
    70  N   -0.772220
    71  H    0.383333
    72  H    0.380212
    73  C    0.827751
    74  O   -0.511570
    75  H    0.429711
 Sum of Mulliken charges =   1.00000
 Mulliken charges with hydrogens summed into heavy atoms:
               1
     1  N   -0.069062
     4  C    0.066482
     6  C    0.612270
     7  C   -0.007966
    10  O   -0.550170
    11  C    0.571538
    12  N   -0.033019
    15  O   -0.505583
    16  N   -0.250372
    18  C    0.134299
    20  C    0.641810
    21  C   -0.061126
    24  O   -0.567622
    25  C    0.171619
    26  C   -0.051869
    28  C   -0.081116
    30  C    0.018775
    32  C    0.020995
    34  C    0.019620
    36  N   -0.246884
    38  C    0.154509
    40  C    0.649013
    41  C   -0.037188
    44  O   -0.507452
    45  C    0.626716
    46  N   -0.052275
    49  O   -0.515218
    50  N   -0.263677
    52  C    0.175365
    54  C    0.612780
    55  C    0.056366
    58  O   -0.525244
    59  C    0.055586
    62  C    0.203145
    65  N   -0.234519
    67  N    0.032255
    70  N   -0.008675
    73  C    0.827751
    74  O   -0.081858
 Electronic spatial extent (au):  <R**2>=          28015.7398
 Charge=              1.0000 electrons
 Dipole moment (field-independent basis, Debye):
    X=              3.7321    Y=             14.2060    Z=            -17.9576  Tot=             23.1995
 Quadrupole moment (field-independent basis, Debye-Ang):
   XX=           -145.3659   YY=           -115.0679   ZZ=           -140.7461
   XY=             34.1583   XZ=            -41.2032   YZ=           -104.1633
 Traceless Quadrupole moment (field-independent basis, Debye-Ang):
   XX=            -11.6392   YY=             18.6587   ZZ=             -7.0195
   XY=             34.1583   XZ=            -41.2032   YZ=           -104.1633
 Octapole moment (field-independent basis, Debye-Ang**2):
  XXX=            149.8567  YYY=             57.8740  ZZZ=            -99.4392  XYY=            310.4829
  XXY=            -70.7198  XXZ=             78.8979  XZZ=            179.8053  YZZ=             64.2251
  YYZ=           -302.4499  XYZ=           -171.9925
 Hexadecapole moment (field-independent basis, Debye-Ang**3):
 XXXX=         -12543.5723 YYYY=          -2168.1932 ZZZZ=         -11203.5253 XXXY=            609.0121
 XXXZ=           2098.5119 YYYX=           1759.1366 YYYZ=           -623.6622 ZZZX=           1880.4096
 ZZZY=             58.9148 XXYY=          -2815.7495 XXZZ=          -4016.3245 YYZZ=          -1527.9321
 XXYZ=            258.6367 YYXZ=            307.1195 ZZXY=            847.7253
 N-N= 4.562018483312D+03 E-N=-1.356840710272D+04  KE= 1.899584457951D+03
 Unable to Open any file for archive entry.
 1\1\GINC-AMR-130\SP\RB3LYP\6-31G(d)\C23H36N9O7(1+)\KENGMITH\07-Jun-202
 2\0\\# B3LYP/6-31G* guess=read geom=check nosymm integral(ultrafinegri
 d)\\Candidate Structure: Conf:950 Charge calc in gas phase\\1,1\N,0,-3
 .7459166086,-1.4332548486,3.6449762554\H,0,-4.5910785636,-1.6885454079
 ,3.135610978\H,0,-3.0816898985,-2.1897014246,3.4724136046\C,0,-3.18081
 44666,-0.2028186419,3.0878027707\H,0,-3.991451183,0.531239544,2.997305
 2135\C,0,-2.5555452034,-0.439351378,1.7014222652\C,0,-2.0934100911,0.3
 736718524,4.0280987039\H,0,-1.3706739607,-0.4231188479,4.2511659603\H,
 0,-1.547519056,1.1805982517,3.5329397091\O,0,-2.0987785327,-1.54562722
 31,1.390242362\C,0,-2.6147729905,0.968654459,5.3467784408\N,0,-3.49920
 50742,0.1866349534,6.0179568791\H,0,-3.8995281962,0.5446853028,6.87397
 2265\H,0,-3.861513858,-0.6554986254,5.5767276243\O,0,-2.2172223505,2.0
 558159069,5.7432825182\N,0,-2.4929681429,0.635546889,0.8751234713\H,0,
 -2.9649347134,1.4858681429,1.1564085518\C,0,-2.0525454487,0.5472174832
 ,-0.5213981603\H,0,-2.4084768946,-0.4167474481,-0.9055282481\C,0,-0.50
 54457472,0.5501649034,-0.613320663\C,0,-2.6517022527,1.697133799,-1.35
 02884345\H,0,-2.1867523573,2.6347753278,-1.0275510842\H,0,-2.335587287
 5,1.5454567295,-2.3886899112\O,0,0.121037173,1.5133169853,-1.077544890
 9\C,0,-4.1607375924,1.7898836566,-1.2581043115\C,0,-4.9807471696,0.832
 0618268,-1.8723496448\H,0,-4.5296489671,0.0227315441,-2.4431934558\C,0
 ,-4.7688461872,2.8281407532,-0.5401444522\H,0,-4.1500621729,3.59460993
 96,-0.0761889229\C,0,-6.3688389595,0.9069817421,-1.7658706648\H,0,-6.9
 885952105,0.1582383565,-2.2514982326\C,0,-6.1597671275,2.9060477815,-0
 .4296774006\H,0,-6.6122699618,3.7208788506,0.128668096\C,0,-6.96288972
 99,1.9440045571,-1.0413707383\H,0,-8.0444514557,2.0031084248,-0.960373
 2511\N,0,0.078024125,-0.5805094344,-0.1604011476\H,0,-0.5402849514,-1.
 2686094406,0.2743155182\C,0,1.5256279766,-0.7011701118,0.0415406131\H,
 0,1.9082761082,0.2622355328,0.3918368472\C,0,2.2532087018,-1.035022544
 9,-1.2840149771\C,0,1.8396752835,-1.7630558708,1.0901447085\H,0,1.6184
 632483,-2.7613038314,0.6984554068\H,0,1.2141222686,-1.5999566181,1.976
 7228671\O,0,2.7338948849,-2.1315091993,-1.5264922091\C,0,3.3115769634,
 -1.6633598791,1.5049653808\N,0,3.79895857,-2.7469674301,2.1701184246\H
 ,0,4.7851975468,-2.7513846993,2.3936607881\H,0,3.3184821583,-3.6347186
 858,2.1590622993\O,0,3.9743163812,-0.6546313283,1.3008258403\N,0,2.302
 3488304,0.0291024738,-2.1460182795\H,0,1.7697590494,0.856638965,-1.876
 9850001\C,0,2.960680445,-0.0498070864,-3.4377732575\H,0,3.2287923696,-
 1.1014073312,-3.5715699872\C,0,4.2643403213,0.7470397301,-3.3314245008
 \C,0,2.0642459318,0.3984512977,-4.6029869326\H,0,2.6300237334,0.292439
 2575,-5.5386159224\H,0,1.2484259374,-0.3276157446,-4.6666762327\O,0,4.
 3969932457,1.950374759,-3.5867891977\C,0,1.4863824851,1.8289541658,-4.
 4816585011\H,0,0.3978740979,1.8099215548,-4.6046303022\H,0,1.657983554
 8,2.2402255248,-3.4821605184\C,0,2.0909080464,2.7757090852,-5.52787875
 04\H,0,3.1793427248,2.6848504911,-5.5550988338\H,0,1.7257890722,2.5374
 575222,-6.5308698603\N,0,1.7619830074,4.1880391717,-5.2848882608\H,0,0
 .8697960986,4.527265834,-5.6205329278\N,0,3.4750943633,4.5168899537,-3
 .7509513461\H,0,4.1059946113,5.1565507551,-3.2888698068\H,0,3.70438732
 63,3.5194516457,-3.697727905\N,0,2.103995857,6.2866377437,-4.365244758
 7\H,0,2.4680928592,6.8700512995,-3.6261062475\H,0,1.4672720717,6.71475
 7749,-5.0210639081\C,0,2.4470833176,4.9863224388,-4.4622813646\O,0,5.2
 685841789,-0.0017752629,-2.8743460867\H,0,6.0467115072,0.57368501,-2.7
 403651636\\Version=ES64L-G16RevC.01\HF=-1917.3800548\RMSD=2.917e-09\Di
 pole=1.731009,4.0084875,-5.9350101\Quadrupole=-8.6534847,13.8723077,-5
 .2188229,25.3958257,-30.6335638,-77.4428832\PG=C01 [X(C23H36N9O7)]\\@
 The archive entry for this job was punched.


 IT WAS A GAME, A VERY INTERESTING GAME ONE COULD
 PLAY.  WHENEVER ONE SOLVED ONE OF THE LITTLE PROBLEMS,
 ONE COULD WRITE A PAPER ABOUT IT.  IT WAS VERY EASY IN
 THOSE DAYS FOR ANY SECOND-RATE PHYSICIST TO DO
 FIRST-RATE WORK.  THERE HAS NOT BEEN SUCH A GLORIOUS
 TIME SINCE.  IT IS VERY DIFFICULT NOW FOR A FIRST-RATE
 PHYSICIST TO DO SECOND-RATE WORK.
     P.A.M. DIRAC, ON THE EARLY DAYS OF QUANTUM MECHANICS
                   DIRECTIONS IN PHYSICS, 1978, P. 7
 Job cpu time:       0 days  0 hours  1 minutes 22.3 seconds.
 Elapsed time:       0 days  0 hours  0 minutes 21.5 seconds.
 File lengths (MBytes):  RWF=    344 Int=      0 D2E=      0 Chk=     48 Scr=     16
 Normal termination of Gaussian 16 at Tue Jun  7 03:34:23 2022.
