 Entering Gaussian System, Link 0=/opt/software/Gaussian/g16-AVX2-C.01/g16/g16
 Input=charge-conf-727.com
 Output=charge-conf-727.log
 Initial command:
 /opt/software/Gaussian/g16-AVX2-C.01/g16/l1.exe "/mnt/gs18/scratch/users/kengmith/Gau-66066.inp" -scrdir="/mnt/gs18/scratch/users/kengmith/"
 Entering Link 1 = /opt/software/Gaussian/g16-AVX2-C.01/g16/l1.exe PID=     66084.
  
 Copyright (c) 1988-2019, Gaussian, Inc.  All Rights Reserved.
  
 This is part of the Gaussian(R) 16 program.  It is based on
 the Gaussian(R) 09 system (copyright 2009, Gaussian, Inc.),
 the Gaussian(R) 03 system (copyright 2003, Gaussian, Inc.),
 the Gaussian(R) 98 system (copyright 1998, Gaussian, Inc.),
 the Gaussian(R) 94 system (copyright 1995, Gaussian, Inc.),
 the Gaussian 92(TM) system (copyright 1992, Gaussian, Inc.),
 the Gaussian 90(TM) system (copyright 1990, Gaussian, Inc.),
 the Gaussian 88(TM) system (copyright 1988, Gaussian, Inc.),
 the Gaussian 86(TM) system (copyright 1986, Carnegie Mellon
 University), and the Gaussian 82(TM) system (copyright 1983,
 Carnegie Mellon University). Gaussian is a federally registered
 trademark of Gaussian, Inc.
  
 This software contains proprietary and confidential information,
 including trade secrets, belonging to Gaussian, Inc.
  
 This software is provided under written license and may be
 used, copied, transmitted, or stored only in accord with that
 written license.
  
 The following legend is applicable only to US Government
 contracts under FAR:
  
                    RESTRICTED RIGHTS LEGEND
  
 Use, reproduction and disclosure by the US Government is
 subject to restrictions as set forth in subparagraphs (a)
 and (c) of the Commercial Computer Software - Restricted
 Rights clause in FAR 52.227-19.
  
 Gaussian, Inc.
 340 Quinnipiac St., Bldg. 40, Wallingford CT 06492
  
  
 ---------------------------------------------------------------
 Warning -- This program may not be used in any manner that
 competes with the business of Gaussian, Inc. or will provide
 assistance to any competitor of Gaussian, Inc.  The licensee
 of this program is prohibited from giving any competitor of
 Gaussian, Inc. access to this program.  By using this program,
 the user acknowledges that Gaussian, Inc. is engaged in the
 business of creating and licensing software in the field of
 computational chemistry and represents and warrants to the
 licensee that it is not a competitor of Gaussian, Inc. and that
 it will not use this program in any manner prohibited above.
 ---------------------------------------------------------------
  

 Cite this work as:
 Gaussian 16, Revision C.01,
 M. J. Frisch, G. W. Trucks, H. B. Schlegel, G. E. Scuseria, 
 M. A. Robb, J. R. Cheeseman, G. Scalmani, V. Barone, 
 G. A. Petersson, H. Nakatsuji, X. Li, M. Caricato, A. V. Marenich, 
 J. Bloino, B. G. Janesko, R. Gomperts, B. Mennucci, H. P. Hratchian, 
 J. V. Ortiz, A. F. Izmaylov, J. L. Sonnenberg, D. Williams-Young, 
 F. Ding, F. Lipparini, F. Egidi, J. Goings, B. Peng, A. Petrone, 
 T. Henderson, D. Ranasinghe, V. G. Zakrzewski, J. Gao, N. Rega, 
 G. Zheng, W. Liang, M. Hada, M. Ehara, K. Toyota, R. Fukuda, 
 J. Hasegawa, M. Ishida, T. Nakajima, Y. Honda, O. Kitao, H. Nakai, 
 T. Vreven, K. Throssell, J. A. Montgomery, Jr., J. E. Peralta, 
 F. Ogliaro, M. J. Bearpark, J. J. Heyd, E. N. Brothers, K. N. Kudin, 
 V. N. Staroverov, T. A. Keith, R. Kobayashi, J. Normand, 
 K. Raghavachari, A. P. Rendell, J. C. Burant, S. S. Iyengar, 
 J. Tomasi, M. Cossi, J. M. Millam, M. Klene, C. Adamo, R. Cammi, 
 J. W. Ochterski, R. L. Martin, K. Morokuma, O. Farkas, 
 J. B. Foresman, and D. J. Fox, Gaussian, Inc., Wallingford CT, 2019.
 
 ******************************************
 Gaussian 16:  ES64L-G16RevC.01  3-Jul-2019
                 7-Jun-2022 
 ******************************************
 %mem=8gb
 %nproc=4
 Will use up to    4 processors via shared memory.
 %chk=conf-727.chk
 -------------------------------------------------------------------
 # B3LYP/6-31G* guess=read geom=check nosymm integral(ultrafinegrid)
 -------------------------------------------------------------------
 1/29=2,38=1,172=1/1;
 2/12=2,15=1,40=1/2;
 3/5=1,6=6,7=1,11=2,14=-4,25=1,30=1,74=-5,75=-5,116=-2/1,2,3;
 4/5=1/1;
 5/5=2,38=6/2;
 6/7=2,8=2,9=2,10=2,28=1/1;
 99/5=1,9=1/99;
 ------------------------------------------------------
 Candidate Structure: Conf:727 Charge calc in gas phase
 ------------------------------------------------------
 Structure from the checkpoint file:  "conf-727.chk"
 Charge =  1 Multiplicity = 1
 Redundant internal coordinates found in file.  (old form).
 N,0,-5.492694274,2.467386348,2.0546475282
 H,0,-5.8458568198,2.7595692935,1.1438531519
 H,0,-5.7871733407,1.4923246458,2.1349192877
 C,0,-4.0320087304,2.482285699,2.0169635311
 H,0,-3.7026922488,3.4415413549,1.6048409636
 C,0,-3.4678819694,1.3441323682,1.1320746532
 C,0,-3.4896073533,2.3927894743,3.4586711382
 H,0,-4.1943029691,2.9396068515,4.0970850342
 H,0,-3.4897940907,1.3537571841,3.815573899
 O,0,-4.1695830345,0.3771860211,0.8251953632
 C,0,-2.096951413,2.9930825838,3.6338013595
 N,0,-1.6251304296,2.9854218494,4.9092150144
 H,0,-0.7272954939,3.4109180844,5.0931358458
 H,0,-2.183466791,2.6783226477,5.6916735685
 O,0,-1.4398593638,3.4615750282,2.7049042195
 N,0,-2.1821490506,1.4735697247,0.7142779937
 H,0,-1.5903574893,2.201881871,1.1162221758
 C,0,-1.5663721945,0.4095541384,-0.052145064
 H,0,-1.8706043541,-0.5515782492,0.3803621724
 C,0,-0.0445198596,0.5477597188,0.0641010491
 C,0,-2.0483129061,0.4211112375,-1.5429046283
 H,0,-3.0919472503,0.7447909385,-1.5112102698
 H,0,-1.4878378266,1.1796029028,-2.1029002921
 O,0,0.4803381863,1.4997137314,0.6501918885
 C,0,-1.9764034352,-0.9250578657,-2.2333163522
 C,0,-1.063781263,-1.1848437306,-3.2659855924
 H,0,-0.3858878447,-0.3995396188,-3.5952128633
 C,0,-2.849450893,-1.9512835462,-1.8340032452
 H,0,-3.5688181446,-1.7523354464,-1.0426778028
 C,0,-1.0204367561,-2.4381244074,-3.8851089472
 H,0,-0.311815785,-2.6178433686,-4.6892716892
 C,0,-2.8067563898,-3.2005511764,-2.4508033031
 H,0,-3.4936678413,-3.9808426207,-2.1346538531
 C,0,-1.8914150633,-3.4485639543,-3.4780995593
 H,0,-1.8631344652,-4.4214273804,-3.9608952386
 N,0,0.6821490636,-0.4376515744,-0.5234735932
 H,0,0.2033499627,-1.1222118362,-1.098145174
 C,0,2.1463546502,-0.4541562397,-0.4921484647
 H,0,2.4622949734,-0.1245613073,0.5002003238
 C,0,2.7252571293,0.5323563066,-1.5321365557
 C,0,2.6707359661,-1.863595881,-0.7468821124
 H,0,2.4630639032,-2.1637165002,-1.780253538
 H,0,2.1598395329,-2.5685709586,-0.0793526308
 O,0,3.1678981833,0.1772028124,-2.6190843031
 C,0,4.1771851424,-1.9244455545,-0.4791800776
 N,0,4.7817572723,-3.0863615748,-0.850973083
 H,0,5.7833180422,-3.1586531555,-0.736913601
 H,0,4.3122031183,-3.7875159141,-1.4040696649
 O,0,4.7784809176,-1.0082930906,0.0662245381
 N,0,2.6721930713,1.8383924304,-1.1341446681
 H,0,2.1555887923,2.049092826,-0.2807884062
 C,0,3.1594537878,2.890074756,-1.9896801975
 H,0,3.7651180105,2.3898065647,-2.7560210745
 C,0,4.0964679432,3.8396895813,-1.2530005861
 C,0,1.9987294511,3.6294134608,-2.7187934053
 H,0,1.3612289124,2.8282741274,-3.1020973061
 H,0,1.3905172964,4.1775564714,-1.9868802522
 O,0,4.7251284375,4.7452352398,-1.792985627
 C,0,2.411829114,4.5421613808,-3.8952589285
 H,0,3.3806323049,4.2172689046,-4.2922630099
 H,0,1.693888937,4.4232705595,-4.715238138
 C,0,2.4774776866,6.0341651614,-3.5284456359
 H,0,1.4742637421,6.4349462944,-3.3586981454
 H,0,3.0451245217,6.20008889,-2.611495401
 N,0,3.0829784324,6.8598022572,-4.5884988214
 H,0,2.4822363019,7.1450436039,-5.3513007474
 N,0,5.2905929194,6.4253794326,-3.9840197414
 H,0,6.2562475544,6.7227398206,-3.996293057
 H,0,5.030244525,5.7297462795,-3.274114023
 N,0,4.8221215124,7.8399385972,-5.7599523159
 H,0,5.8021089281,7.912062093,-5.9915516014
 H,0,4.196653509,8.4983247333,-6.2011662546
 C,0,4.3991827728,7.0328874722,-4.7653428325
 O,0,4.1788853443,3.617423583,0.0548067802
 H,0,4.8099780019,4.2614010046,0.4319849153
 Recover connectivity data from disk.
                           ----------------------------
                           !    Current Parameters    !
                           ! (Angstroms and Degrees)  !
 --------------------------                            --------------------------
 ! Name  Definition              Value                                          !
 --------------------------------------------------------------------------------
 ! R1    R(1,2)                  1.0196                                         !
 ! R2    R(1,3)                  1.0217                                         !
 ! R3    R(1,4)                  1.4612                                         !
 ! R4    R(4,5)                  1.0947                                         !
 ! R5    R(4,6)                  1.5481                                         !
 ! R6    R(4,7)                  1.543                                          !
 ! R7    R(6,10)                 1.2335                                         !
 ! R8    R(6,16)                 1.3581                                         !
 ! R9    R(7,8)                  1.0969                                         !
 ! R10   R(7,9)                  1.0986                                         !
 ! R11   R(7,11)                 1.5266                                         !
 ! R12   R(11,12)                1.3599                                         !
 ! R13   R(11,15)                1.2305                                         !
 ! R14   R(12,13)                1.0104                                         !
 ! R15   R(12,14)                1.0091                                         !
 ! R16   R(16,17)                1.0209                                         !
 ! R17   R(16,18)                1.4487                                         !
 ! R18   R(18,19)                1.097                                          !
 ! R19   R(18,20)                1.5325                                         !
 ! R20   R(18,21)                1.5668                                         !
 ! R21   R(20,24)                1.235                                          !
 ! R22   R(20,36)                1.3581                                         !
 ! R23   R(21,22)                1.0931                                         !
 ! R24   R(21,23)                1.0968                                         !
 ! R25   R(21,25)                1.5146                                         !
 ! R26   R(25,26)                1.4024                                         !
 ! R27   R(25,28)                1.4053                                         !
 ! R28   R(26,27)                1.0884                                         !
 ! R29   R(26,30)                1.3985                                         !
 ! R30   R(28,29)                1.0878                                         !
 ! R31   R(28,32)                1.3939                                         !
 ! R32   R(30,31)                1.0868                                         !
 ! R33   R(30,34)                1.3947                                         !
 ! R34   R(32,33)                1.0866                                         !
 ! R35   R(32,34)                1.3981                                         !
 ! R36   R(34,35)                1.0864                                         !
 ! R37   R(36,37)                1.014                                          !
 ! R38   R(36,38)                1.4646                                         !
 ! R39   R(38,39)                1.0923                                         !
 ! R40   R(38,40)                1.5459                                         !
 ! R41   R(38,41)                1.5252                                         !
 ! R42   R(40,44)                1.2262                                         !
 ! R43   R(40,50)                1.3664                                         !
 ! R44   R(41,42)                1.0959                                         !
 ! R45   R(41,43)                1.0971                                         !
 ! R46   R(41,45)                1.5313                                         !
 ! R47   R(45,46)                1.3615                                         !
 ! R48   R(45,49)                1.2241                                         !
 ! R49   R(46,47)                1.0106                                         !
 ! R50   R(46,48)                1.009                                          !
 ! R51   R(50,51)                1.0196                                         !
 ! R52   R(50,52)                1.4406                                         !
 ! R53   R(52,53)                1.0974                                         !
 ! R54   R(52,54)                1.524                                          !
 ! R55   R(52,55)                1.5574                                         !
 ! R56   R(54,58)                1.2275                                         !
 ! R57   R(54,74)                1.3291                                         !
 ! R58   R(55,56)                1.0932                                         !
 ! R59   R(55,57)                1.0982                                         !
 ! R60   R(55,59)                1.5453                                         !
 ! R61   R(59,60)                1.0962                                         !
 ! R62   R(59,61)                1.0963                                         !
 ! R63   R(59,62)                1.5378                                         !
 ! R64   R(62,63)                1.0936                                         !
 ! R65   R(62,64)                1.0911                                         !
 ! R66   R(62,65)                1.4738                                         !
 ! R67   R(65,66)                1.012                                          !
 ! R68   R(65,73)                1.3393                                         !
 ! R69   R(67,68)                1.0105                                         !
 ! R70   R(67,69)                1.0274                                         !
 ! R71   R(67,73)                1.332                                          !
 ! R72   R(70,71)                1.0096                                         !
 ! R73   R(70,72)                1.0096                                         !
 ! R74   R(70,73)                1.3489                                         !
 ! R75   R(74,75)                0.9774                                         !
 ! A1    A(2,1,3)              104.1123                                         !
 ! A2    A(2,1,4)              108.6794                                         !
 ! A3    A(3,1,4)              107.4495                                         !
 ! A4    A(1,4,5)              108.6232                                         !
 ! A5    A(1,4,6)              111.8082                                         !
 ! A6    A(1,4,7)              109.0692                                         !
 ! A7    A(5,4,6)              108.6268                                         !
 ! A8    A(5,4,7)              107.2672                                         !
 ! A9    A(6,4,7)              111.3056                                         !
 ! A10   A(4,6,10)             120.7453                                         !
 ! A11   A(4,6,16)             116.792                                          !
 ! A12   A(10,6,16)            122.4615                                         !
 ! A13   A(4,7,8)              106.8023                                         !
 ! A14   A(4,7,9)              110.9985                                         !
 ! A15   A(4,7,11)             113.8956                                         !
 ! A16   A(8,7,9)              106.3968                                         !
 ! A17   A(8,7,11)             108.8615                                         !
 ! A18   A(9,7,11)             109.5592                                         !
 ! A19   A(7,11,12)            114.9536                                         !
 ! A20   A(7,11,15)            123.3853                                         !
 ! A21   A(12,11,15)           121.6592                                         !
 ! A22   A(11,12,13)           118.4653                                         !
 ! A23   A(11,12,14)           122.4775                                         !
 ! A24   A(13,12,14)           118.5976                                         !
 ! A25   A(6,16,17)            119.7138                                         !
 ! A26   A(6,16,18)            119.6804                                         !
 ! A27   A(17,16,18)           119.0696                                         !
 ! A28   A(16,18,19)           108.4838                                         !
 ! A29   A(16,18,20)           108.4049                                         !
 ! A30   A(16,18,21)           111.5438                                         !
 ! A31   A(19,18,20)           108.9357                                         !
 ! A32   A(19,18,21)           107.2351                                         !
 ! A33   A(20,18,21)           112.1459                                         !
 ! A34   A(18,20,24)           121.8394                                         !
 ! A35   A(18,20,36)           115.6642                                         !
 ! A36   A(24,20,36)           122.4955                                         !
 ! A37   A(18,21,22)           105.5613                                         !
 ! A38   A(18,21,23)           109.4939                                         !
 ! A39   A(18,21,25)           114.366                                          !
 ! A40   A(22,21,23)           107.3312                                         !
 ! A41   A(22,21,25)           108.7669                                         !
 ! A42   A(23,21,25)           110.9551                                         !
 ! A43   A(21,25,26)           122.0862                                         !
 ! A44   A(21,25,28)           119.3428                                         !
 ! A45   A(26,25,28)           118.571                                          !
 ! A46   A(25,26,27)           119.6293                                         !
 ! A47   A(25,26,30)           120.807                                          !
 ! A48   A(27,26,30)           119.5621                                         !
 ! A49   A(25,28,29)           118.9472                                         !
 ! A50   A(25,28,32)           120.6458                                         !
 ! A51   A(29,28,32)           120.403                                          !
 ! A52   A(26,30,31)           119.7335                                         !
 ! A53   A(26,30,34)           120.0454                                         !
 ! A54   A(31,30,34)           120.219                                          !
 ! A55   A(28,32,33)           119.7025                                         !
 ! A56   A(28,32,34)           120.277                                          !
 ! A57   A(33,32,34)           120.0192                                         !
 ! A58   A(30,34,32)           119.6537                                         !
 ! A59   A(30,34,35)           120.1855                                         !
 ! A60   A(32,34,35)           120.1597                                         !
 ! A61   A(20,36,37)           118.8438                                         !
 ! A62   A(20,36,38)           122.2656                                         !
 ! A63   A(37,36,38)           118.4624                                         !
 ! A64   A(36,38,39)           107.7689                                         !
 ! A65   A(36,38,40)           110.6574                                         !
 ! A66   A(36,38,41)           110.5204                                         !
 ! A67   A(39,38,40)           108.0767                                         !
 ! A68   A(39,38,41)           109.336                                          !
 ! A69   A(40,38,41)           110.4009                                         !
 ! A70   A(38,40,44)           123.14                                           !
 ! A71   A(38,40,50)           113.5448                                         !
 ! A72   A(44,40,50)           123.3037                                         !
 ! A73   A(38,41,42)           110.2055                                         !
 ! A74   A(38,41,43)           109.3948                                         !
 ! A75   A(38,41,45)           110.2278                                         !
 ! A76   A(42,41,43)           108.0295                                         !
 ! A77   A(42,41,45)           109.9005                                         !
 ! A78   A(43,41,45)           109.0401                                         !
 ! A79   A(41,45,46)           115.0251                                         !
 ! A80   A(41,45,49)           122.1014                                         !
 ! A81   A(46,45,49)           122.8376                                         !
 ! A82   A(45,46,47)           118.0525                                         !
 ! A83   A(45,46,48)           122.4173                                         !
 ! A84   A(47,46,48)           118.2531                                         !
 ! A85   A(40,50,51)           117.4523                                         !
 ! A86   A(40,50,52)           120.7753                                         !
 ! A87   A(51,50,52)           121.1695                                         !
 ! A88   A(50,52,53)           105.5798                                         !
 ! A89   A(50,52,54)           112.0725                                         !
 ! A90   A(50,52,55)           111.8699                                         !
 ! A91   A(53,52,54)           106.3961                                         !
 ! A92   A(53,52,55)           107.5061                                         !
 ! A93   A(54,52,55)           112.8763                                         !
 ! A94   A(52,54,58)           124.1889                                         !
 ! A95   A(52,54,74)           114.1778                                         !
 ! A96   A(58,54,74)           121.6314                                         !
 ! A97   A(52,55,56)           104.5286                                         !
 ! A98   A(52,55,57)           109.7365                                         !
 ! A99   A(52,55,59)           115.9505                                         !
 ! A100  A(56,55,57)           106.0505                                         !
 ! A101  A(56,55,59)           108.7725                                         !
 ! A102  A(57,55,59)           111.1391                                         !
 ! A103  A(55,59,60)           109.6891                                         !
 ! A104  A(55,59,61)           109.2874                                         !
 ! A105  A(55,59,62)           113.7587                                         !
 ! A106  A(60,59,61)           106.0054                                         !
 ! A107  A(60,59,62)           109.6451                                         !
 ! A108  A(61,59,62)           108.1538                                         !
 ! A109  A(59,62,63)           110.6974                                         !
 ! A110  A(59,62,64)           111.7276                                         !
 ! A111  A(59,62,65)           112.9231                                         !
 ! A112  A(63,62,64)           106.9227                                         !
 ! A113  A(63,62,65)           106.4537                                         !
 ! A114  A(64,62,65)           107.79                                           !
 ! A115  A(62,65,66)           117.1408                                         !
 ! A116  A(62,65,73)           124.8308                                         !
 ! A117  A(66,65,73)           116.5799                                         !
 ! A118  A(68,67,69)           116.7299                                         !
 ! A119  A(68,67,73)           119.8818                                         !
 ! A120  A(69,67,73)           122.9918                                         !
 ! A121  A(71,70,72)           117.0338                                         !
 ! A122  A(71,70,73)           121.082                                          !
 ! A123  A(72,70,73)           121.2084                                         !
 ! A124  A(65,73,67)           121.4206                                         !
 ! A125  A(65,73,70)           118.8712                                         !
 ! A126  A(67,73,70)           119.7081                                         !
 ! A127  A(54,74,75)           108.0339                                         !
 ! D1    D(2,1,4,5)             49.296                                          !
 ! D2    D(2,1,4,6)            -70.5634                                         !
 ! D3    D(2,1,4,7)            165.9054                                         !
 ! D4    D(3,1,4,5)            161.3862                                         !
 ! D5    D(3,1,4,6)             41.5268                                         !
 ! D6    D(3,1,4,7)            -82.0044                                         !
 ! D7    D(1,4,6,10)           -17.7054                                         !
 ! D8    D(1,4,6,16)           161.9116                                         !
 ! D9    D(5,4,6,10)          -137.5627                                         !
 ! D10   D(5,4,6,16)            42.0543                                         !
 ! D11   D(7,4,6,10)           104.5544                                         !
 ! D12   D(7,4,6,16)           -75.8286                                         !
 ! D13   D(1,4,7,8)            -34.3972                                         !
 ! D14   D(1,4,7,9)             81.1818                                         !
 ! D15   D(1,4,7,11)          -154.6053                                         !
 ! D16   D(5,4,7,8)             83.0726                                         !
 ! D17   D(5,4,7,9)           -161.3484                                         !
 ! D18   D(5,4,7,11)           -37.1354                                         !
 ! D19   D(6,4,7,8)           -158.2263                                         !
 ! D20   D(6,4,7,9)            -42.6473                                         !
 ! D21   D(6,4,7,11)            81.5656                                         !
 ! D22   D(4,6,16,17)           10.7281                                         !
 ! D23   D(4,6,16,18)          176.4659                                         !
 ! D24   D(10,6,16,17)        -169.662                                          !
 ! D25   D(10,6,16,18)          -3.9242                                         !
 ! D26   D(4,7,11,12)          176.8944                                         !
 ! D27   D(4,7,11,15)           -2.6179                                         !
 ! D28   D(8,7,11,12)           57.8513                                         !
 ! D29   D(8,7,11,15)         -121.661                                          !
 ! D30   D(9,7,11,12)          -58.1217                                         !
 ! D31   D(9,7,11,15)          122.366                                          !
 ! D32   D(7,11,12,13)        -177.0495                                         !
 ! D33   D(7,11,12,14)          -4.944                                          !
 ! D34   D(15,11,12,13)          2.472                                          !
 ! D35   D(15,11,12,14)        174.5776                                         !
 ! D36   D(6,16,18,19)         -40.7378                                         !
 ! D37   D(6,16,18,20)        -158.8913                                         !
 ! D38   D(6,16,18,21)          77.1568                                         !
 ! D39   D(17,16,18,19)        125.0919                                         !
 ! D40   D(17,16,18,20)          6.9384                                         !
 ! D41   D(17,16,18,21)       -117.0134                                         !
 ! D42   D(16,18,20,24)         -4.9027                                         !
 ! D43   D(16,18,20,36)        175.4281                                         !
 ! D44   D(19,18,20,24)       -122.7685                                         !
 ! D45   D(19,18,20,36)         57.5623                                         !
 ! D46   D(21,18,20,24)        118.6883                                         !
 ! D47   D(21,18,20,36)        -60.981                                          !
 ! D48   D(16,18,21,22)        -34.6483                                         !
 ! D49   D(16,18,21,23)         80.6046                                         !
 ! D50   D(16,18,21,25)       -154.169                                          !
 ! D51   D(19,18,21,22)         83.9946                                         !
 ! D52   D(19,18,21,23)       -160.7525                                         !
 ! D53   D(19,18,21,25)        -35.5261                                         !
 ! D54   D(20,18,21,22)       -156.462                                          !
 ! D55   D(20,18,21,23)        -41.2091                                         !
 ! D56   D(20,18,21,25)         84.0173                                         !
 ! D57   D(18,20,36,37)          8.0594                                         !
 ! D58   D(18,20,36,38)       -179.5696                                         !
 ! D59   D(24,20,36,37)       -171.6075                                         !
 ! D60   D(24,20,36,38)          0.7636                                         !
 ! D61   D(18,21,25,26)       -111.267                                          !
 ! D62   D(18,21,25,28)         68.8255                                         !
 ! D63   D(22,21,25,26)        131.0276                                         !
 ! D64   D(22,21,25,28)        -48.8799                                         !
 ! D65   D(23,21,25,26)         13.1859                                         !
 ! D66   D(23,21,25,28)       -166.7216                                         !
 ! D67   D(21,25,26,27)         -0.472                                          !
 ! D68   D(21,25,26,30)        179.9991                                         !
 ! D69   D(28,25,26,27)        179.4362                                         !
 ! D70   D(28,25,26,30)         -0.0927                                         !
 ! D71   D(21,25,28,29)          0.7191                                         !
 ! D72   D(21,25,28,32)        179.9978                                         !
 ! D73   D(26,25,28,29)       -179.1917                                         !
 ! D74   D(26,25,28,32)          0.0871                                         !
 ! D75   D(25,26,30,31)        179.4925                                         !
 ! D76   D(25,26,30,34)          0.0145                                         !
 ! D77   D(27,26,30,31)         -0.0367                                         !
 ! D78   D(27,26,30,34)       -179.5147                                         !
 ! D79   D(25,28,32,33)       -179.5707                                         !
 ! D80   D(25,28,32,34)         -0.0034                                         !
 ! D81   D(29,28,32,33)         -0.3025                                         !
 ! D82   D(29,28,32,34)        179.2649                                         !
 ! D83   D(26,30,34,32)          0.0708                                         !
 ! D84   D(26,30,34,35)        179.6896                                         !
 ! D85   D(31,30,34,32)       -179.4047                                         !
 ! D86   D(31,30,34,35)          0.2142                                         !
 ! D87   D(28,32,34,30)         -0.0764                                         !
 ! D88   D(28,32,34,35)       -179.6953                                         !
 ! D89   D(33,32,34,30)        179.4896                                         !
 ! D90   D(33,32,34,35)         -0.1293                                         !
 ! D91   D(20,36,38,39)         39.6341                                         !
 ! D92   D(20,36,38,40)        -78.3382                                         !
 ! D93   D(20,36,38,41)        159.0534                                         !
 ! D94   D(37,36,38,39)       -147.9671                                         !
 ! D95   D(37,36,38,40)         94.0607                                         !
 ! D96   D(37,36,38,41)        -28.5477                                         !
 ! D97   D(36,38,40,44)       -101.211                                          !
 ! D98   D(36,38,40,50)         77.594                                          !
 ! D99   D(39,38,40,44)        141.0049                                         !
 ! D100  D(39,38,40,50)        -40.1901                                         !
 ! D101  D(41,38,40,44)         21.4669                                         !
 ! D102  D(41,38,40,50)       -159.7281                                         !
 ! D103  D(36,38,41,42)         68.1162                                         !
 ! D104  D(36,38,41,43)        -50.5178                                         !
 ! D105  D(36,38,41,45)       -170.4064                                         !
 ! D106  D(39,38,41,42)       -173.4155                                         !
 ! D107  D(39,38,41,43)         67.9505                                         !
 ! D108  D(39,38,41,45)        -51.9381                                         !
 ! D109  D(40,38,41,42)        -54.6418                                         !
 ! D110  D(40,38,41,43)       -173.2759                                         !
 ! D111  D(40,38,41,45)         66.8356                                         !
 ! D112  D(38,40,50,51)         -8.2555                                         !
 ! D113  D(38,40,50,52)       -179.456                                          !
 ! D114  D(44,40,50,51)        170.5472                                         !
 ! D115  D(44,40,50,52)         -0.6532                                         !
 ! D116  D(38,41,45,46)       -171.3626                                         !
 ! D117  D(38,41,45,49)         10.7601                                         !
 ! D118  D(42,41,45,46)        -49.704                                          !
 ! D119  D(42,41,45,49)        132.4187                                         !
 ! D120  D(43,41,45,46)         68.5347                                         !
 ! D121  D(43,41,45,49)       -109.3426                                         !
 ! D122  D(41,45,46,47)        177.0555                                         !
 ! D123  D(41,45,46,48)         10.199                                          !
 ! D124  D(49,45,46,47)         -5.0847                                         !
 ! D125  D(49,45,46,48)       -171.9412                                         !
 ! D126  D(40,50,52,53)        -15.378                                          !
 ! D127  D(40,50,52,54)       -130.8                                            !
 ! D128  D(40,50,52,55)        101.2641                                         !
 ! D129  D(51,50,52,53)        173.7509                                         !
 ! D130  D(51,50,52,54)         58.3289                                         !
 ! D131  D(51,50,52,55)        -69.6071                                         !
 ! D132  D(50,52,54,58)        173.6333                                         !
 ! D133  D(50,52,54,74)         -6.8646                                         !
 ! D134  D(53,52,54,58)         58.709                                          !
 ! D135  D(53,52,54,74)       -121.7889                                         !
 ! D136  D(55,52,54,58)        -58.9673                                         !
 ! D137  D(55,52,54,74)        120.5348                                         !
 ! D138  D(50,52,55,56)        -46.5839                                         !
 ! D139  D(50,52,55,57)         66.7706                                         !
 ! D140  D(50,52,55,59)       -166.309                                          !
 ! D141  D(53,52,55,56)         68.8879                                         !
 ! D142  D(53,52,55,57)       -177.7575                                         !
 ! D143  D(53,52,55,59)        -50.8372                                         !
 ! D144  D(54,52,55,56)       -174.0899                                         !
 ! D145  D(54,52,55,57)        -60.7354                                         !
 ! D146  D(54,52,55,59)         66.1849                                         !
 ! D147  D(52,54,74,75)        179.0334                                         !
 ! D148  D(58,54,74,75)         -1.4504                                         !
 ! D149  D(52,55,59,60)         23.3553                                         !
 ! D150  D(52,55,59,61)        139.1716                                         !
 ! D151  D(52,55,59,62)        -99.8506                                         !
 ! D152  D(56,55,59,60)        -94.0371                                         !
 ! D153  D(56,55,59,61)         21.7792                                         !
 ! D154  D(56,55,59,62)        142.757                                          !
 ! D155  D(57,55,59,60)        149.571                                          !
 ! D156  D(57,55,59,61)        -94.6127                                         !
 ! D157  D(57,55,59,62)         26.3651                                         !
 ! D158  D(55,59,62,63)        -70.2484                                         !
 ! D159  D(55,59,62,64)         48.7984                                         !
 ! D160  D(55,59,62,65)        170.5084                                         !
 ! D161  D(60,59,62,63)        166.5217                                         !
 ! D162  D(60,59,62,64)        -74.4315                                         !
 ! D163  D(60,59,62,65)         47.2785                                         !
 ! D164  D(61,59,62,63)         51.3614                                         !
 ! D165  D(61,59,62,64)        170.4082                                         !
 ! D166  D(61,59,62,65)        -67.8818                                         !
 ! D167  D(59,62,65,66)         82.3328                                         !
 ! D168  D(59,62,65,73)        -83.4212                                         !
 ! D169  D(63,62,65,66)        -39.3365                                         !
 ! D170  D(63,62,65,73)        154.9095                                         !
 ! D171  D(64,62,65,66)       -153.7624                                         !
 ! D172  D(64,62,65,73)         40.4836                                         !
 ! D173  D(62,65,73,67)          1.5181                                         !
 ! D174  D(62,65,73,70)       -178.588                                          !
 ! D175  D(66,65,73,67)       -164.3078                                         !
 ! D176  D(66,65,73,70)         15.5861                                         !
 ! D177  D(68,67,73,65)       -166.3776                                         !
 ! D178  D(68,67,73,70)         13.7294                                         !
 ! D179  D(69,67,73,65)          6.1536                                         !
 ! D180  D(69,67,73,70)       -173.7394                                         !
 ! D181  D(71,70,73,65)       -172.9077                                         !
 ! D182  D(71,70,73,67)          6.988                                          !
 ! D183  D(72,70,73,65)         16.7934                                         !
 ! D184  D(72,70,73,67)       -163.3108                                         !
 --------------------------------------------------------------------------------
 Symmetry turned off by external request.
 Stoichiometry    C23H36N9O7(1+)
 Framework group  C1[X(C23H36N9O7)]
 Deg. of freedom   219
 Full point group                 C1      NOp   1
                          Input orientation:                          
 ---------------------------------------------------------------------
 Center     Atomic      Atomic             Coordinates (Angstroms)
 Number     Number       Type             X           Y           Z
 ---------------------------------------------------------------------
      1          7           0       -5.492694    2.467386    2.054648
      2          1           0       -5.845857    2.759569    1.143853
      3          1           0       -5.787173    1.492325    2.134919
      4          6           0       -4.032009    2.482286    2.016964
      5          1           0       -3.702692    3.441541    1.604841
      6          6           0       -3.467882    1.344132    1.132075
      7          6           0       -3.489607    2.392789    3.458671
      8          1           0       -4.194303    2.939607    4.097085
      9          1           0       -3.489794    1.353757    3.815574
     10          8           0       -4.169583    0.377186    0.825195
     11          6           0       -2.096951    2.993083    3.633801
     12          7           0       -1.625130    2.985422    4.909215
     13          1           0       -0.727295    3.410918    5.093136
     14          1           0       -2.183467    2.678323    5.691674
     15          8           0       -1.439859    3.461575    2.704904
     16          7           0       -2.182149    1.473570    0.714278
     17          1           0       -1.590357    2.201882    1.116222
     18          6           0       -1.566372    0.409554   -0.052145
     19          1           0       -1.870604   -0.551578    0.380362
     20          6           0       -0.044520    0.547760    0.064101
     21          6           0       -2.048313    0.421111   -1.542905
     22          1           0       -3.091947    0.744791   -1.511210
     23          1           0       -1.487838    1.179603   -2.102900
     24          8           0        0.480338    1.499714    0.650192
     25          6           0       -1.976403   -0.925058   -2.233316
     26          6           0       -1.063781   -1.184844   -3.265986
     27          1           0       -0.385888   -0.399540   -3.595213
     28          6           0       -2.849451   -1.951284   -1.834003
     29          1           0       -3.568818   -1.752335   -1.042678
     30          6           0       -1.020437   -2.438124   -3.885109
     31          1           0       -0.311816   -2.617843   -4.689272
     32          6           0       -2.806756   -3.200551   -2.450803
     33          1           0       -3.493668   -3.980843   -2.134654
     34          6           0       -1.891415   -3.448564   -3.478100
     35          1           0       -1.863134   -4.421427   -3.960895
     36          7           0        0.682149   -0.437652   -0.523474
     37          1           0        0.203350   -1.122212   -1.098145
     38          6           0        2.146355   -0.454156   -0.492148
     39          1           0        2.462295   -0.124561    0.500200
     40          6           0        2.725257    0.532356   -1.532137
     41          6           0        2.670736   -1.863596   -0.746882
     42          1           0        2.463064   -2.163717   -1.780254
     43          1           0        2.159840   -2.568571   -0.079353
     44          8           0        3.167898    0.177203   -2.619084
     45          6           0        4.177185   -1.924446   -0.479180
     46          7           0        4.781757   -3.086362   -0.850973
     47          1           0        5.783318   -3.158653   -0.736914
     48          1           0        4.312203   -3.787516   -1.404070
     49          8           0        4.778481   -1.008293    0.066225
     50          7           0        2.672193    1.838392   -1.134145
     51          1           0        2.155589    2.049093   -0.280788
     52          6           0        3.159454    2.890075   -1.989680
     53          1           0        3.765118    2.389807   -2.756021
     54          6           0        4.096468    3.839690   -1.253001
     55          6           0        1.998729    3.629413   -2.718793
     56          1           0        1.361229    2.828274   -3.102097
     57          1           0        1.390517    4.177556   -1.986880
     58          8           0        4.725128    4.745235   -1.792986
     59          6           0        2.411829    4.542161   -3.895259
     60          1           0        3.380632    4.217269   -4.292263
     61          1           0        1.693889    4.423271   -4.715238
     62          6           0        2.477478    6.034165   -3.528446
     63          1           0        1.474264    6.434946   -3.358698
     64          1           0        3.045125    6.200089   -2.611495
     65          7           0        3.082978    6.859802   -4.588499
     66          1           0        2.482236    7.145044   -5.351301
     67          7           0        5.290593    6.425379   -3.984020
     68          1           0        6.256248    6.722740   -3.996293
     69          1           0        5.030245    5.729746   -3.274114
     70          7           0        4.822122    7.839939   -5.759952
     71          1           0        5.802109    7.912062   -5.991552
     72          1           0        4.196654    8.498325   -6.201166
     73          6           0        4.399183    7.032887   -4.765343
     74          8           0        4.178885    3.617424    0.054807
     75          1           0        4.809978    4.261401    0.431985
 ---------------------------------------------------------------------
 Rotational constants (GHZ):           0.0865762           0.0507725           0.0424271
 Standard basis: 6-31G(d) (6D, 7F)
   657 basis functions,  1236 primitive gaussians,   657 cartesian basis functions
   146 alpha electrons      146 beta electrons
       nuclear repulsion energy      4565.1691127199 Hartrees.
 NAtoms=   75 NActive=   75 NUniq=   75 SFac= 1.00D+00 NAtFMM=   60 NAOKFM=T Big=T
 Integral buffers will be    131072 words long.
 Raffenetti 2 integral format.
 Two-electron integral symmetry is turned off.
 One-electron integrals computed using PRISM.
 NBasis=   657 RedAO= T EigKep=  4.67D-04  NBF=   657
 NBsUse=   657 1.00D-06 EigRej= -1.00D+00 NBFU=   657
 Initial guess from the checkpoint file:  "conf-727.chk"
 B after Tr=     0.000000    0.000000    0.000000
         Rot=    1.000000    0.000000    0.000000    0.000000 Ang=   0.00 deg.
 Requested convergence on RMS density matrix=1.00D-08 within 128 cycles.
 Requested convergence on MAX density matrix=1.00D-06.
 Requested convergence on             energy=1.00D-06.
 No special actions if energy rises.
 SCF Done:  E(RB3LYP) =  -1917.37979182     A.U. after    1 cycles
            NFock=  1  Conv=0.52D-08     -V/T= 2.0094

 **********************************************************************

            Population analysis using the SCF Density.

 **********************************************************************

 Alpha  occ. eigenvalues --  -19.31297 -19.26424 -19.19759 -19.19211 -19.17777
 Alpha  occ. eigenvalues --  -19.17504 -19.16643 -14.52868 -14.52841 -14.51596
 Alpha  occ. eigenvalues --  -14.43898 -14.43296 -14.41900 -14.41873 -14.40415
 Alpha  occ. eigenvalues --  -14.35910 -10.49007 -10.44285 -10.36579 -10.36167
 Alpha  occ. eigenvalues --  -10.36080 -10.35461 -10.35393 -10.33984 -10.33158
 Alpha  occ. eigenvalues --  -10.31071 -10.30746 -10.30298 -10.29898 -10.27419
 Alpha  occ. eigenvalues --  -10.26854 -10.25946 -10.25747 -10.25305 -10.25242
 Alpha  occ. eigenvalues --  -10.25117 -10.24842 -10.24786 -10.24513  -1.22764
 Alpha  occ. eigenvalues --   -1.17373  -1.13354  -1.11805  -1.10887  -1.09443
 Alpha  occ. eigenvalues --   -1.09326  -1.08254  -1.06747  -1.05236  -1.00930
 Alpha  occ. eigenvalues --   -1.00193  -0.97373  -0.96599  -0.96545  -0.93456
 Alpha  occ. eigenvalues --   -0.91710  -0.91558  -0.87237  -0.85753  -0.84122
 Alpha  occ. eigenvalues --   -0.81699  -0.81553  -0.80311  -0.79224  -0.78821
 Alpha  occ. eigenvalues --   -0.75369  -0.74879  -0.74061  -0.72807  -0.71488
 Alpha  occ. eigenvalues --   -0.70565  -0.69871  -0.67524  -0.66592  -0.66420
 Alpha  occ. eigenvalues --   -0.65750  -0.65338  -0.64852  -0.64601  -0.63823
 Alpha  occ. eigenvalues --   -0.63119  -0.62410  -0.61227  -0.60520  -0.60263
 Alpha  occ. eigenvalues --   -0.59738  -0.59181  -0.58876  -0.58108  -0.57601
 Alpha  occ. eigenvalues --   -0.57207  -0.56825  -0.56419  -0.55043  -0.54945
 Alpha  occ. eigenvalues --   -0.54191  -0.53253  -0.53077  -0.51870  -0.51654
 Alpha  occ. eigenvalues --   -0.51582  -0.51281  -0.51047  -0.50780  -0.50638
 Alpha  occ. eigenvalues --   -0.49725  -0.49237  -0.48985  -0.48226  -0.47766
 Alpha  occ. eigenvalues --   -0.47619  -0.47207  -0.46649  -0.46289  -0.46177
 Alpha  occ. eigenvalues --   -0.45916  -0.45713  -0.45433  -0.45126  -0.44494
 Alpha  occ. eigenvalues --   -0.43982  -0.43679  -0.43405  -0.43232  -0.42725
 Alpha  occ. eigenvalues --   -0.42444  -0.41349  -0.41250  -0.41075  -0.40329
 Alpha  occ. eigenvalues --   -0.40175  -0.39817  -0.39153  -0.35613  -0.33952
 Alpha  occ. eigenvalues --   -0.33270  -0.33010  -0.32918  -0.31930  -0.31729
 Alpha  occ. eigenvalues --   -0.31444  -0.31047  -0.30882  -0.30595  -0.29858
 Alpha  occ. eigenvalues --   -0.28810
 Alpha virt. eigenvalues --   -0.12724  -0.11266  -0.09130  -0.07055  -0.06231
 Alpha virt. eigenvalues --   -0.05481  -0.05135  -0.04737  -0.04255  -0.03500
 Alpha virt. eigenvalues --   -0.03257  -0.02762  -0.02534  -0.01646  -0.00717
 Alpha virt. eigenvalues --    0.01205   0.01469   0.01746   0.02023   0.02365
 Alpha virt. eigenvalues --    0.03290   0.03748   0.03984   0.04150   0.05053
 Alpha virt. eigenvalues --    0.05658   0.05743   0.06014   0.06299   0.06633
 Alpha virt. eigenvalues --    0.07639   0.07846   0.08081   0.08876   0.09409
 Alpha virt. eigenvalues --    0.09666   0.09829   0.10141   0.10310   0.11032
 Alpha virt. eigenvalues --    0.11236   0.11409   0.11938   0.11945   0.12221
 Alpha virt. eigenvalues --    0.12656   0.13079   0.13592   0.13808   0.14434
 Alpha virt. eigenvalues --    0.14495   0.14623   0.15410   0.16101   0.16470
 Alpha virt. eigenvalues --    0.17418   0.17806   0.18243   0.19225   0.19787
 Alpha virt. eigenvalues --    0.19905   0.20605   0.21132   0.21551   0.21904
 Alpha virt. eigenvalues --    0.22852   0.24821   0.25128   0.25247   0.26160
 Alpha virt. eigenvalues --    0.26544   0.27613   0.27827   0.28411   0.29043
 Alpha virt. eigenvalues --    0.29267   0.30538   0.30873   0.31722   0.32544
 Alpha virt. eigenvalues --    0.34403   0.35481   0.37229   0.38034   0.38222
 Alpha virt. eigenvalues --    0.39199   0.39530   0.39846   0.41337   0.42994
 Alpha virt. eigenvalues --    0.43240   0.43597   0.44611   0.45478   0.45584
 Alpha virt. eigenvalues --    0.46136   0.47103   0.47437   0.47856   0.48164
 Alpha virt. eigenvalues --    0.48481   0.48954   0.49092   0.49637   0.50230
 Alpha virt. eigenvalues --    0.50336   0.50582   0.50789   0.50946   0.51927
 Alpha virt. eigenvalues --    0.52331   0.52869   0.53051   0.53257   0.53712
 Alpha virt. eigenvalues --    0.53986   0.54715   0.54851   0.55092   0.55243
 Alpha virt. eigenvalues --    0.55507   0.56046   0.56599   0.57184   0.57332
 Alpha virt. eigenvalues --    0.57830   0.57990   0.58328   0.59030   0.59143
 Alpha virt. eigenvalues --    0.59437   0.60118   0.60268   0.60522   0.61139
 Alpha virt. eigenvalues --    0.61229   0.62122   0.62560   0.63013   0.64184
 Alpha virt. eigenvalues --    0.64438   0.64866   0.65284   0.65548   0.66626
 Alpha virt. eigenvalues --    0.66826   0.67048   0.67381   0.67646   0.68918
 Alpha virt. eigenvalues --    0.69297   0.69771   0.70472   0.70937   0.71469
 Alpha virt. eigenvalues --    0.71856   0.72081   0.72354   0.72748   0.73331
 Alpha virt. eigenvalues --    0.73954   0.74112   0.74576   0.75421   0.75929
 Alpha virt. eigenvalues --    0.76246   0.76682   0.76845   0.77066   0.77662
 Alpha virt. eigenvalues --    0.77982   0.78615   0.78977   0.79063   0.79213
 Alpha virt. eigenvalues --    0.79455   0.79711   0.80360   0.80622   0.80846
 Alpha virt. eigenvalues --    0.81473   0.81777   0.82080   0.82247   0.82519
 Alpha virt. eigenvalues --    0.82941   0.83054   0.83628   0.83861   0.84549
 Alpha virt. eigenvalues --    0.84915   0.85810   0.85845   0.86173   0.86688
 Alpha virt. eigenvalues --    0.86900   0.87301   0.87616   0.87811   0.88090
 Alpha virt. eigenvalues --    0.88353   0.88794   0.89610   0.90105   0.90262
 Alpha virt. eigenvalues --    0.90651   0.92163   0.92299   0.92883   0.93677
 Alpha virt. eigenvalues --    0.94231   0.94773   0.95730   0.96497   0.97543
 Alpha virt. eigenvalues --    0.98256   0.98616   0.98803   1.00784   1.01809
 Alpha virt. eigenvalues --    1.02187   1.02922   1.03325   1.03717   1.04047
 Alpha virt. eigenvalues --    1.05238   1.05516   1.06920   1.07095   1.09098
 Alpha virt. eigenvalues --    1.10027   1.10583   1.11029   1.11897   1.12506
 Alpha virt. eigenvalues --    1.13151   1.14348   1.15411   1.16547   1.16740
 Alpha virt. eigenvalues --    1.18085   1.18206   1.19156   1.20008   1.20571
 Alpha virt. eigenvalues --    1.21674   1.22783   1.23134   1.23875   1.24292
 Alpha virt. eigenvalues --    1.25670   1.26035   1.26428   1.28691   1.29698
 Alpha virt. eigenvalues --    1.29893   1.30087   1.30778   1.31796   1.33651
 Alpha virt. eigenvalues --    1.33903   1.34262   1.34877   1.35643   1.35982
 Alpha virt. eigenvalues --    1.36833   1.37678   1.37876   1.38724   1.39987
 Alpha virt. eigenvalues --    1.41031   1.42066   1.42833   1.43151   1.43911
 Alpha virt. eigenvalues --    1.44363   1.44432   1.45363   1.45889   1.46465
 Alpha virt. eigenvalues --    1.47295   1.49125   1.50045   1.50306   1.51199
 Alpha virt. eigenvalues --    1.52045   1.53088   1.54381   1.54867   1.56199
 Alpha virt. eigenvalues --    1.56419   1.57748   1.58594   1.58896   1.59706
 Alpha virt. eigenvalues --    1.60977   1.61397   1.62673   1.63580   1.64105
 Alpha virt. eigenvalues --    1.64485   1.64796   1.66611   1.67014   1.67622
 Alpha virt. eigenvalues --    1.68518   1.69546   1.69665   1.70275   1.70917
 Alpha virt. eigenvalues --    1.72154   1.72483   1.72738   1.73548   1.74127
 Alpha virt. eigenvalues --    1.74251   1.74886   1.75109   1.75607   1.75837
 Alpha virt. eigenvalues --    1.76215   1.76968   1.77551   1.78023   1.78803
 Alpha virt. eigenvalues --    1.79296   1.79857   1.80861   1.81305   1.81512
 Alpha virt. eigenvalues --    1.81924   1.82397   1.82549   1.82948   1.83664
 Alpha virt. eigenvalues --    1.84286   1.85029   1.85478   1.86358   1.86775
 Alpha virt. eigenvalues --    1.87254   1.88038   1.89340   1.89774   1.91286
 Alpha virt. eigenvalues --    1.92012   1.92619   1.92973   1.93323   1.93760
 Alpha virt. eigenvalues --    1.94226   1.94645   1.95167   1.95580   1.95907
 Alpha virt. eigenvalues --    1.96071   1.97876   1.98503   1.99025   1.99197
 Alpha virt. eigenvalues --    1.99499   1.99634   2.01007   2.02245   2.02557
 Alpha virt. eigenvalues --    2.03781   2.04176   2.05571   2.06489   2.07454
 Alpha virt. eigenvalues --    2.08055   2.08534   2.09100   2.09624   2.10412
 Alpha virt. eigenvalues --    2.11700   2.12699   2.13217   2.13645   2.14036
 Alpha virt. eigenvalues --    2.14990   2.16476   2.17808   2.18250   2.18747
 Alpha virt. eigenvalues --    2.19729   2.19932   2.20474   2.21538   2.22784
 Alpha virt. eigenvalues --    2.23504   2.24090   2.24762   2.25375   2.25655
 Alpha virt. eigenvalues --    2.26491   2.27750   2.28460   2.30410   2.32844
 Alpha virt. eigenvalues --    2.33808   2.34349   2.34735   2.35008   2.36337
 Alpha virt. eigenvalues --    2.37215   2.37572   2.38227   2.38748   2.39093
 Alpha virt. eigenvalues --    2.39736   2.40341   2.42161   2.42757   2.43757
 Alpha virt. eigenvalues --    2.43950   2.45816   2.46392   2.46863   2.48226
 Alpha virt. eigenvalues --    2.48449   2.50247   2.52037   2.52821   2.53116
 Alpha virt. eigenvalues --    2.53595   2.54598   2.55506   2.56758   2.56839
 Alpha virt. eigenvalues --    2.57592   2.58394   2.59389   2.59919   2.60266
 Alpha virt. eigenvalues --    2.61392   2.62484   2.63477   2.64312   2.65680
 Alpha virt. eigenvalues --    2.66144   2.67513   2.68520   2.68967   2.70554
 Alpha virt. eigenvalues --    2.72676   2.73770   2.75771   2.77039   2.78759
 Alpha virt. eigenvalues --    2.80053   2.82795   2.84337   2.85288   2.88249
 Alpha virt. eigenvalues --    2.89808   2.90330   2.91095   2.92302   2.94397
 Alpha virt. eigenvalues --    2.95285   2.95630   2.96600   2.98629   3.00270
 Alpha virt. eigenvalues --    3.02262   3.02727   3.03258   3.08207   3.11313
 Alpha virt. eigenvalues --    3.15210   3.34686   3.64801   3.73577   3.73690
 Alpha virt. eigenvalues --    3.74850   3.77450   3.81824   3.85249   3.95370
 Alpha virt. eigenvalues --    3.97616   3.98486   4.00703   4.02434   4.03741
 Alpha virt. eigenvalues --    4.05171   4.06690   4.07038   4.08416   4.11196
 Alpha virt. eigenvalues --    4.15135   4.15890   4.17708   4.18319   4.19984
 Alpha virt. eigenvalues --    4.20499   4.24152   4.27968   4.28974   4.32971
 Alpha virt. eigenvalues --    4.35705   4.41240   4.42725   4.45154   4.49427
 Alpha virt. eigenvalues --    4.51634   4.53222   4.56518   4.60042   4.63075
 Alpha virt. eigenvalues --    4.65710
          Condensed to atoms (all electrons):
 Mulliken charges:
               1
     1  N   -0.699949
     2  H    0.303103
     3  H    0.313865
     4  C   -0.079284
     5  H    0.165024
     6  C    0.570183
     7  C   -0.376760
     8  H    0.196055
     9  H    0.175672
    10  O   -0.537969
    11  C    0.612403
    12  N   -0.742654
    13  H    0.348078
    14  H    0.347727
    15  O   -0.525840
    16  N   -0.638923
    17  H    0.396072
    18  C   -0.030644
    19  H    0.188979
    20  C    0.607275
    21  C   -0.351107
    22  H    0.196273
    23  H    0.135513
    24  O   -0.544892
    25  C    0.125131
    26  C   -0.211774
    27  H    0.127714
    28  C   -0.186147
    29  H    0.173913
    30  C   -0.129149
    31  H    0.138469
    32  C   -0.129455
    33  H    0.147005
    34  C   -0.129950
    35  H    0.142343
    36  N   -0.629534
    37  H    0.358194
    38  C   -0.040138
    39  H    0.206168
    40  C    0.645780
    41  C   -0.407265
    42  H    0.182257
    43  H    0.185461
    44  O   -0.535031
    45  C    0.629752
    46  N   -0.752661
    47  H    0.350278
    48  H    0.342814
    49  O   -0.511892
    50  N   -0.621730
    51  H    0.383042
    52  C   -0.066862
    53  H    0.219321
    54  C    0.620993
    55  C   -0.283409
    56  H    0.188972
    57  H    0.165787
    58  O   -0.519887
    59  C   -0.272919
    60  H    0.160823
    61  H    0.164663
    62  C   -0.188498
    63  H    0.194331
    64  H    0.200033
    65  N   -0.595685
    66  H    0.362919
    67  N   -0.791313
    68  H    0.373130
    69  H    0.450094
    70  N   -0.768592
    71  H    0.382876
    72  H    0.382152
    73  C    0.823034
    74  O   -0.514368
    75  H    0.430613
 Sum of Mulliken charges =   1.00000
 Mulliken charges with hydrogens summed into heavy atoms:
               1
     1  N   -0.082982
     4  C    0.085740
     6  C    0.570183
     7  C   -0.005033
    10  O   -0.537969
    11  C    0.612403
    12  N   -0.046848
    15  O   -0.525840
    16  N   -0.242852
    18  C    0.158334
    20  C    0.607275
    21  C   -0.019321
    24  O   -0.544892
    25  C    0.125131
    26  C   -0.084060
    28  C   -0.012234
    30  C    0.009321
    32  C    0.017550
    34  C    0.012393
    36  N   -0.271339
    38  C    0.166031
    40  C    0.645780
    41  C   -0.039547
    44  O   -0.535031
    45  C    0.629752
    46  N   -0.059570
    49  O   -0.511892
    50  N   -0.238688
    52  C    0.152459
    54  C    0.620993
    55  C    0.071349
    58  O   -0.519887
    59  C    0.052567
    62  C    0.205865
    65  N   -0.232766
    67  N    0.031910
    70  N   -0.003564
    73  C    0.823034
    74  O   -0.083755
 Electronic spatial extent (au):  <R**2>=          31453.1893
 Charge=              1.0000 electrons
 Dipole moment (field-independent basis, Debye):
    X=             16.9691    Y=             24.7715    Z=            -16.3663  Tot=             34.1969
 Quadrupole moment (field-independent basis, Debye-Ang):
   XX=           -142.5478   YY=              2.0264   ZZ=            -97.8672
   XY=            112.2251   XZ=            -82.5428   YZ=           -121.0476
 Traceless Quadrupole moment (field-independent basis, Debye-Ang):
   XX=            -63.0849   YY=             81.4893   ZZ=            -18.4043
   XY=            112.2251   XZ=            -82.5428   YZ=           -121.0476
 Octapole moment (field-independent basis, Debye-Ang**2):
  XXX=            132.3201  YYY=            338.1851  ZZZ=            352.7272  XYY=            825.0399
  XXY=            203.8572  XXZ=           -171.1993  XZZ=            220.6254  YZZ=            465.2476
  YYZ=           -854.4482  XYZ=           -567.1857
 Hexadecapole moment (field-independent basis, Debye-Ang**3):
 XXXX=         -11166.5393 YYYY=          -4315.6576 ZZZZ=          -5859.0702 XXXY=            580.1950
 XXXZ=           1057.3062 YYYX=           3808.0947 YYYZ=          -5997.7633 ZZZX=            548.3999
 ZZZY=          -1751.2474 XXYY=             33.3720 XXZZ=          -1939.0844 YYZZ=           1978.1242
 XXYZ=          -2279.7036 YYXZ=          -3523.3384 ZZXY=           2283.0126
 N-N= 4.565169112720D+03 E-N=-1.357705378252D+04  KE= 1.899589314494D+03
 Unable to Open any file for archive entry.
 1\1\GINC-AMR-243\SP\RB3LYP\6-31G(d)\C23H36N9O7(1+)\KENGMITH\07-Jun-202
 2\0\\# B3LYP/6-31G* guess=read geom=check nosymm integral(ultrafinegri
 d)\\Candidate Structure: Conf:727 Charge calc in gas phase\\1,1\N,0,-5
 .492694274,2.467386348,2.0546475282\H,0,-5.8458568198,2.7595692935,1.1
 438531519\H,0,-5.7871733407,1.4923246458,2.1349192877\C,0,-4.032008730
 4,2.482285699,2.0169635311\H,0,-3.7026922488,3.4415413549,1.6048409636
 \C,0,-3.4678819694,1.3441323682,1.1320746532\C,0,-3.4896073533,2.39278
 94743,3.4586711382\H,0,-4.1943029691,2.9396068515,4.0970850342\H,0,-3.
 4897940907,1.3537571841,3.815573899\O,0,-4.1695830345,0.3771860211,0.8
 251953632\C,0,-2.096951413,2.9930825838,3.6338013595\N,0,-1.6251304296
 ,2.9854218494,4.9092150144\H,0,-0.7272954939,3.4109180844,5.0931358458
 \H,0,-2.183466791,2.6783226477,5.6916735685\O,0,-1.4398593638,3.461575
 0282,2.7049042195\N,0,-2.1821490506,1.4735697247,0.7142779937\H,0,-1.5
 903574893,2.201881871,1.1162221758\C,0,-1.5663721945,0.4095541384,-0.0
 52145064\H,0,-1.8706043541,-0.5515782492,0.3803621724\C,0,-0.044519859
 6,0.5477597188,0.0641010491\C,0,-2.0483129061,0.4211112375,-1.54290462
 83\H,0,-3.0919472503,0.7447909385,-1.5112102698\H,0,-1.4878378266,1.17
 96029028,-2.1029002921\O,0,0.4803381863,1.4997137314,0.6501918885\C,0,
 -1.9764034352,-0.9250578657,-2.2333163522\C,0,-1.063781263,-1.18484373
 06,-3.2659855924\H,0,-0.3858878447,-0.3995396188,-3.5952128633\C,0,-2.
 849450893,-1.9512835462,-1.8340032452\H,0,-3.5688181446,-1.7523354464,
 -1.0426778028\C,0,-1.0204367561,-2.4381244074,-3.8851089472\H,0,-0.311
 815785,-2.6178433686,-4.6892716892\C,0,-2.8067563898,-3.2005511764,-2.
 4508033031\H,0,-3.4936678413,-3.9808426207,-2.1346538531\C,0,-1.891415
 0633,-3.4485639543,-3.4780995593\H,0,-1.8631344652,-4.4214273804,-3.96
 08952386\N,0,0.6821490636,-0.4376515744,-0.5234735932\H,0,0.2033499627
 ,-1.1222118362,-1.098145174\C,0,2.1463546502,-0.4541562397,-0.49214846
 47\H,0,2.4622949734,-0.1245613073,0.5002003238\C,0,2.7252571293,0.5323
 563066,-1.5321365557\C,0,2.6707359661,-1.863595881,-0.7468821124\H,0,2
 .4630639032,-2.1637165002,-1.780253538\H,0,2.1598395329,-2.5685709586,
 -0.0793526308\O,0,3.1678981833,0.1772028124,-2.6190843031\C,0,4.177185
 1424,-1.9244455545,-0.4791800776\N,0,4.7817572723,-3.0863615748,-0.850
 973083\H,0,5.7833180422,-3.1586531555,-0.736913601\H,0,4.3122031183,-3
 .7875159141,-1.4040696649\O,0,4.7784809176,-1.0082930906,0.0662245381\
 N,0,2.6721930713,1.8383924304,-1.1341446681\H,0,2.1555887923,2.0490928
 26,-0.2807884062\C,0,3.1594537878,2.890074756,-1.9896801975\H,0,3.7651
 180105,2.3898065647,-2.7560210745\C,0,4.0964679432,3.8396895813,-1.253
 0005861\C,0,1.9987294511,3.6294134608,-2.7187934053\H,0,1.3612289124,2
 .8282741274,-3.1020973061\H,0,1.3905172964,4.1775564714,-1.9868802522\
 O,0,4.7251284375,4.7452352398,-1.792985627\C,0,2.411829114,4.542161380
 8,-3.8952589285\H,0,3.3806323049,4.2172689046,-4.2922630099\H,0,1.6938
 88937,4.4232705595,-4.715238138\C,0,2.4774776866,6.0341651614,-3.52844
 56359\H,0,1.4742637421,6.4349462944,-3.3586981454\H,0,3.0451245217,6.2
 0008889,-2.611495401\N,0,3.0829784324,6.8598022572,-4.5884988214\H,0,2
 .4822363019,7.1450436039,-5.3513007474\N,0,5.2905929194,6.4253794326,-
 3.9840197414\H,0,6.2562475544,6.7227398206,-3.996293057\H,0,5.03024452
 5,5.7297462795,-3.274114023\N,0,4.8221215124,7.8399385972,-5.759952315
 9\H,0,5.8021089281,7.912062093,-5.9915516014\H,0,4.196653509,8.4983247
 333,-6.2011662546\C,0,4.3991827728,7.0328874722,-4.7653428325\O,0,4.17
 88853443,3.617423583,0.0548067802\H,0,4.8099780019,4.2614010046,0.4319
 849153\\Version=ES64L-G16RevC.01\HF=-1917.3797918\RMSD=5.171e-09\Dipol
 e=5.3212199,6.6096051,-4.5679991\Quadrupole=-46.9021024,60.5852676,-13
 .6831652,83.4366014,-61.3685535,-89.9959426\PG=C01 [X(C23H36N9O7)]\\@
 The archive entry for this job was punched.


 E PUR SI MUOVE    -- GALILEO GALILEI
 Job cpu time:       0 days  0 hours  1 minutes 32.3 seconds.
 Elapsed time:       0 days  0 hours  0 minutes 24.9 seconds.
 File lengths (MBytes):  RWF=    344 Int=      0 D2E=      0 Chk=     48 Scr=     16
 Normal termination of Gaussian 16 at Tue Jun  7 03:23:52 2022.
