 Entering Gaussian System, Link 0=/opt/software/Gaussian/g16-AVX2-C.01/g16/g16
 Input=charge-conf-156.com
 Output=charge-conf-156.log
 Initial command:
 /opt/software/Gaussian/g16-AVX2-C.01/g16/l1.exe "/mnt/gs18/scratch/users/kengmith/Gau-86985.inp" -scrdir="/mnt/gs18/scratch/users/kengmith/"
 Entering Link 1 = /opt/software/Gaussian/g16-AVX2-C.01/g16/l1.exe PID=     87011.
  
 Copyright (c) 1988-2019, Gaussian, Inc.  All Rights Reserved.
  
 This is part of the Gaussian(R) 16 program.  It is based on
 the Gaussian(R) 09 system (copyright 2009, Gaussian, Inc.),
 the Gaussian(R) 03 system (copyright 2003, Gaussian, Inc.),
 the Gaussian(R) 98 system (copyright 1998, Gaussian, Inc.),
 the Gaussian(R) 94 system (copyright 1995, Gaussian, Inc.),
 the Gaussian 92(TM) system (copyright 1992, Gaussian, Inc.),
 the Gaussian 90(TM) system (copyright 1990, Gaussian, Inc.),
 the Gaussian 88(TM) system (copyright 1988, Gaussian, Inc.),
 the Gaussian 86(TM) system (copyright 1986, Carnegie Mellon
 University), and the Gaussian 82(TM) system (copyright 1983,
 Carnegie Mellon University). Gaussian is a federally registered
 trademark of Gaussian, Inc.
  
 This software contains proprietary and confidential information,
 including trade secrets, belonging to Gaussian, Inc.
  
 This software is provided under written license and may be
 used, copied, transmitted, or stored only in accord with that
 written license.
  
 The following legend is applicable only to US Government
 contracts under FAR:
  
                    RESTRICTED RIGHTS LEGEND
  
 Use, reproduction and disclosure by the US Government is
 subject to restrictions as set forth in subparagraphs (a)
 and (c) of the Commercial Computer Software - Restricted
 Rights clause in FAR 52.227-19.
  
 Gaussian, Inc.
 340 Quinnipiac St., Bldg. 40, Wallingford CT 06492
  
  
 ---------------------------------------------------------------
 Warning -- This program may not be used in any manner that
 competes with the business of Gaussian, Inc. or will provide
 assistance to any competitor of Gaussian, Inc.  The licensee
 of this program is prohibited from giving any competitor of
 Gaussian, Inc. access to this program.  By using this program,
 the user acknowledges that Gaussian, Inc. is engaged in the
 business of creating and licensing software in the field of
 computational chemistry and represents and warrants to the
 licensee that it is not a competitor of Gaussian, Inc. and that
 it will not use this program in any manner prohibited above.
 ---------------------------------------------------------------
  

 Cite this work as:
 Gaussian 16, Revision C.01,
 M. J. Frisch, G. W. Trucks, H. B. Schlegel, G. E. Scuseria, 
 M. A. Robb, J. R. Cheeseman, G. Scalmani, V. Barone, 
 G. A. Petersson, H. Nakatsuji, X. Li, M. Caricato, A. V. Marenich, 
 J. Bloino, B. G. Janesko, R. Gomperts, B. Mennucci, H. P. Hratchian, 
 J. V. Ortiz, A. F. Izmaylov, J. L. Sonnenberg, D. Williams-Young, 
 F. Ding, F. Lipparini, F. Egidi, J. Goings, B. Peng, A. Petrone, 
 T. Henderson, D. Ranasinghe, V. G. Zakrzewski, J. Gao, N. Rega, 
 G. Zheng, W. Liang, M. Hada, M. Ehara, K. Toyota, R. Fukuda, 
 J. Hasegawa, M. Ishida, T. Nakajima, Y. Honda, O. Kitao, H. Nakai, 
 T. Vreven, K. Throssell, J. A. Montgomery, Jr., J. E. Peralta, 
 F. Ogliaro, M. J. Bearpark, J. J. Heyd, E. N. Brothers, K. N. Kudin, 
 V. N. Staroverov, T. A. Keith, R. Kobayashi, J. Normand, 
 K. Raghavachari, A. P. Rendell, J. C. Burant, S. S. Iyengar, 
 J. Tomasi, M. Cossi, J. M. Millam, M. Klene, C. Adamo, R. Cammi, 
 J. W. Ochterski, R. L. Martin, K. Morokuma, O. Farkas, 
 J. B. Foresman, and D. J. Fox, Gaussian, Inc., Wallingford CT, 2019.
 
 ******************************************
 Gaussian 16:  ES64L-G16RevC.01  3-Jul-2019
                 7-Jun-2022 
 ******************************************
 %mem=8gb
 %nproc=4
 Will use up to    4 processors via shared memory.
 %chk=conf-156.chk
 -------------------------------------------------------------------
 # B3LYP/6-31G* guess=read geom=check nosymm integral(ultrafinegrid)
 -------------------------------------------------------------------
 1/29=2,38=1,172=1/1;
 2/12=2,15=1,40=1/2;
 3/5=1,6=6,7=1,11=2,14=-4,25=1,30=1,74=-5,75=-5,116=-2/1,2,3;
 4/5=1/1;
 5/5=2,38=6/2;
 6/7=2,8=2,9=2,10=2,28=1/1;
 99/5=1,9=1/99;
 ------------------------------------------------------
 Candidate Structure: Conf:156 Charge calc in gas phase
 ------------------------------------------------------
 Structure from the checkpoint file:  "conf-156.chk"
 Charge =  1 Multiplicity = 1
 Redundant internal coordinates found in file.  (old form).
 N,0,-4.0232066549,-1.8127346339,-0.1520606084
 H,0,-4.9241412585,-1.4226295298,-0.4265594407
 H,0,-3.5147017163,-2.0050331161,-1.0153414114
 C,0,-3.2579993025,-0.8267994367,0.6187479902
 H,0,-3.9073405666,-0.4592703865,1.4223158681
 C,0,-2.7857359824,0.3471159126,-0.2512212485
 C,0,-2.0025083867,-1.477811589,1.2429655236
 H,0,-1.4332856764,-1.969128568,0.4419383395
 H,0,-1.3521285298,-0.7082387873,1.6677995308
 O,0,-2.2956617732,0.1458094559,-1.3769237778
 C,0,-2.2415692823,-2.4904165867,2.3756882395
 N,0,-3.3096277036,-3.3112667646,2.2076204793
 H,0,-3.4959341564,-4.0070650402,2.9164374432
 H,0,-3.8945879375,-3.2265045111,1.3807016033
 O,0,-1.48182592,-2.5358930937,3.332752525
 N,0,-2.8733555511,1.5766198689,0.2938380763
 H,0,-3.3315235018,1.671127827,1.1916547809
 C,0,-2.4860742239,2.8175048597,-0.3892838155
 H,0,-2.6729081818,2.649053175,-1.4564847396
 C,0,-0.9715788146,3.1096713235,-0.2166639322
 C,0,-3.3329606585,3.9995212564,0.113807444
 H,0,-3.0793626566,4.1939525744,1.1623537734
 H,0,-3.0066686111,4.8876084382,-0.4361703323
 O,0,-0.5505679197,4.1709798628,0.2304510794
 C,0,-4.8229434184,3.7774931992,-0.0413556739
 C,0,-5.4272388994,3.8169959326,-1.3062496067
 H,0,-4.8234701427,4.0392340227,-2.184118202
 C,0,-5.6280363121,3.515407813,1.0746039771
 H,0,-5.1837985814,3.5131624044,2.068715506
 C,0,-6.7957899445,3.5929086108,-1.4515104374
 H,0,-7.248624833,3.6380314628,-2.4382954734
 C,0,-6.9997111293,3.2902213561,0.9340135205
 H,0,-7.6085242088,3.0990568268,1.8134253717
 C,0,-7.5864974606,3.3255980392,-0.3307787373
 H,0,-8.6540276156,3.158900185,-0.44294251
 N,0,-0.1591875557,2.0906142709,-0.6040682585
 H,0,-0.5545466067,1.2814960681,-1.076988538
 C,0,1.2852398221,2.2227583592,-0.6181393081
 H,0,1.5597929487,3.1447963504,-1.1490369212
 C,0,1.8324628228,1.0325883932,-1.4278792816
 C,0,1.8672708994,2.3177657967,0.8233368594
 H,0,2.0475300415,1.3161978227,1.2330962448
 H,0,1.1122970799,2.7994905748,1.4465413305
 O,0,1.0464065124,0.2172292108,-1.9580525308
 C,0,3.1732255805,3.1046006914,0.8840213254
 N,0,3.3252695415,3.9179192638,1.949853149
 H,0,4.1726014664,4.4666631115,2.0194895533
 H,0,2.5737554923,4.1128148048,2.5945236409
 O,0,4.0534728447,2.9925054137,0.022718268
 N,0,3.1595341421,0.925317967,-1.5311480566
 H,0,3.7341614078,1.6305756956,-1.0381331479
 C,0,3.7491606121,-0.2178282777,-2.2156864169
 H,0,3.1207106315,-1.0842420808,-1.9648779311
 C,0,5.1324195037,-0.5619974223,-1.6615188995
 C,0,3.8014714006,-0.0682399128,-3.7592789518
 H,0,3.0276201799,0.6467945497,-4.059634052
 H,0,4.7600312887,0.3780050765,-4.0340823497
 O,0,5.9970370418,-1.0912357693,-2.3197456554
 C,0,3.6169861765,-1.4117753499,-4.508276889
 H,0,4.3591241807,-1.4997495879,-5.3074030153
 H,0,3.8089061134,-2.2519570631,-3.8320273241
 C,0,2.2414713296,-1.5855472882,-5.16803878
 H,0,2.1310610588,-0.864962518,-5.9908144143
 H,0,2.1786896562,-2.595891901,-5.5919369808
 N,0,1.146352297,-1.396276924,-4.2068062256
 H,0,1.3236367656,-0.8385683293,-3.3589360494
 N,0,-0.5423642973,-2.1320490907,-5.6383949199
 H,0,-1.4797352483,-2.4931875592,-5.7405810622
 H,0,0.1372877213,-2.4556204576,-6.3098944519
 N,0,-1.0617659088,-1.3268158607,-3.5233378219
 H,0,-2.0372490377,-1.2642701476,-3.7768338899
 H,0,-0.8131087272,-0.7886474734,-2.6957590604
 C,0,-0.1416184788,-1.6128366645,-4.4589250027
 O,0,5.2539035285,-0.2578376007,-0.3559941801
 H,0,6.1529795743,-0.5254112254,-0.0823925894
 Recover connectivity data from disk.
                           ----------------------------
                           !    Current Parameters    !
                           ! (Angstroms and Degrees)  !
 --------------------------                            --------------------------
 ! Name  Definition              Value                                          !
 --------------------------------------------------------------------------------
 ! R1    R(1,2)                  1.0194                                         !
 ! R2    R(1,3)                  1.0202                                         !
 ! R3    R(1,4)                  1.4669                                         !
 ! R4    R(4,5)                  1.0966                                         !
 ! R5    R(4,6)                  1.5356                                         !
 ! R6    R(4,7)                  1.5459                                         !
 ! R7    R(6,10)                 1.2441                                         !
 ! R8    R(6,16)                 1.3478                                         !
 ! R9    R(7,8)                  1.0987                                         !
 ! R10   R(7,9)                  1.0935                                         !
 ! R11   R(7,11)                 1.538                                          !
 ! R12   R(11,12)                1.3575                                         !
 ! R13   R(11,15)                1.2228                                         !
 ! R14   R(12,13)                1.0106                                         !
 ! R15   R(12,14)                1.0164                                         !
 ! R16   R(16,17)                1.0124                                         !
 ! R17   R(16,18)                1.4685                                         !
 ! R18   R(18,19)                1.0964                                         !
 ! R19   R(18,20)                1.552                                          !
 ! R20   R(18,21)                1.5387                                         !
 ! R21   R(20,24)                1.2262                                         !
 ! R22   R(20,36)                1.3596                                         !
 ! R23   R(21,22)                1.0962                                         !
 ! R24   R(21,23)                1.0944                                         !
 ! R25   R(21,25)                1.5144                                         !
 ! R26   R(25,26)                1.4024                                         !
 ! R27   R(25,28)                1.4008                                         !
 ! R28   R(26,27)                1.0884                                         !
 ! R29   R(26,30)                1.3944                                         !
 ! R30   R(28,29)                1.0889                                         !
 ! R31   R(28,32)                1.3971                                         !
 ! R32   R(30,31)                1.0867                                         !
 ! R33   R(30,34)                1.3974                                         !
 ! R34   R(32,33)                1.0865                                         !
 ! R35   R(32,34)                1.3947                                         !
 ! R36   R(34,35)                1.0863                                         !
 ! R37   R(36,37)                1.0172                                         !
 ! R38   R(36,38)                1.4505                                         !
 ! R39   R(38,39)                1.0988                                         !
 ! R40   R(38,40)                1.54                                           !
 ! R41   R(38,41)                1.5574                                         !
 ! R42   R(40,44)                1.2505                                         !
 ! R43   R(40,50)                1.3354                                         !
 ! R44   R(41,42)                1.0971                                         !
 ! R45   R(41,43)                1.0911                                         !
 ! R46   R(41,45)                1.5259                                         !
 ! R47   R(45,46)                1.3493                                         !
 ! R48   R(45,49)                1.2366                                         !
 ! R49   R(46,47)                1.0119                                         !
 ! R50   R(46,48)                1.0091                                         !
 ! R51   R(50,51)                1.0347                                         !
 ! R52   R(50,52)                1.4571                                         !
 ! R53   R(52,53)                1.0993                                         !
 ! R54   R(52,54)                1.5294                                         !
 ! R55   R(52,55)                1.5517                                         !
 ! R56   R(54,58)                1.2087                                         !
 ! R57   R(54,74)                1.346                                          !
 ! R58   R(55,56)                1.0956                                         !
 ! R59   R(55,57)                1.0925                                         !
 ! R60   R(55,59)                1.5492                                         !
 ! R61   R(59,60)                1.0941                                         !
 ! R62   R(59,61)                1.0955                                         !
 ! R63   R(59,62)                1.5354                                         !
 ! R64   R(62,63)                1.0993                                         !
 ! R65   R(62,64)                1.0975                                         !
 ! R66   R(62,65)                1.4694                                         !
 ! R67   R(65,66)                1.0302                                         !
 ! R68   R(65,73)                1.3302                                         !
 ! R69   R(67,68)                1.0097                                         !
 ! R70   R(67,69)                1.0087                                         !
 ! R71   R(67,73)                1.3496                                         !
 ! R72   R(70,71)                1.0098                                         !
 ! R73   R(70,72)                1.018                                          !
 ! R74   R(70,73)                1.3431                                         !
 ! R75   R(74,75)                0.9771                                         !
 ! A1    A(2,1,3)              106.5458                                         !
 ! A2    A(2,1,4)              110.2008                                         !
 ! A3    A(3,1,4)              108.1392                                         !
 ! A4    A(1,4,5)              107.5442                                         !
 ! A5    A(1,4,6)              112.1209                                         !
 ! A6    A(1,4,7)              110.6584                                         !
 ! A7    A(5,4,6)              109.9415                                         !
 ! A8    A(5,4,7)              109.0366                                         !
 ! A9    A(6,4,7)              107.5139                                         !
 ! A10   A(4,6,10)             120.6678                                         !
 ! A11   A(4,6,16)             116.6341                                         !
 ! A12   A(10,6,16)            122.6246                                         !
 ! A13   A(4,7,8)              108.3431                                         !
 ! A14   A(4,7,9)              110.0932                                         !
 ! A15   A(4,7,11)             116.6416                                         !
 ! A16   A(8,7,9)              106.8479                                         !
 ! A17   A(8,7,11)             108.8484                                         !
 ! A18   A(9,7,11)             105.6444                                         !
 ! A19   A(7,11,12)            115.4178                                         !
 ! A20   A(7,11,15)            120.2871                                         !
 ! A21   A(12,11,15)           124.2811                                         !
 ! A22   A(11,12,13)           118.3296                                         !
 ! A23   A(11,12,14)           120.2047                                         !
 ! A24   A(13,12,14)           121.4622                                         !
 ! A25   A(6,16,17)            118.2445                                         !
 ! A26   A(6,16,18)            124.4435                                         !
 ! A27   A(17,16,18)           116.9373                                         !
 ! A28   A(16,18,19)           106.142                                          !
 ! A29   A(16,18,20)           111.3878                                         !
 ! A30   A(16,18,21)           110.6029                                         !
 ! A31   A(19,18,20)           107.665                                          !
 ! A32   A(19,18,21)           110.028                                          !
 ! A33   A(20,18,21)           110.8614                                         !
 ! A34   A(18,20,24)           122.5836                                         !
 ! A35   A(18,20,36)           114.2221                                         !
 ! A36   A(24,20,36)           123.1942                                         !
 ! A37   A(18,21,22)           108.7651                                         !
 ! A38   A(18,21,23)           107.1566                                         !
 ! A39   A(18,21,25)           113.2909                                         !
 ! A40   A(22,21,23)           105.5336                                         !
 ! A41   A(22,21,25)           110.5873                                         !
 ! A42   A(23,21,25)           111.1513                                         !
 ! A43   A(21,25,26)           120.8131                                         !
 ! A44   A(21,25,28)           120.7489                                         !
 ! A45   A(26,25,28)           118.4353                                         !
 ! A46   A(25,26,27)           119.6179                                         !
 ! A47   A(25,26,30)           120.8215                                         !
 ! A48   A(27,26,30)           119.5549                                         !
 ! A49   A(25,28,29)           119.5538                                         !
 ! A50   A(25,28,32)           120.9479                                         !
 ! A51   A(29,28,32)           119.4782                                         !
 ! A52   A(26,30,31)           119.7974                                         !
 ! A53   A(26,30,34)           120.1695                                         !
 ! A54   A(31,30,34)           120.0293                                         !
 ! A55   A(28,32,33)           119.8036                                         !
 ! A56   A(28,32,34)           120.0144                                         !
 ! A57   A(33,32,34)           120.1783                                         !
 ! A58   A(30,34,32)           119.6097                                         !
 ! A59   A(30,34,35)           120.1737                                         !
 ! A60   A(32,34,35)           120.212                                          !
 ! A61   A(20,36,37)           119.7652                                         !
 ! A62   A(20,36,38)           121.9708                                         !
 ! A63   A(37,36,38)           117.0654                                         !
 ! A64   A(36,38,39)           109.2654                                         !
 ! A65   A(36,38,40)           106.7704                                         !
 ! A66   A(36,38,41)           111.6364                                         !
 ! A67   A(39,38,40)           107.7985                                         !
 ! A68   A(39,38,41)           107.6147                                         !
 ! A69   A(40,38,41)           113.6408                                         !
 ! A70   A(38,40,44)           120.2294                                         !
 ! A71   A(38,40,50)           117.1204                                         !
 ! A72   A(44,40,50)           122.65                                           !
 ! A73   A(38,41,42)           110.5735                                         !
 ! A74   A(38,41,43)           107.2774                                         !
 ! A75   A(38,41,45)           112.837                                          !
 ! A76   A(42,41,43)           107.6644                                         !
 ! A77   A(42,41,45)           108.3785                                         !
 ! A78   A(43,41,45)           109.9889                                         !
 ! A79   A(41,45,46)           116.0199                                         !
 ! A80   A(41,45,49)           122.3288                                         !
 ! A81   A(46,45,49)           121.6414                                         !
 ! A82   A(45,46,47)           118.3981                                         !
 ! A83   A(45,46,48)           122.488                                          !
 ! A84   A(47,46,48)           118.3528                                         !
 ! A85   A(40,50,51)           117.4055                                         !
 ! A86   A(40,50,52)           120.0991                                         !
 ! A87   A(51,50,52)           122.267                                          !
 ! A88   A(50,52,53)           106.2489                                         !
 ! A89   A(50,52,54)           111.8594                                         !
 ! A90   A(50,52,55)           113.9136                                         !
 ! A91   A(53,52,54)           104.8935                                         !
 ! A92   A(53,52,55)           108.7962                                         !
 ! A93   A(54,52,55)           110.5889                                         !
 ! A94   A(52,54,58)           123.244                                          !
 ! A95   A(52,54,74)           112.4725                                         !
 ! A96   A(58,54,74)           124.2354                                         !
 ! A97   A(52,55,56)           108.1689                                         !
 ! A98   A(52,55,57)           108.6137                                         !
 ! A99   A(52,55,59)           113.1612                                         !
 ! A100  A(56,55,57)           106.5112                                         !
 ! A101  A(56,55,59)           110.4469                                         !
 ! A102  A(57,55,59)           109.701                                          !
 ! A103  A(55,59,60)           110.003                                          !
 ! A104  A(55,59,61)           110.2317                                         !
 ! A105  A(55,59,62)           114.3664                                         !
 ! A106  A(60,59,61)           105.6864                                         !
 ! A107  A(60,59,62)           106.5417                                         !
 ! A108  A(61,59,62)           109.5971                                         !
 ! A109  A(59,62,63)           109.719                                          !
 ! A110  A(59,62,64)           108.7482                                         !
 ! A111  A(59,62,65)           111.8391                                         !
 ! A112  A(63,62,64)           107.9767                                         !
 ! A113  A(63,62,65)           109.2895                                         !
 ! A114  A(64,62,65)           109.1854                                         !
 ! A115  A(62,65,66)           118.6765                                         !
 ! A116  A(62,65,73)           125.2181                                         !
 ! A117  A(66,65,73)           114.2521                                         !
 ! A118  A(68,67,69)           116.3208                                         !
 ! A119  A(68,67,73)           120.1137                                         !
 ! A120  A(69,67,73)           120.3395                                         !
 ! A121  A(71,70,72)           114.0342                                         !
 ! A122  A(71,70,73)           120.0091                                         !
 ! A123  A(72,70,73)           120.7664                                         !
 ! A124  A(65,73,67)           121.0518                                         !
 ! A125  A(65,73,70)           119.7803                                         !
 ! A126  A(67,73,70)           119.1634                                         !
 ! A127  A(54,74,75)           107.0229                                         !
 ! D1    D(2,1,4,5)             51.3922                                         !
 ! D2    D(2,1,4,6)            -69.5805                                         !
 ! D3    D(2,1,4,7)            170.391                                          !
 ! D4    D(3,1,4,5)            167.4871                                         !
 ! D5    D(3,1,4,6)             46.5144                                         !
 ! D6    D(3,1,4,7)            -73.5142                                         !
 ! D7    D(1,4,6,10)           -44.2481                                         !
 ! D8    D(1,4,6,16)           138.7871                                         !
 ! D9    D(5,4,6,10)          -163.8272                                         !
 ! D10   D(5,4,6,16)            19.2079                                         !
 ! D11   D(7,4,6,10)            77.5962                                         !
 ! D12   D(7,4,6,16)           -99.3687                                         !
 ! D13   D(1,4,7,8)             53.8082                                         !
 ! D14   D(1,4,7,9)            170.3227                                         !
 ! D15   D(1,4,7,11)           -69.3613                                         !
 ! D16   D(5,4,7,8)            171.9001                                         !
 ! D17   D(5,4,7,9)            -71.5854                                         !
 ! D18   D(5,4,7,11)            48.7306                                         !
 ! D19   D(6,4,7,8)            -68.9422                                         !
 ! D20   D(6,4,7,9)             47.5722                                         !
 ! D21   D(6,4,7,11)           167.8883                                         !
 ! D22   D(4,6,16,17)           -6.4971                                         !
 ! D23   D(4,6,16,18)         -179.2405                                         !
 ! D24   D(10,6,16,17)         176.6026                                         !
 ! D25   D(10,6,16,18)           3.8593                                         !
 ! D26   D(4,7,11,12)           39.0669                                         !
 ! D27   D(4,7,11,15)         -142.2359                                         !
 ! D28   D(8,7,11,12)          -83.8412                                         !
 ! D29   D(8,7,11,15)           94.856                                          !
 ! D30   D(9,7,11,12)          161.7255                                         !
 ! D31   D(9,7,11,15)          -19.5773                                         !
 ! D32   D(7,11,12,13)         178.7258                                         !
 ! D33   D(7,11,12,14)          -0.5996                                         !
 ! D34   D(15,11,12,13)          0.0873                                         !
 ! D35   D(15,11,12,14)       -179.2381                                         !
 ! D36   D(6,16,18,19)          30.8692                                         !
 ! D37   D(6,16,18,20)         -86.043                                          !
 ! D38   D(6,16,18,21)         150.1902                                         !
 ! D39   D(17,16,18,19)       -141.9606                                         !
 ! D40   D(17,16,18,20)        101.1271                                         !
 ! D41   D(17,16,18,21)        -22.6396                                         !
 ! D42   D(16,18,20,24)       -125.5283                                         !
 ! D43   D(16,18,20,36)         54.5222                                         !
 ! D44   D(19,18,20,24)        118.49                                           !
 ! D45   D(19,18,20,36)        -61.4596                                         !
 ! D46   D(21,18,20,24)         -1.9083                                         !
 ! D47   D(21,18,20,36)        178.1421                                         !
 ! D48   D(16,18,21,22)         66.9309                                         !
 ! D49   D(16,18,21,23)       -179.4348                                         !
 ! D50   D(16,18,21,25)        -56.4758                                         !
 ! D51   D(19,18,21,22)       -176.1219                                         !
 ! D52   D(19,18,21,23)        -62.4876                                         !
 ! D53   D(19,18,21,25)         60.4715                                         !
 ! D54   D(20,18,21,22)        -57.1383                                         !
 ! D55   D(20,18,21,23)         56.496                                          !
 ! D56   D(20,18,21,25)        179.455                                          !
 ! D57   D(18,20,36,37)          7.7501                                         !
 ! D58   D(18,20,36,38)        174.8704                                         !
 ! D59   D(24,20,36,37)       -172.1991                                         !
 ! D60   D(24,20,36,38)         -5.0788                                         !
 ! D61   D(18,21,25,26)        -72.3914                                         !
 ! D62   D(18,21,25,28)        107.0105                                         !
 ! D63   D(22,21,25,26)        165.2091                                         !
 ! D64   D(22,21,25,28)        -15.389                                          !
 ! D65   D(23,21,25,26)         48.3328                                         !
 ! D66   D(23,21,25,28)       -132.2653                                         !
 ! D67   D(21,25,26,27)         -1.8359                                         !
 ! D68   D(21,25,26,30)        179.0392                                         !
 ! D69   D(28,25,26,27)        178.7486                                         !
 ! D70   D(28,25,26,30)         -0.3763                                         !
 ! D71   D(21,25,28,29)          2.6006                                         !
 ! D72   D(21,25,28,32)       -179.0378                                         !
 ! D73   D(26,25,28,29)       -177.9835                                         !
 ! D74   D(26,25,28,32)          0.3781                                         !
 ! D75   D(25,26,30,31)        179.344                                          !
 ! D76   D(25,26,30,34)          0.0492                                         !
 ! D77   D(27,26,30,31)          0.2185                                         !
 ! D78   D(27,26,30,34)       -179.0762                                         !
 ! D79   D(25,28,32,33)       -179.3527                                         !
 ! D80   D(25,28,32,34)         -0.0523                                         !
 ! D81   D(29,28,32,33)         -0.9898                                         !
 ! D82   D(29,28,32,34)        178.3106                                         !
 ! D83   D(26,30,34,32)          0.2838                                         !
 ! D84   D(26,30,34,35)        179.5085                                         !
 ! D85   D(31,30,34,32)       -179.0093                                         !
 ! D86   D(31,30,34,35)          0.2154                                         !
 ! D87   D(28,32,34,30)         -0.282                                          !
 ! D88   D(28,32,34,35)       -179.5064                                         !
 ! D89   D(33,32,34,30)        179.0157                                         !
 ! D90   D(33,32,34,35)         -0.2087                                         !
 ! D91   D(20,36,38,39)        -49.8202                                         !
 ! D92   D(20,36,38,40)       -166.1486                                         !
 ! D93   D(20,36,38,41)         69.0945                                         !
 ! D94   D(37,36,38,39)        117.6297                                         !
 ! D95   D(37,36,38,40)          1.3013                                         !
 ! D96   D(37,36,38,41)       -123.4556                                         !
 ! D97   D(36,38,40,44)          2.4718                                         !
 ! D98   D(36,38,40,50)       -177.6584                                         !
 ! D99   D(39,38,40,44)       -114.8295                                         !
 ! D100  D(39,38,40,50)         65.0403                                         !
 ! D101  D(41,38,40,44)        125.9959                                         !
 ! D102  D(41,38,40,50)        -54.1343                                         !
 ! D103  D(36,38,41,42)         86.5254                                         !
 ! D104  D(36,38,41,43)        -30.615                                          !
 ! D105  D(36,38,41,45)       -151.9086                                         !
 ! D106  D(39,38,41,42)       -153.5833                                         !
 ! D107  D(39,38,41,43)         89.2763                                         !
 ! D108  D(39,38,41,45)        -32.0172                                         !
 ! D109  D(40,38,41,42)        -34.3038                                         !
 ! D110  D(40,38,41,43)       -151.4442                                         !
 ! D111  D(40,38,41,45)         87.2623                                         !
 ! D112  D(38,40,50,51)          1.7878                                         !
 ! D113  D(38,40,50,52)        176.4206                                         !
 ! D114  D(44,40,50,51)       -178.3458                                         !
 ! D115  D(44,40,50,52)         -3.713                                          !
 ! D116  D(38,41,45,46)        140.5721                                         !
 ! D117  D(38,41,45,49)        -40.5528                                         !
 ! D118  D(42,41,45,46)        -96.6283                                         !
 ! D119  D(42,41,45,49)         82.2468                                         !
 ! D120  D(43,41,45,46)         20.8297                                         !
 ! D121  D(43,41,45,49)       -160.2952                                         !
 ! D122  D(41,45,46,47)       -179.1534                                         !
 ! D123  D(41,45,46,48)         -9.3188                                         !
 ! D124  D(49,45,46,47)          1.9631                                         !
 ! D125  D(49,45,46,48)        171.7977                                         !
 ! D126  D(40,50,52,53)        -37.0673                                         !
 ! D127  D(40,50,52,54)       -150.9822                                         !
 ! D128  D(40,50,52,55)         82.6922                                         !
 ! D129  D(51,50,52,53)        137.2967                                         !
 ! D130  D(51,50,52,54)         23.3819                                         !
 ! D131  D(51,50,52,55)       -102.9437                                         !
 ! D132  D(50,52,54,58)       -151.903                                          !
 ! D133  D(50,52,54,74)         30.5239                                         !
 ! D134  D(53,52,54,58)         93.3468                                         !
 ! D135  D(53,52,54,74)        -84.2262                                         !
 ! D136  D(55,52,54,58)        -23.7863                                         !
 ! D137  D(55,52,54,74)        158.6406                                         !
 ! D138  D(50,52,55,56)        -23.6771                                         !
 ! D139  D(50,52,55,57)         91.5469                                         !
 ! D140  D(50,52,55,59)       -146.3809                                         !
 ! D141  D(53,52,55,56)         94.6334                                         !
 ! D142  D(53,52,55,57)       -150.1426                                         !
 ! D143  D(53,52,55,59)        -28.0704                                         !
 ! D144  D(54,52,55,56)       -150.6657                                         !
 ! D145  D(54,52,55,57)        -35.4417                                         !
 ! D146  D(54,52,55,59)         86.6305                                         !
 ! D147  D(52,54,74,75)        178.8321                                         !
 ! D148  D(58,54,74,75)          1.2872                                         !
 ! D149  D(52,55,59,60)       -134.648                                          !
 ! D150  D(52,55,59,61)        -18.4921                                         !
 ! D151  D(52,55,59,62)        105.5178                                         !
 ! D152  D(56,55,59,60)        103.9222                                         !
 ! D153  D(56,55,59,61)       -139.922                                          !
 ! D154  D(56,55,59,62)        -15.9121                                         !
 ! D155  D(57,55,59,60)        -13.1859                                         !
 ! D156  D(57,55,59,61)        102.97                                           !
 ! D157  D(57,55,59,62)       -133.0201                                         !
 ! D158  D(55,59,62,63)         67.0867                                         !
 ! D159  D(55,59,62,64)       -175.0163                                         !
 ! D160  D(55,59,62,65)        -54.3593                                         !
 ! D161  D(60,59,62,63)        -54.6656                                         !
 ! D162  D(60,59,62,64)         63.2313                                         !
 ! D163  D(60,59,62,65)       -176.1116                                         !
 ! D164  D(61,59,62,63)       -168.5649                                         !
 ! D165  D(61,59,62,64)        -50.6679                                         !
 ! D166  D(61,59,62,65)         69.9891                                         !
 ! D167  D(59,62,65,66)         23.3684                                         !
 ! D168  D(59,62,65,73)       -173.0625                                         !
 ! D169  D(63,62,65,66)        -98.3251                                         !
 ! D170  D(63,62,65,73)         65.244                                          !
 ! D171  D(64,62,65,66)        143.7707                                         !
 ! D172  D(64,62,65,73)        -52.6602                                         !
 ! D173  D(62,65,73,67)          4.8042                                         !
 ! D174  D(62,65,73,70)       -175.9718                                         !
 ! D175  D(66,65,73,67)        169.0098                                         !
 ! D176  D(66,65,73,70)        -11.7662                                         !
 ! D177  D(68,67,73,65)        165.5172                                         !
 ! D178  D(68,67,73,70)        -13.7116                                         !
 ! D179  D(69,67,73,65)          6.5493                                         !
 ! D180  D(69,67,73,70)       -172.6794                                         !
 ! D181  D(71,70,73,65)        164.5556                                         !
 ! D182  D(71,70,73,67)        -16.2057                                         !
 ! D183  D(72,70,73,65)         11.5306                                         !
 ! D184  D(72,70,73,67)       -169.2307                                         !
 --------------------------------------------------------------------------------
 Symmetry turned off by external request.
 Stoichiometry    C23H36N9O7(1+)
 Framework group  C1[X(C23H36N9O7)]
 Deg. of freedom   219
 Full point group                 C1      NOp   1
                          Input orientation:                          
 ---------------------------------------------------------------------
 Center     Atomic      Atomic             Coordinates (Angstroms)
 Number     Number       Type             X           Y           Z
 ---------------------------------------------------------------------
      1          7           0       -4.023207   -1.812735   -0.152061
      2          1           0       -4.924141   -1.422630   -0.426559
      3          1           0       -3.514702   -2.005033   -1.015341
      4          6           0       -3.257999   -0.826799    0.618748
      5          1           0       -3.907341   -0.459270    1.422316
      6          6           0       -2.785736    0.347116   -0.251221
      7          6           0       -2.002508   -1.477812    1.242966
      8          1           0       -1.433286   -1.969129    0.441938
      9          1           0       -1.352129   -0.708239    1.667800
     10          8           0       -2.295662    0.145809   -1.376924
     11          6           0       -2.241569   -2.490417    2.375688
     12          7           0       -3.309628   -3.311267    2.207620
     13          1           0       -3.495934   -4.007065    2.916437
     14          1           0       -3.894588   -3.226505    1.380702
     15          8           0       -1.481826   -2.535893    3.332753
     16          7           0       -2.873356    1.576620    0.293838
     17          1           0       -3.331524    1.671128    1.191655
     18          6           0       -2.486074    2.817505   -0.389284
     19          1           0       -2.672908    2.649053   -1.456485
     20          6           0       -0.971579    3.109671   -0.216664
     21          6           0       -3.332961    3.999521    0.113807
     22          1           0       -3.079363    4.193953    1.162354
     23          1           0       -3.006669    4.887608   -0.436170
     24          8           0       -0.550568    4.170980    0.230451
     25          6           0       -4.822943    3.777493   -0.041356
     26          6           0       -5.427239    3.816996   -1.306250
     27          1           0       -4.823470    4.039234   -2.184118
     28          6           0       -5.628036    3.515408    1.074604
     29          1           0       -5.183799    3.513162    2.068716
     30          6           0       -6.795790    3.592909   -1.451510
     31          1           0       -7.248625    3.638031   -2.438295
     32          6           0       -6.999711    3.290221    0.934014
     33          1           0       -7.608524    3.099057    1.813425
     34          6           0       -7.586497    3.325598   -0.330779
     35          1           0       -8.654028    3.158900   -0.442943
     36          7           0       -0.159188    2.090614   -0.604068
     37          1           0       -0.554547    1.281496   -1.076989
     38          6           0        1.285240    2.222758   -0.618139
     39          1           0        1.559793    3.144796   -1.149037
     40          6           0        1.832463    1.032588   -1.427879
     41          6           0        1.867271    2.317766    0.823337
     42          1           0        2.047530    1.316198    1.233096
     43          1           0        1.112297    2.799491    1.446541
     44          8           0        1.046407    0.217229   -1.958053
     45          6           0        3.173226    3.104601    0.884021
     46          7           0        3.325270    3.917919    1.949853
     47          1           0        4.172601    4.466663    2.019490
     48          1           0        2.573755    4.112815    2.594524
     49          8           0        4.053473    2.992505    0.022718
     50          7           0        3.159534    0.925318   -1.531148
     51          1           0        3.734161    1.630576   -1.038133
     52          6           0        3.749161   -0.217828   -2.215686
     53          1           0        3.120711   -1.084242   -1.964878
     54          6           0        5.132420   -0.561997   -1.661519
     55          6           0        3.801471   -0.068240   -3.759279
     56          1           0        3.027620    0.646795   -4.059634
     57          1           0        4.760031    0.378005   -4.034082
     58          8           0        5.997037   -1.091236   -2.319746
     59          6           0        3.616986   -1.411775   -4.508277
     60          1           0        4.359124   -1.499750   -5.307403
     61          1           0        3.808906   -2.251957   -3.832027
     62          6           0        2.241471   -1.585547   -5.168039
     63          1           0        2.131061   -0.864963   -5.990814
     64          1           0        2.178690   -2.595892   -5.591937
     65          7           0        1.146352   -1.396277   -4.206806
     66          1           0        1.323637   -0.838568   -3.358936
     67          7           0       -0.542364   -2.132049   -5.638395
     68          1           0       -1.479735   -2.493188   -5.740581
     69          1           0        0.137288   -2.455620   -6.309894
     70          7           0       -1.061766   -1.326816   -3.523338
     71          1           0       -2.037249   -1.264270   -3.776834
     72          1           0       -0.813109   -0.788647   -2.695759
     73          6           0       -0.141618   -1.612837   -4.458925
     74          8           0        5.253904   -0.257838   -0.355994
     75          1           0        6.152980   -0.525411   -0.082393
 ---------------------------------------------------------------------
 Rotational constants (GHZ):           0.1059098           0.0518595           0.0470856
 Standard basis: 6-31G(d) (6D, 7F)
   657 basis functions,  1236 primitive gaussians,   657 cartesian basis functions
   146 alpha electrons      146 beta electrons
       nuclear repulsion energy      4661.9820714182 Hartrees.
 NAtoms=   75 NActive=   75 NUniq=   75 SFac= 1.00D+00 NAtFMM=   60 NAOKFM=T Big=T
 Integral buffers will be    131072 words long.
 Raffenetti 2 integral format.
 Two-electron integral symmetry is turned off.
 One-electron integrals computed using PRISM.
 NBasis=   657 RedAO= T EigKep=  4.67D-04  NBF=   657
 NBsUse=   657 1.00D-06 EigRej= -1.00D+00 NBFU=   657
 Initial guess from the checkpoint file:  "conf-156.chk"
 B after Tr=     0.000000    0.000000    0.000000
         Rot=    1.000000    0.000000    0.000000    0.000000 Ang=   0.00 deg.
 Requested convergence on RMS density matrix=1.00D-08 within 128 cycles.
 Requested convergence on MAX density matrix=1.00D-06.
 Requested convergence on             energy=1.00D-06.
 No special actions if energy rises.
 SCF Done:  E(RB3LYP) =  -1917.40075496     A.U. after    1 cycles
            NFock=  1  Conv=0.32D-08     -V/T= 2.0094

 **********************************************************************

            Population analysis using the SCF Density.

 **********************************************************************

 Alpha  occ. eigenvalues --  -19.29494 -19.24737 -19.23785 -19.23017 -19.21936
 Alpha  occ. eigenvalues --  -19.20820 -19.16901 -14.51322 -14.49562 -14.49342
 Alpha  occ. eigenvalues --  -14.47302 -14.46678 -14.45615 -14.44734 -14.42623
 Alpha  occ. eigenvalues --  -14.40936 -10.46699 -10.42133 -10.40876 -10.39439
 Alpha  occ. eigenvalues --  -10.39433 -10.37858 -10.35454 -10.35102 -10.34921
 Alpha  occ. eigenvalues --  -10.34514 -10.33225 -10.32935 -10.30282 -10.29943
 Alpha  occ. eigenvalues --  -10.29792 -10.27887 -10.27726 -10.27395 -10.26415
 Alpha  occ. eigenvalues --  -10.26337 -10.26260 -10.26226 -10.26023  -1.20485
 Alpha  occ. eigenvalues --   -1.16073  -1.15171  -1.14428  -1.13485  -1.12591
 Alpha  occ. eigenvalues --   -1.11535  -1.08814  -1.04598  -1.03914  -1.03514
 Alpha  occ. eigenvalues --   -1.03226  -1.01652  -1.00392  -0.99633  -0.95771
 Alpha  occ. eigenvalues --   -0.93015  -0.91560  -0.89058  -0.87656  -0.85957
 Alpha  occ. eigenvalues --   -0.84730  -0.81902  -0.81646  -0.80612  -0.78433
 Alpha  occ. eigenvalues --   -0.77542  -0.75555  -0.73544  -0.73049  -0.72283
 Alpha  occ. eigenvalues --   -0.70141  -0.69916  -0.69422  -0.68775  -0.68258
 Alpha  occ. eigenvalues --   -0.67650  -0.66889  -0.65807  -0.65157  -0.65037
 Alpha  occ. eigenvalues --   -0.64075  -0.63592  -0.62918  -0.62404  -0.61466
 Alpha  occ. eigenvalues --   -0.60715  -0.59996  -0.59811  -0.59109  -0.58751
 Alpha  occ. eigenvalues --   -0.58411  -0.57947  -0.57558  -0.57424  -0.56860
 Alpha  occ. eigenvalues --   -0.56005  -0.55453  -0.54754  -0.54458  -0.53685
 Alpha  occ. eigenvalues --   -0.53466  -0.53393  -0.52827  -0.52732  -0.52459
 Alpha  occ. eigenvalues --   -0.52106  -0.51591  -0.50975  -0.49971  -0.49430
 Alpha  occ. eigenvalues --   -0.49234  -0.49194  -0.48940  -0.48602  -0.48128
 Alpha  occ. eigenvalues --   -0.47838  -0.47577  -0.47060  -0.46587  -0.46141
 Alpha  occ. eigenvalues --   -0.45966  -0.45707  -0.45343  -0.44823  -0.44490
 Alpha  occ. eigenvalues --   -0.43003  -0.42926  -0.41958  -0.41481  -0.41405
 Alpha  occ. eigenvalues --   -0.41256  -0.39330  -0.38916  -0.38371  -0.38078
 Alpha  occ. eigenvalues --   -0.37772  -0.37073  -0.36639  -0.36014  -0.34895
 Alpha  occ. eigenvalues --   -0.34608  -0.33605  -0.32358  -0.32343  -0.31674
 Alpha  occ. eigenvalues --   -0.30788
 Alpha virt. eigenvalues --   -0.10826  -0.09887  -0.09482  -0.09072  -0.07762
 Alpha virt. eigenvalues --   -0.07580  -0.07476  -0.06823  -0.06690  -0.03960
 Alpha virt. eigenvalues --   -0.03139  -0.01998  -0.01600  -0.01336  -0.00982
 Alpha virt. eigenvalues --   -0.00297   0.00690   0.00742   0.01279   0.01610
 Alpha virt. eigenvalues --    0.01913   0.02672   0.03199   0.03624   0.03810
 Alpha virt. eigenvalues --    0.04413   0.04564   0.04867   0.05311   0.05507
 Alpha virt. eigenvalues --    0.05984   0.06188   0.06517   0.07165   0.07481
 Alpha virt. eigenvalues --    0.07786   0.08083   0.08351   0.08793   0.09065
 Alpha virt. eigenvalues --    0.09543   0.09923   0.10034   0.10676   0.11040
 Alpha virt. eigenvalues --    0.11536   0.11702   0.12146   0.12467   0.12513
 Alpha virt. eigenvalues --    0.13124   0.13617   0.14134   0.14742   0.15442
 Alpha virt. eigenvalues --    0.15762   0.15948   0.16570   0.16825   0.17301
 Alpha virt. eigenvalues --    0.18027   0.18507   0.18819   0.19315   0.20816
 Alpha virt. eigenvalues --    0.22825   0.23013   0.23454   0.24424   0.24716
 Alpha virt. eigenvalues --    0.25670   0.25762   0.26660   0.27108   0.27152
 Alpha virt. eigenvalues --    0.27501   0.28263   0.29195   0.29991   0.32545
 Alpha virt. eigenvalues --    0.33446   0.34401   0.35148   0.38046   0.38612
 Alpha virt. eigenvalues --    0.39243   0.40530   0.41169   0.41387   0.42569
 Alpha virt. eigenvalues --    0.42652   0.43203   0.43519   0.43921   0.44239
 Alpha virt. eigenvalues --    0.44735   0.44996   0.45291   0.45954   0.46140
 Alpha virt. eigenvalues --    0.46382   0.46593   0.47330   0.47542   0.47939
 Alpha virt. eigenvalues --    0.48590   0.48947   0.49979   0.50458   0.51020
 Alpha virt. eigenvalues --    0.51489   0.51647   0.51747   0.52043   0.52173
 Alpha virt. eigenvalues --    0.52342   0.52723   0.52956   0.53168   0.53495
 Alpha virt. eigenvalues --    0.54183   0.54489   0.54584   0.55024   0.55169
 Alpha virt. eigenvalues --    0.55822   0.56225   0.56819   0.57309   0.57765
 Alpha virt. eigenvalues --    0.57817   0.57982   0.58541   0.58712   0.59690
 Alpha virt. eigenvalues --    0.60198   0.60574   0.60981   0.61688   0.62177
 Alpha virt. eigenvalues --    0.62269   0.62930   0.63218   0.64110   0.64346
 Alpha virt. eigenvalues --    0.64812   0.65774   0.65801   0.66127   0.67102
 Alpha virt. eigenvalues --    0.67736   0.67956   0.68596   0.69414   0.70527
 Alpha virt. eigenvalues --    0.70978   0.71467   0.71982   0.72148   0.72661
 Alpha virt. eigenvalues --    0.72963   0.73351   0.73869   0.74264   0.74421
 Alpha virt. eigenvalues --    0.74716   0.75105   0.75284   0.75534   0.76181
 Alpha virt. eigenvalues --    0.76480   0.76576   0.76785   0.77312   0.77591
 Alpha virt. eigenvalues --    0.77665   0.78486   0.79044   0.79436   0.79754
 Alpha virt. eigenvalues --    0.80232   0.80314   0.80583   0.80933   0.81066
 Alpha virt. eigenvalues --    0.81686   0.81744   0.82361   0.83651   0.84119
 Alpha virt. eigenvalues --    0.84320   0.84362   0.85004   0.85439   0.85633
 Alpha virt. eigenvalues --    0.86209   0.86679   0.86913   0.86944   0.87675
 Alpha virt. eigenvalues --    0.87929   0.88608   0.88690   0.89228   0.90411
 Alpha virt. eigenvalues --    0.90959   0.91784   0.92406   0.92681   0.93061
 Alpha virt. eigenvalues --    0.93614   0.93980   0.94672   0.95013   0.95121
 Alpha virt. eigenvalues --    0.95675   0.96958   0.97392   0.98606   1.00019
 Alpha virt. eigenvalues --    1.00205   1.01339   1.01700   1.02091   1.03948
 Alpha virt. eigenvalues --    1.04306   1.04710   1.05404   1.05550   1.07330
 Alpha virt. eigenvalues --    1.07599   1.08585   1.09548   1.09776   1.11097
 Alpha virt. eigenvalues --    1.12241   1.12540   1.13052   1.13601   1.14160
 Alpha virt. eigenvalues --    1.15363   1.16167   1.17832   1.18579   1.18691
 Alpha virt. eigenvalues --    1.19689   1.20305   1.21002   1.21537   1.21783
 Alpha virt. eigenvalues --    1.23436   1.24568   1.25246   1.26026   1.27527
 Alpha virt. eigenvalues --    1.28023   1.28582   1.29485   1.31002   1.31676
 Alpha virt. eigenvalues --    1.32094   1.32964   1.33602   1.33860   1.35124
 Alpha virt. eigenvalues --    1.35535   1.36370   1.36801   1.37914   1.38119
 Alpha virt. eigenvalues --    1.39511   1.39908   1.41138   1.41657   1.42311
 Alpha virt. eigenvalues --    1.42520   1.43488   1.43706   1.44368   1.45636
 Alpha virt. eigenvalues --    1.45792   1.46963   1.48610   1.48982   1.49801
 Alpha virt. eigenvalues --    1.51578   1.52544   1.53204   1.54809   1.55061
 Alpha virt. eigenvalues --    1.56212   1.56888   1.57260   1.57706   1.57982
 Alpha virt. eigenvalues --    1.58857   1.59669   1.60878   1.61800   1.62544
 Alpha virt. eigenvalues --    1.63883   1.64002   1.64586   1.65599   1.65696
 Alpha virt. eigenvalues --    1.66245   1.67364   1.67896   1.68335   1.69261
 Alpha virt. eigenvalues --    1.70253   1.70790   1.71368   1.71545   1.71910
 Alpha virt. eigenvalues --    1.72303   1.72846   1.73664   1.74371   1.74641
 Alpha virt. eigenvalues --    1.75037   1.75633   1.75919   1.76345   1.76987
 Alpha virt. eigenvalues --    1.77443   1.78375   1.78868   1.80136   1.80625
 Alpha virt. eigenvalues --    1.81791   1.81897   1.82104   1.82371   1.82679
 Alpha virt. eigenvalues --    1.83378   1.84006   1.84643   1.85362   1.85943
 Alpha virt. eigenvalues --    1.86589   1.86971   1.87197   1.87729   1.88369
 Alpha virt. eigenvalues --    1.89410   1.90316   1.90391   1.90979   1.91456
 Alpha virt. eigenvalues --    1.92017   1.92273   1.93031   1.93714   1.94474
 Alpha virt. eigenvalues --    1.95457   1.96556   1.96827   1.97698   1.98044
 Alpha virt. eigenvalues --    1.98555   1.99190   1.99608   2.00302   2.01248
 Alpha virt. eigenvalues --    2.02203   2.03189   2.04763   2.05336   2.05735
 Alpha virt. eigenvalues --    2.06822   2.06918   2.08001   2.08103   2.08873
 Alpha virt. eigenvalues --    2.09166   2.10038   2.10876   2.12014   2.12363
 Alpha virt. eigenvalues --    2.13255   2.14478   2.15376   2.15876   2.16493
 Alpha virt. eigenvalues --    2.19423   2.20655   2.21135   2.21487   2.22689
 Alpha virt. eigenvalues --    2.23664   2.23806   2.24156   2.25329   2.25933
 Alpha virt. eigenvalues --    2.27103   2.27585   2.28083   2.28838   2.29648
 Alpha virt. eigenvalues --    2.30655   2.31659   2.32220   2.32432   2.33763
 Alpha virt. eigenvalues --    2.34155   2.35649   2.36472   2.37667   2.38037
 Alpha virt. eigenvalues --    2.38722   2.40154   2.40921   2.42349   2.42520
 Alpha virt. eigenvalues --    2.43263   2.44796   2.45252   2.46122   2.47466
 Alpha virt. eigenvalues --    2.49709   2.49948   2.50269   2.51084   2.51968
 Alpha virt. eigenvalues --    2.52959   2.53878   2.54219   2.55238   2.55956
 Alpha virt. eigenvalues --    2.56015   2.57144   2.57457   2.57783   2.58571
 Alpha virt. eigenvalues --    2.59896   2.60365   2.61527   2.61678   2.62683
 Alpha virt. eigenvalues --    2.64860   2.66081   2.66633   2.67211   2.67480
 Alpha virt. eigenvalues --    2.68680   2.70189   2.72007   2.72180   2.76314
 Alpha virt. eigenvalues --    2.78098   2.78769   2.81090   2.83172   2.85307
 Alpha virt. eigenvalues --    2.87670   2.88816   2.90815   2.91417   2.92208
 Alpha virt. eigenvalues --    2.93576   2.94505   2.96251   2.97606   2.98179
 Alpha virt. eigenvalues --    2.99371   3.01423   3.02960   3.06931   3.09034
 Alpha virt. eigenvalues --    3.12689   3.33565   3.67833   3.71693   3.74727
 Alpha virt. eigenvalues --    3.74878   3.77396   3.81831   3.91522   3.93531
 Alpha virt. eigenvalues --    3.96016   3.98562   3.98648   4.01865   4.02765
 Alpha virt. eigenvalues --    4.03057   4.04422   4.04989   4.07454   4.08445
 Alpha virt. eigenvalues --    4.11679   4.13727   4.15347   4.18822   4.19863
 Alpha virt. eigenvalues --    4.24198   4.26114   4.27725   4.28388   4.33669
 Alpha virt. eigenvalues --    4.36042   4.38748   4.43983   4.44477   4.45768
 Alpha virt. eigenvalues --    4.48402   4.51901   4.54110   4.58132   4.61747
 Alpha virt. eigenvalues --    4.63459
          Condensed to atoms (all electrons):
 Mulliken charges:
               1
     1  N   -0.717447
     2  H    0.323614
     3  H    0.309348
     4  C   -0.088138
     5  H    0.161641
     6  C    0.626505
     7  C   -0.353033
     8  H    0.168359
     9  H    0.173013
    10  O   -0.597134
    11  C    0.578199
    12  N   -0.751913
    13  H    0.343838
    14  H    0.374419
    15  O   -0.502828
    16  N   -0.586430
    17  H    0.349037
    18  C   -0.067743
    19  H    0.187975
    20  C    0.637955
    21  C   -0.393498
    22  H    0.169214
    23  H    0.191764
    24  O   -0.523943
    25  C    0.181476
    26  C   -0.182372
    27  H    0.127128
    28  C   -0.208073
    29  H    0.127935
    30  C   -0.129088
    31  H    0.142680
    32  C   -0.127680
    33  H    0.146381
    34  C   -0.130500
    35  H    0.146768
    36  N   -0.667726
    37  H    0.388662
    38  C   -0.018584
    39  H    0.207241
    40  C    0.612344
    41  C   -0.390019
    42  H    0.198525
    43  H    0.194912
    44  O   -0.599205
    45  C    0.637788
    46  N   -0.732823
    47  H    0.364363
    48  H    0.362713
    49  O   -0.535482
    50  N   -0.623307
    51  H    0.419062
    52  C   -0.043244
    53  H    0.191512
    54  C    0.577869
    55  C   -0.291418
    56  H    0.160536
    57  H    0.194544
    58  O   -0.442917
    59  C   -0.291096
    60  H    0.186268
    61  H    0.177669
    62  C   -0.165981
    63  H    0.181957
    64  H    0.170317
    65  N   -0.644083
    66  H    0.433819
    67  N   -0.761106
    68  H    0.374819
    69  H    0.382528
    70  N   -0.792566
    71  H    0.363233
    72  H    0.431111
    73  C    0.803124
    74  O   -0.554800
    75  H    0.432015
 Sum of Mulliken charges =   1.00000
 Mulliken charges with hydrogens summed into heavy atoms:
               1
     1  N   -0.084486
     4  C    0.073503
     6  C    0.626505
     7  C   -0.011661
    10  O   -0.597134
    11  C    0.578199
    12  N   -0.033656
    15  O   -0.502828
    16  N   -0.237393
    18  C    0.120231
    20  C    0.637955
    21  C   -0.032520
    24  O   -0.523943
    25  C    0.181476
    26  C   -0.055244
    28  C   -0.080138
    30  C    0.013593
    32  C    0.018701
    34  C    0.016268
    36  N   -0.279064
    38  C    0.188657
    40  C    0.612344
    41  C    0.003418
    44  O   -0.599205
    45  C    0.637788
    46  N   -0.005747
    49  O   -0.535482
    50  N   -0.204245
    52  C    0.148268
    54  C    0.577869
    55  C    0.063662
    58  O   -0.442917
    59  C    0.072840
    62  C    0.186292
    65  N   -0.210264
    67  N   -0.003759
    70  N    0.001778
    73  C    0.803124
    74  O   -0.122785
 Electronic spatial extent (au):  <R**2>=          26303.7280
 Charge=              1.0000 electrons
 Dipole moment (field-independent basis, Debye):
    X=             -2.9673    Y=             -0.7732    Z=            -13.7137  Tot=             14.0523
 Quadrupole moment (field-independent basis, Debye-Ang):
   XX=           -152.8314   YY=           -201.0148   ZZ=           -138.0874
   XY=              9.8849   XZ=              8.5253   YZ=             46.8283
 Traceless Quadrupole moment (field-independent basis, Debye-Ang):
   XX=             11.1465   YY=            -37.0369   ZZ=             25.8905
   XY=              9.8849   XZ=              8.5253   YZ=             46.8283
 Octapole moment (field-independent basis, Debye-Ang**2):
  XXX=            140.1812  YYY=           -571.2886  ZZZ=             85.9420  XYY=            126.3758
  XXY=           -124.4933  XXZ=            233.7609  XZZ=            124.9677  YZZ=           -285.9275
  YYZ=            170.8733  XYZ=             34.7263
 Hexadecapole moment (field-independent basis, Debye-Ang**3):
 XXXX=         -15917.5089 YYYY=          -8055.2117 ZZZZ=          -4953.9259 XXXY=           1589.7526
 XXXZ=           1903.0136 YYYX=           2267.6994 YYYZ=           -228.4344 ZZZX=           1397.2552
 ZZZY=            766.3700 XXYY=          -4035.0017 XXZZ=          -3776.7906 YYZZ=          -1956.7113
 XXYZ=           -126.2224 YYXZ=            696.3498 ZZXY=            687.8579
 N-N= 4.661982071418D+03 E-N=-1.376597141876D+04  KE= 1.899614782005D+03
 Unable to Open any file for archive entry.
 1\1\GINC-AMR-126\SP\RB3LYP\6-31G(d)\C23H36N9O7(1+)\KENGMITH\07-Jun-202
 2\0\\# B3LYP/6-31G* guess=read geom=check nosymm integral(ultrafinegri
 d)\\Candidate Structure: Conf:156 Charge calc in gas phase\\1,1\N,0,-4
 .0232066549,-1.8127346339,-0.1520606084\H,0,-4.9241412585,-1.422629529
 8,-0.4265594407\H,0,-3.5147017163,-2.0050331161,-1.0153414114\C,0,-3.2
 579993025,-0.8267994367,0.6187479902\H,0,-3.9073405666,-0.4592703865,1
 .4223158681\C,0,-2.7857359824,0.3471159126,-0.2512212485\C,0,-2.002508
 3867,-1.477811589,1.2429655236\H,0,-1.4332856764,-1.969128568,0.441938
 3395\H,0,-1.3521285298,-0.7082387873,1.6677995308\O,0,-2.2956617732,0.
 1458094559,-1.3769237778\C,0,-2.2415692823,-2.4904165867,2.3756882395\
 N,0,-3.3096277036,-3.3112667646,2.2076204793\H,0,-3.4959341564,-4.0070
 650402,2.9164374432\H,0,-3.8945879375,-3.2265045111,1.3807016033\O,0,-
 1.48182592,-2.5358930937,3.332752525\N,0,-2.8733555511,1.5766198689,0.
 2938380763\H,0,-3.3315235018,1.671127827,1.1916547809\C,0,-2.486074223
 9,2.8175048597,-0.3892838155\H,0,-2.6729081818,2.649053175,-1.45648473
 96\C,0,-0.9715788146,3.1096713235,-0.2166639322\C,0,-3.3329606585,3.99
 95212564,0.113807444\H,0,-3.0793626566,4.1939525744,1.1623537734\H,0,-
 3.0066686111,4.8876084382,-0.4361703323\O,0,-0.5505679197,4.1709798628
 ,0.2304510794\C,0,-4.8229434184,3.7774931992,-0.0413556739\C,0,-5.4272
 388994,3.8169959326,-1.3062496067\H,0,-4.8234701427,4.0392340227,-2.18
 4118202\C,0,-5.6280363121,3.515407813,1.0746039771\H,0,-5.1837985814,3
 .5131624044,2.068715506\C,0,-6.7957899445,3.5929086108,-1.4515104374\H
 ,0,-7.248624833,3.6380314628,-2.4382954734\C,0,-6.9997111293,3.2902213
 561,0.9340135205\H,0,-7.6085242088,3.0990568268,1.8134253717\C,0,-7.58
 64974606,3.3255980392,-0.3307787373\H,0,-8.6540276156,3.158900185,-0.4
 4294251\N,0,-0.1591875557,2.0906142709,-0.6040682585\H,0,-0.5545466067
 ,1.2814960681,-1.076988538\C,0,1.2852398221,2.2227583592,-0.6181393081
 \H,0,1.5597929487,3.1447963504,-1.1490369212\C,0,1.8324628228,1.032588
 3932,-1.4278792816\C,0,1.8672708994,2.3177657967,0.8233368594\H,0,2.04
 75300415,1.3161978227,1.2330962448\H,0,1.1122970799,2.7994905748,1.446
 5413305\O,0,1.0464065124,0.2172292108,-1.9580525308\C,0,3.1732255805,3
 .1046006914,0.8840213254\N,0,3.3252695415,3.9179192638,1.949853149\H,0
 ,4.1726014664,4.4666631115,2.0194895533\H,0,2.5737554923,4.1128148048,
 2.5945236409\O,0,4.0534728447,2.9925054137,0.022718268\N,0,3.159534142
 1,0.925317967,-1.5311480566\H,0,3.7341614078,1.6305756956,-1.038133147
 9\C,0,3.7491606121,-0.2178282777,-2.2156864169\H,0,3.1207106315,-1.084
 2420808,-1.9648779311\C,0,5.1324195037,-0.5619974223,-1.6615188995\C,0
 ,3.8014714006,-0.0682399128,-3.7592789518\H,0,3.0276201799,0.646794549
 7,-4.059634052\H,0,4.7600312887,0.3780050765,-4.0340823497\O,0,5.99703
 70418,-1.0912357693,-2.3197456554\C,0,3.6169861765,-1.4117753499,-4.50
 8276889\H,0,4.3591241807,-1.4997495879,-5.3074030153\H,0,3.8089061134,
 -2.2519570631,-3.8320273241\C,0,2.2414713296,-1.5855472882,-5.16803878
 \H,0,2.1310610588,-0.864962518,-5.9908144143\H,0,2.1786896562,-2.59589
 1901,-5.5919369808\N,0,1.146352297,-1.396276924,-4.2068062256\H,0,1.32
 36367656,-0.8385683293,-3.3589360494\N,0,-0.5423642973,-2.1320490907,-
 5.6383949199\H,0,-1.4797352483,-2.4931875592,-5.7405810622\H,0,0.13728
 77213,-2.4556204576,-6.3098944519\N,0,-1.0617659088,-1.3268158607,-3.5
 233378219\H,0,-2.0372490377,-1.2642701476,-3.7768338899\H,0,-0.8131087
 272,-0.7886474734,-2.6957590604\C,0,-0.1416184788,-1.6128366645,-4.458
 9250027\O,0,5.2539035285,-0.2578376007,-0.3559941801\H,0,6.1529795743,
 -0.5254112254,-0.0823925894\\Version=ES64L-G16RevC.01\HF=-1917.400755\
 RMSD=3.223e-09\Dipole=-0.3439188,-1.717441,-3.7229576\Quadrupole=8.287
 129,-27.536047,19.248918,7.3491447,6.3383598,34.8157179\PG=C01 [X(C23H
 36N9O7)]\\@
 The archive entry for this job was punched.


 I WOULD TAKE COUNSEL OF MYSELF.
 I WOULD STOP AND LOOK WITHIN
 AND LOOKING WITHIN, LOOK BACK, ALSO
 THAT I MAY LOOK AHEAD WITH CLEARER UNDERSTANDING
 OF THE WAY I HAVE BEEN MOVING, AND IN WHAT DIRECTION.
 I NEED TO KNOW IF I AM GOING FORWARD OR RETREATING,
 WHETHER I HAVE BEEN WASTING, OR ENJOYING
 THE PRECIOUS MOMENTS OF LIFE.  THERE HAVE BEEN FRICTIONS,
 ANNOYANCES AND SOMETIMES WRATH,
 BUT WERE THEY BECAUSE I WAS RIGHT AND OTHERS WRONG.....
 HAVE I HAD MY THOUGHTS TOO SHARPLY FOCUSED
 ON THAT WHICH PLEASED ME, SERVED MY SELF-ESTEEM,
 UNDERGIRDED MY SECURITY,
 OF WHICH I DID NOT INQUIRE WHETHER IT SERVED OR HAMPERED OTHERS.....
 HAVE I BEEN TRYING TO STOP THE CLOCK
 TO HOLD THE WORLD
 IN PERPETUATION OF WHAT WAS AN IS ALREADY SLIPPING AWAY.....
 HAVE I BEEN CRITICAL OF OTHERS FOR WHAT REALLY NEEDED CHANGING IN ME...
 LET ME INDEED TAKE COUNSEL OF MYSELF
 AND SET MY DIRECTIONS STRAIGHT.

                          R.T. WESTON AS ADAPTED BY D. OSBORN 1967
 Job cpu time:       0 days  0 hours  1 minutes 29.2 seconds.
 Elapsed time:       0 days  0 hours  0 minutes 23.2 seconds.
 File lengths (MBytes):  RWF=    344 Int=      0 D2E=      0 Chk=     48 Scr=     16
 Normal termination of Gaussian 16 at Tue Jun  7 03:23:53 2022.
