 Entering Gaussian System, Link 0=/opt/software/Gaussian/g16-AVX2-C.01/g16/g16
 Input=charge-conf-684.com
 Output=charge-conf-684.log
 Initial command:
 /opt/software/Gaussian/g16-AVX2-C.01/g16/l1.exe "/mnt/gs18/scratch/users/kengmith/Gau-127752.inp" -scrdir="/mnt/gs18/scratch/users/kengmith/"
 Entering Link 1 = /opt/software/Gaussian/g16-AVX2-C.01/g16/l1.exe PID=    127762.
  
 Copyright (c) 1988-2019, Gaussian, Inc.  All Rights Reserved.
  
 This is part of the Gaussian(R) 16 program.  It is based on
 the Gaussian(R) 09 system (copyright 2009, Gaussian, Inc.),
 the Gaussian(R) 03 system (copyright 2003, Gaussian, Inc.),
 the Gaussian(R) 98 system (copyright 1998, Gaussian, Inc.),
 the Gaussian(R) 94 system (copyright 1995, Gaussian, Inc.),
 the Gaussian 92(TM) system (copyright 1992, Gaussian, Inc.),
 the Gaussian 90(TM) system (copyright 1990, Gaussian, Inc.),
 the Gaussian 88(TM) system (copyright 1988, Gaussian, Inc.),
 the Gaussian 86(TM) system (copyright 1986, Carnegie Mellon
 University), and the Gaussian 82(TM) system (copyright 1983,
 Carnegie Mellon University). Gaussian is a federally registered
 trademark of Gaussian, Inc.
  
 This software contains proprietary and confidential information,
 including trade secrets, belonging to Gaussian, Inc.
  
 This software is provided under written license and may be
 used, copied, transmitted, or stored only in accord with that
 written license.
  
 The following legend is applicable only to US Government
 contracts under FAR:
  
                    RESTRICTED RIGHTS LEGEND
  
 Use, reproduction and disclosure by the US Government is
 subject to restrictions as set forth in subparagraphs (a)
 and (c) of the Commercial Computer Software - Restricted
 Rights clause in FAR 52.227-19.
  
 Gaussian, Inc.
 340 Quinnipiac St., Bldg. 40, Wallingford CT 06492
  
  
 ---------------------------------------------------------------
 Warning -- This program may not be used in any manner that
 competes with the business of Gaussian, Inc. or will provide
 assistance to any competitor of Gaussian, Inc.  The licensee
 of this program is prohibited from giving any competitor of
 Gaussian, Inc. access to this program.  By using this program,
 the user acknowledges that Gaussian, Inc. is engaged in the
 business of creating and licensing software in the field of
 computational chemistry and represents and warrants to the
 licensee that it is not a competitor of Gaussian, Inc. and that
 it will not use this program in any manner prohibited above.
 ---------------------------------------------------------------
  

 Cite this work as:
 Gaussian 16, Revision C.01,
 M. J. Frisch, G. W. Trucks, H. B. Schlegel, G. E. Scuseria, 
 M. A. Robb, J. R. Cheeseman, G. Scalmani, V. Barone, 
 G. A. Petersson, H. Nakatsuji, X. Li, M. Caricato, A. V. Marenich, 
 J. Bloino, B. G. Janesko, R. Gomperts, B. Mennucci, H. P. Hratchian, 
 J. V. Ortiz, A. F. Izmaylov, J. L. Sonnenberg, D. Williams-Young, 
 F. Ding, F. Lipparini, F. Egidi, J. Goings, B. Peng, A. Petrone, 
 T. Henderson, D. Ranasinghe, V. G. Zakrzewski, J. Gao, N. Rega, 
 G. Zheng, W. Liang, M. Hada, M. Ehara, K. Toyota, R. Fukuda, 
 J. Hasegawa, M. Ishida, T. Nakajima, Y. Honda, O. Kitao, H. Nakai, 
 T. Vreven, K. Throssell, J. A. Montgomery, Jr., J. E. Peralta, 
 F. Ogliaro, M. J. Bearpark, J. J. Heyd, E. N. Brothers, K. N. Kudin, 
 V. N. Staroverov, T. A. Keith, R. Kobayashi, J. Normand, 
 K. Raghavachari, A. P. Rendell, J. C. Burant, S. S. Iyengar, 
 J. Tomasi, M. Cossi, J. M. Millam, M. Klene, C. Adamo, R. Cammi, 
 J. W. Ochterski, R. L. Martin, K. Morokuma, O. Farkas, 
 J. B. Foresman, and D. J. Fox, Gaussian, Inc., Wallingford CT, 2019.
 
 ******************************************
 Gaussian 16:  ES64L-G16RevC.01  3-Jul-2019
                25-May-2022 
 ******************************************
 %mem=8gb
 %nproc=4
 Will use up to    4 processors via shared memory.
 %chk=conf-684.chk
 -------------------------------------------------------------------
 # B3LYP/6-31G* guess=read geom=check nosymm integral(ultrafinegrid)
 -------------------------------------------------------------------
 1/29=2,38=1,172=1/1;
 2/12=2,15=1,40=1/2;
 3/5=1,6=6,7=1,11=2,14=-4,25=1,30=1,74=-5,75=-5,116=-2/1,2,3;
 4/5=1/1;
 5/5=2,38=6/2;
 6/7=2,8=2,9=2,10=2,28=1/1;
 99/5=1,9=1/99;
 ------------------------------------------------------
 Candidate Structure: Conf:684 Charge calc in gas phase
 ------------------------------------------------------
 Structure from the checkpoint file:  "conf-684.chk"
 Charge =  1 Multiplicity = 1
 Redundant internal coordinates found in file.  (old form).
 N,0,-1.478912158,-0.3547762532,-4.3121371707
 H,0,-0.5170907814,-0.5122228157,-3.9462418784
 H,0,-1.4491872934,0.3279265508,-5.0752217687
 H,0,-1.8562655356,-1.2625271675,-4.6510475332
 C,0,-2.426402705,0.0532838816,-3.200874502
 H,0,-1.8957373467,0.7614635078,-2.5662599593
 C,0,-2.751402385,-1.3054022144,-2.533041416
 C,0,-3.6890579807,0.6965176613,-3.8125437507
 H,0,-3.3775328722,1.5739501294,-4.3954779571
 H,0,-4.1406771503,-0.0232365901,-4.5050764408
 O,0,-2.9498963498,-2.253641211,-3.3019533282
 C,0,-4.6950082435,1.1077914979,-2.7549593208
 C,0,-5.7747086713,0.2721422402,-2.4405257206
 H,0,-5.9081742736,-0.6636680355,-2.9785301079
 C,0,-4.5481302377,2.3216109688,-2.0685493931
 H,0,-3.7266877574,2.9911562576,-2.3160969413
 C,0,-6.6896454629,0.6417378388,-1.4531045168
 H,0,-7.530581828,-0.0076489738,-1.2276316799
 C,0,-5.461158668,2.6896056173,-1.079171039
 H,0,-5.3417405316,3.6363118613,-0.5607067819
 C,0,-6.5328301968,1.8489393403,-0.7694155052
 H,0,-7.2494296288,2.1401769317,-0.007141762
 N,0,-2.7872070595,-1.3886871639,-1.1946876286
 C,0,-2.3998775727,-0.3175708699,-0.2534860753
 H,0,-2.9971253805,0.5832294447,-0.4118073775
 C,0,-0.9330073015,0.1302760067,-0.4059322294
 C,0,-2.7133529466,-0.9385583416,1.1328403537
 H,0,-2.0313019468,-0.5741676474,1.9047515494
 H,0,-3.7273475367,-0.6464827979,1.4233669391
 O,0,-0.6140146364,1.2747445398,-0.1216421303
 C,0,-2.6388244946,-2.4584923806,0.9054550109
 H,0,-1.6017260604,-2.8107816457,0.9617399533
 H,0,-3.2138297504,-3.0209730804,1.6448698859
 C,0,-3.1913242679,-2.6407787216,-0.5124114039
 H,0,-4.2848959753,-2.7141235914,-0.5210586538
 H,0,-2.7920713519,-3.5028282947,-1.0510008814
 N,0,-0.0471424373,-0.7886207391,-0.9196067422
 H,0,-0.3330929902,-1.7583651656,-0.9587765096
 C,0,1.3834248013,-0.4993176915,-0.9330184056
 H,0,1.4485703275,0.5954692462,-0.8768549137
 C,0,2.0516067051,-0.8887259906,-2.2471361846
 C,0,2.1510697943,-1.0846396393,0.2720973368
 H,0,1.739899305,-0.6139626137,1.1729285738
 H,0,3.1926112873,-0.7582783732,0.1878720105
 O,0,3.2220429165,-1.1239442986,-2.3815588882
 C,0,2.0993418765,-2.6126642647,0.4008036791
 H,0,1.0555557247,-2.9487350101,0.5078470523
 H,0,2.4870549411,-3.074862916,-0.5172965711
 C,0,2.9050017932,-3.1330320873,1.6002258608
 H,0,2.5424958183,-2.6562095046,2.5230021307
 H,0,3.9563764031,-2.8324137045,1.4882197237
 C,0,2.8287691688,-4.6632548596,1.757906611
 H,0,1.7777224449,-4.9629261051,1.874071827
 H,0,3.1817647796,-5.1408599976,0.8341492363
 N,0,3.5793119254,-5.2403300456,2.8691138623
 H,0,3.2806635493,-4.8298200106,3.7525116606
 H,0,4.5715744576,-5.0298037155,2.7746540934
 O,0,1.2100810859,-0.9155537082,-3.3508382106
 H,0,1.805664751,-1.1522991655,-4.0907328611
 Recover connectivity data from disk.
                           ----------------------------
                           !    Current Parameters    !
                           ! (Angstroms and Degrees)  !
 --------------------------                            --------------------------
 ! Name  Definition              Value                                          !
 --------------------------------------------------------------------------------
 ! R1    R(1,2)                  1.041                                          !
 ! R2    R(1,3)                  1.0243                                         !
 ! R3    R(1,4)                  1.0398                                         !
 ! R4    R(1,5)                  1.5163                                         !
 ! R5    R(5,6)                  1.089                                          !
 ! R6    R(5,7)                  1.5484                                         !
 ! R7    R(5,8)                  1.5434                                         !
 ! R8    R(7,11)                 1.2368                                         !
 ! R9    R(7,23)                 1.3414                                         !
 ! R10   R(8,9)                  1.0985                                         !
 ! R11   R(8,10)                 1.0962                                         !
 ! R12   R(8,12)                 1.5164                                         !
 ! R13   R(12,13)                1.401                                          !
 ! R14   R(12,15)                1.4022                                         !
 ! R15   R(13,14)                1.0877                                         !
 ! R16   R(13,17)                1.396                                          !
 ! R17   R(15,16)                1.0883                                         !
 ! R18   R(15,19)                1.3957                                         !
 ! R19   R(17,18)                1.0861                                         !
 ! R20   R(17,21)                1.3962                                         !
 ! R21   R(19,20)                1.086                                          !
 ! R22   R(19,21)                1.3968                                         !
 ! R23   R(21,22)                1.086                                          !
 ! R24   R(23,24)                1.4776                                         !
 ! R25   R(23,34)                1.4821                                         !
 ! R26   R(24,25)                1.0923                                         !
 ! R27   R(24,26)                1.5413                                         !
 ! R28   R(24,27)                1.5511                                         !
 ! R29   R(26,30)                1.2216                                         !
 ! R30   R(26,37)                1.3759                                         !
 ! R31   R(27,28)                1.0926                                         !
 ! R32   R(27,29)                1.0945                                         !
 ! R33   R(27,31)                1.5387                                         !
 ! R34   R(31,32)                1.0967                                         !
 ! R35   R(31,33)                1.0926                                         !
 ! R36   R(31,34)                1.5326                                         !
 ! R37   R(34,35)                1.0961                                         !
 ! R38   R(34,36)                1.0921                                         !
 ! R39   R(37,38)                1.0118                                         !
 ! R40   R(37,39)                1.4596                                         !
 ! R41   R(39,40)                1.0982                                         !
 ! R42   R(39,41)                1.5248                                         !
 ! R43   R(39,42)                1.5441                                         !
 ! R44   R(41,45)                1.2014                                         !
 ! R45   R(41,58)                1.3882                                         !
 ! R46   R(42,43)                1.0964                                         !
 ! R47   R(42,44)                1.0947                                         !
 ! R48   R(42,46)                1.5343                                         !
 ! R49   R(46,47)                1.1018                                         !
 ! R50   R(46,48)                1.0986                                         !
 ! R51   R(46,49)                1.5357                                         !
 ! R52   R(49,50)                1.1001                                         !
 ! R53   R(49,51)                1.0992                                         !
 ! R54   R(49,52)                1.5402                                         !
 ! R55   R(52,53)                1.0991                                         !
 ! R56   R(52,54)                1.0982                                         !
 ! R57   R(52,55)                1.4598                                         !
 ! R58   R(55,56)                1.0189                                         !
 ! R59   R(55,57)                1.0187                                         !
 ! R60   R(58,59)                0.9789                                         !
 ! A1    A(2,1,3)              109.6223                                         !
 ! A2    A(2,1,4)              108.5303                                         !
 ! A3    A(2,1,5)              111.127                                          !
 ! A4    A(3,1,4)              110.4599                                         !
 ! A5    A(3,1,5)              112.6272                                         !
 ! A6    A(4,1,5)              104.3019                                         !
 ! A7    A(1,5,6)              107.3137                                         !
 ! A8    A(1,5,7)              102.187                                          !
 ! A9    A(1,5,8)              109.4454                                         !
 ! A10   A(6,5,7)              114.9334                                         !
 ! A11   A(6,5,8)              111.0134                                         !
 ! A12   A(7,5,8)              111.4016                                         !
 ! A13   A(5,7,11)             115.9936                                         !
 ! A14   A(5,7,23)             119.3662                                         !
 ! A15   A(11,7,23)            124.6365                                         !
 ! A16   A(5,8,9)              108.1305                                         !
 ! A17   A(5,8,10)             108.2869                                         !
 ! A18   A(5,8,12)             112.2921                                         !
 ! A19   A(9,8,10)             107.8207                                         !
 ! A20   A(9,8,12)             109.9732                                         !
 ! A21   A(10,8,12)            110.2051                                         !
 ! A22   A(8,12,13)            120.3959                                         !
 ! A23   A(8,12,15)            120.4443                                         !
 ! A24   A(13,12,15)           119.1558                                         !
 ! A25   A(12,13,14)           119.7838                                         !
 ! A26   A(12,13,17)           120.3925                                         !
 ! A27   A(14,13,17)           119.8185                                         !
 ! A28   A(12,15,16)           120.0202                                         !
 ! A29   A(12,15,19)           120.4474                                         !
 ! A30   A(16,15,19)           119.526                                          !
 ! A31   A(13,17,18)           119.735                                          !
 ! A32   A(13,17,21)           120.1111                                         !
 ! A33   A(18,17,21)           120.1495                                         !
 ! A34   A(15,19,20)           119.7594                                         !
 ! A35   A(15,19,21)           120.0274                                         !
 ! A36   A(20,19,21)           120.209                                          !
 ! A37   A(17,21,19)           119.8646                                         !
 ! A38   A(17,21,22)           120.0975                                         !
 ! A39   A(19,21,22)           120.0333                                         !
 ! A40   A(7,23,24)            125.6997                                         !
 ! A41   A(7,23,34)            121.2672                                         !
 ! A42   A(24,23,34)           112.996                                          !
 ! A43   A(23,24,25)           111.2326                                         !
 ! A44   A(23,24,26)           113.3985                                         !
 ! A45   A(23,24,27)           103.0694                                         !
 ! A46   A(25,24,26)           105.4508                                         !
 ! A47   A(25,24,27)           110.4385                                         !
 ! A48   A(26,24,27)           113.3961                                         !
 ! A49   A(24,26,30)           119.8489                                         !
 ! A50   A(24,26,37)           117.1066                                         !
 ! A51   A(30,26,37)           122.9866                                         !
 ! A52   A(24,27,28)           111.8243                                         !
 ! A53   A(24,27,29)           108.521                                          !
 ! A54   A(24,27,31)           104.6916                                         !
 ! A55   A(28,27,29)           107.5655                                         !
 ! A56   A(28,27,31)           113.8042                                         !
 ! A57   A(29,27,31)           110.3478                                         !
 ! A58   A(27,31,32)           110.8256                                         !
 ! A59   A(27,31,33)           112.5226                                         !
 ! A60   A(27,31,34)           103.6949                                         !
 ! A61   A(32,31,33)           107.3111                                         !
 ! A62   A(32,31,34)           110.4976                                         !
 ! A63   A(33,31,34)           112.033                                          !
 ! A64   A(23,34,31)           103.127                                          !
 ! A65   A(23,34,35)           108.9626                                         !
 ! A66   A(23,34,36)           109.8865                                         !
 ! A67   A(31,34,35)           112.0206                                         !
 ! A68   A(31,34,36)           114.7309                                         !
 ! A69   A(35,34,36)           107.9417                                         !
 ! A70   A(26,37,38)           118.2036                                         !
 ! A71   A(26,37,39)           120.1399                                         !
 ! A72   A(38,37,39)           117.815                                          !
 ! A73   A(37,39,40)           104.7897                                         !
 ! A74   A(37,39,41)           112.7553                                         !
 ! A75   A(37,39,42)           113.8887                                         !
 ! A76   A(40,39,41)           105.8238                                         !
 ! A77   A(40,39,42)           107.969                                          !
 ! A78   A(41,39,42)           110.9756                                         !
 ! A79   A(39,41,45)           124.9844                                         !
 ! A80   A(39,41,58)           115.1194                                         !
 ! A81   A(45,41,58)           119.8578                                         !
 ! A82   A(39,42,43)           106.9827                                         !
 ! A83   A(39,42,44)           107.4542                                         !
 ! A84   A(39,42,46)           115.2287                                         !
 ! A85   A(43,42,44)           106.9797                                         !
 ! A86   A(43,42,46)           110.2409                                         !
 ! A87   A(44,42,46)           109.5988                                         !
 ! A88   A(42,46,47)           110.1128                                         !
 ! A89   A(42,46,48)           109.6942                                         !
 ! A90   A(42,46,49)           112.6612                                         !
 ! A91   A(47,46,48)           106.6912                                         !
 ! A92   A(47,46,49)           108.5278                                         !
 ! A93   A(48,46,49)           108.9656                                         !
 ! A94   A(46,49,50)           109.5953                                         !
 ! A95   A(46,49,51)           109.2398                                         !
 ! A96   A(46,49,52)           112.9939                                         !
 ! A97   A(50,49,51)           106.3857                                         !
 ! A98   A(50,49,52)           109.1736                                         !
 ! A99   A(51,49,52)           109.2371                                         !
 ! A100  A(49,52,53)           109.2104                                         !
 ! A101  A(49,52,54)           109.2721                                         !
 ! A102  A(49,52,55)           116.4373                                         !
 ! A103  A(53,52,54)           106.1235                                         !
 ! A104  A(53,52,55)           107.6634                                         !
 ! A105  A(54,52,55)           107.6442                                         !
 ! A106  A(52,55,56)           110.4877                                         !
 ! A107  A(52,55,57)           110.3954                                         !
 ! A108  A(56,55,57)           106.4172                                         !
 ! A109  A(41,58,59)           103.6976                                         !
 ! D1    D(2,1,5,6)             41.7902                                         !
 ! D2    D(2,1,5,7)            -79.4802                                         !
 ! D3    D(2,1,5,8)            162.3462                                         !
 ! D4    D(3,1,5,6)            -81.6524                                         !
 ! D5    D(3,1,5,7)            157.0773                                         !
 ! D6    D(3,1,5,8)             38.9036                                         !
 ! D7    D(4,1,5,6)            158.541                                          !
 ! D8    D(4,1,5,7)             37.2707                                         !
 ! D9    D(4,1,5,8)            -80.903                                          !
 ! D10   D(1,5,7,11)           -41.8777                                         !
 ! D11   D(1,5,7,23)           137.4594                                         !
 ! D12   D(6,5,7,11)          -157.7369                                         !
 ! D13   D(6,5,7,23)            21.6003                                         !
 ! D14   D(8,5,7,11)            74.895                                          !
 ! D15   D(8,5,7,23)          -105.7679                                         !
 ! D16   D(1,5,8,9)            -59.5055                                         !
 ! D17   D(1,5,8,10)            57.0692                                         !
 ! D18   D(1,5,8,12)           178.981                                          !
 ! D19   D(6,5,8,9)             58.7696                                         !
 ! D20   D(6,5,8,10)           175.3443                                         !
 ! D21   D(6,5,8,12)           -62.7438                                         !
 ! D22   D(7,5,8,9)           -171.7663                                         !
 ! D23   D(7,5,8,10)           -55.1916                                         !
 ! D24   D(7,5,8,12)            66.7203                                         !
 ! D25   D(5,7,23,24)           -6.9494                                         !
 ! D26   D(5,7,23,34)          175.4236                                         !
 ! D27   D(11,7,23,24)         172.3265                                         !
 ! D28   D(11,7,23,34)          -5.3006                                         !
 ! D29   D(5,8,12,13)          -97.2706                                         !
 ! D30   D(5,8,12,15)           81.9917                                         !
 ! D31   D(9,8,12,13)          142.2758                                         !
 ! D32   D(9,8,12,15)          -38.4619                                         !
 ! D33   D(10,8,12,13)          23.5424                                         !
 ! D34   D(10,8,12,15)        -157.1953                                         !
 ! D35   D(8,12,13,14)          -1.782                                          !
 ! D36   D(8,12,13,17)         179.0529                                         !
 ! D37   D(15,12,13,14)        178.9462                                         !
 ! D38   D(15,12,13,17)         -0.2189                                         !
 ! D39   D(8,12,15,16)           2.0217                                         !
 ! D40   D(8,12,15,19)        -178.9022                                         !
 ! D41   D(13,12,15,16)       -178.7069                                         !
 ! D42   D(13,12,15,19)          0.3692                                         !
 ! D43   D(12,13,17,18)        179.1448                                         !
 ! D44   D(12,13,17,21)         -0.0969                                         !
 ! D45   D(14,13,17,18)         -0.02                                           !
 ! D46   D(14,13,17,21)       -179.2617                                         !
 ! D47   D(12,15,19,20)       -179.4587                                         !
 ! D48   D(12,15,19,21)         -0.2036                                         !
 ! D49   D(16,15,19,20)         -0.3781                                         !
 ! D50   D(16,15,19,21)        178.877                                          !
 ! D51   D(13,17,21,19)          0.2656                                         !
 ! D52   D(13,17,21,22)        179.4837                                         !
 ! D53   D(18,17,21,19)       -178.973                                          !
 ! D54   D(18,17,21,22)          0.2451                                         !
 ! D55   D(15,19,21,17)         -0.1158                                         !
 ! D56   D(15,19,21,22)       -179.3344                                         !
 ! D57   D(20,19,21,17)        179.1359                                         !
 ! D58   D(20,19,21,22)         -0.0827                                         !
 ! D59   D(7,23,24,25)          58.7631                                         !
 ! D60   D(7,23,24,26)         -59.8925                                         !
 ! D61   D(7,23,24,27)         177.1087                                         !
 ! D62   D(34,23,24,25)       -123.4402                                         !
 ! D63   D(34,23,24,26)        117.9043                                         !
 ! D64   D(34,23,24,27)         -5.0946                                         !
 ! D65   D(7,23,34,31)         161.2289                                         !
 ! D66   D(7,23,34,35)         -79.613                                          !
 ! D67   D(7,23,34,36)          38.4648                                         !
 ! D68   D(24,23,34,31)        -16.6779                                         !
 ! D69   D(24,23,34,35)        102.4802                                         !
 ! D70   D(24,23,34,36)       -139.442                                          !
 ! D71   D(23,24,26,30)        151.2921                                         !
 ! D72   D(23,24,26,37)        -26.0216                                         !
 ! D73   D(25,24,26,30)         29.354                                          !
 ! D74   D(25,24,26,37)       -147.9596                                         !
 ! D75   D(27,24,26,30)        -91.5992                                         !
 ! D76   D(27,24,26,37)         91.0872                                         !
 ! D77   D(23,24,27,28)        148.5402                                         !
 ! D78   D(23,24,27,29)        -92.9694                                         !
 ! D79   D(23,24,27,31)         24.8664                                         !
 ! D80   D(25,24,27,28)        -92.5603                                         !
 ! D81   D(25,24,27,29)         25.93                                           !
 ! D82   D(25,24,27,31)        143.7658                                         !
 ! D83   D(26,24,27,28)         25.5398                                         !
 ! D84   D(26,24,27,29)        144.0301                                         !
 ! D85   D(26,24,27,31)        -98.1341                                         !
 ! D86   D(24,26,37,38)        -14.6455                                         !
 ! D87   D(24,26,37,39)       -172.1075                                         !
 ! D88   D(30,26,37,38)        168.1324                                         !
 ! D89   D(30,26,37,39)         10.6703                                         !
 ! D90   D(24,27,31,32)         83.2155                                         !
 ! D91   D(24,27,31,33)       -156.6271                                         !
 ! D92   D(24,27,31,34)        -35.3588                                         !
 ! D93   D(28,27,31,32)        -39.1775                                         !
 ! D94   D(28,27,31,33)         80.98                                           !
 ! D95   D(28,27,31,34)       -157.7517                                         !
 ! D96   D(29,27,31,32)       -160.2024                                         !
 ! D97   D(29,27,31,33)        -40.045                                          !
 ! D98   D(29,27,31,34)         81.2233                                         !
 ! D99   D(27,31,34,23)         31.4627                                         !
 ! D100  D(27,31,34,35)        -85.5537                                         !
 ! D101  D(27,31,34,36)        150.9329                                         !
 ! D102  D(32,31,34,23)        -87.3375                                         !
 ! D103  D(32,31,34,35)        155.646                                          !
 ! D104  D(32,31,34,36)         32.1326                                         !
 ! D105  D(33,31,34,23)        153.0592                                         !
 ! D106  D(33,31,34,35)         36.0428                                         !
 ! D107  D(33,31,34,36)        -87.4707                                         !
 ! D108  D(26,37,39,40)        -22.0677                                         !
 ! D109  D(26,37,39,41)       -136.6859                                         !
 ! D110  D(26,37,39,42)         95.7009                                         !
 ! D111  D(38,37,39,40)       -179.6154                                         !
 ! D112  D(38,37,39,41)         65.7664                                         !
 ! D113  D(38,37,39,42)        -61.8467                                         !
 ! D114  D(37,39,41,45)       -156.9699                                         !
 ! D115  D(37,39,41,58)         25.2981                                         !
 ! D116  D(40,39,41,45)         89.0386                                         !
 ! D117  D(40,39,41,58)        -88.6934                                         !
 ! D118  D(42,39,41,45)        -27.8377                                         !
 ! D119  D(42,39,41,58)        154.4303                                         !
 ! D120  D(37,39,42,43)        -62.1655                                         !
 ! D121  D(37,39,42,44)       -176.7547                                         !
 ! D122  D(37,39,42,46)         60.7761                                         !
 ! D123  D(40,39,42,43)         53.7566                                         !
 ! D124  D(40,39,42,44)        -60.8326                                         !
 ! D125  D(40,39,42,46)        176.6982                                         !
 ! D126  D(41,39,42,43)        169.3095                                         !
 ! D127  D(41,39,42,44)         54.7202                                         !
 ! D128  D(41,39,42,46)        -67.749                                          !
 ! D129  D(39,41,58,59)        178.2928                                         !
 ! D130  D(45,41,58,59)          0.4353                                         !
 ! D131  D(39,42,46,47)        -59.8926                                         !
 ! D132  D(39,42,46,48)         57.2333                                         !
 ! D133  D(39,42,46,49)        178.8016                                         !
 ! D134  D(43,42,46,47)         61.2971                                         !
 ! D135  D(43,42,46,48)        178.423                                          !
 ! D136  D(43,42,46,49)        -60.0087                                         !
 ! D137  D(44,42,46,47)        178.7933                                         !
 ! D138  D(44,42,46,48)        -64.0808                                         !
 ! D139  D(44,42,46,49)         57.4875                                         !
 ! D140  D(42,46,49,50)         56.5347                                         !
 ! D141  D(42,46,49,51)        -59.6589                                         !
 ! D142  D(42,46,49,52)        178.525                                          !
 ! D143  D(47,46,49,50)        -65.669                                          !
 ! D144  D(47,46,49,51)        178.1374                                         !
 ! D145  D(47,46,49,52)         56.3214                                         !
 ! D146  D(48,46,49,50)        178.5156                                         !
 ! D147  D(48,46,49,51)         62.322                                          !
 ! D148  D(48,46,49,52)        -59.494                                          !
 ! D149  D(46,49,52,53)        -58.4168                                         !
 ! D150  D(46,49,52,54)         57.265                                          !
 ! D151  D(46,49,52,55)        179.4363                                         !
 ! D152  D(50,49,52,53)         63.81                                           !
 ! D153  D(50,49,52,54)        179.4919                                         !
 ! D154  D(50,49,52,55)        -58.3369                                         !
 ! D155  D(51,49,52,53)        179.7657                                         !
 ! D156  D(51,49,52,54)        -64.5525                                         !
 ! D157  D(51,49,52,55)         57.6187                                         !
 ! D158  D(49,52,55,56)         57.3238                                         !
 ! D159  D(49,52,55,57)        -60.1159                                         !
 ! D160  D(53,52,55,56)        -65.6311                                         !
 ! D161  D(53,52,55,57)        176.9291                                         !
 ! D162  D(54,52,55,56)       -179.6552                                         !
 ! D163  D(54,52,55,57)         62.9051                                         !
 --------------------------------------------------------------------------------
 Symmetry turned off by external request.
 Stoichiometry    C20H31N4O4(1+)
 Framework group  C1[X(C20H31N4O4)]
 Deg. of freedom   171
 Full point group                 C1      NOp   1
                          Input orientation:                          
 ---------------------------------------------------------------------
 Center     Atomic      Atomic             Coordinates (Angstroms)
 Number     Number       Type             X           Y           Z
 ---------------------------------------------------------------------
      1          7           0       -1.478912   -0.354776   -4.312137
      2          1           0       -0.517091   -0.512223   -3.946242
      3          1           0       -1.449187    0.327927   -5.075222
      4          1           0       -1.856266   -1.262527   -4.651048
      5          6           0       -2.426403    0.053284   -3.200875
      6          1           0       -1.895737    0.761464   -2.566260
      7          6           0       -2.751402   -1.305402   -2.533041
      8          6           0       -3.689058    0.696518   -3.812544
      9          1           0       -3.377533    1.573950   -4.395478
     10          1           0       -4.140677   -0.023237   -4.505076
     11          8           0       -2.949896   -2.253641   -3.301953
     12          6           0       -4.695008    1.107791   -2.754959
     13          6           0       -5.774709    0.272142   -2.440526
     14          1           0       -5.908174   -0.663668   -2.978530
     15          6           0       -4.548130    2.321611   -2.068549
     16          1           0       -3.726688    2.991156   -2.316097
     17          6           0       -6.689645    0.641738   -1.453105
     18          1           0       -7.530582   -0.007649   -1.227632
     19          6           0       -5.461159    2.689606   -1.079171
     20          1           0       -5.341741    3.636312   -0.560707
     21          6           0       -6.532830    1.848939   -0.769416
     22          1           0       -7.249430    2.140177   -0.007142
     23          7           0       -2.787207   -1.388687   -1.194688
     24          6           0       -2.399878   -0.317571   -0.253486
     25          1           0       -2.997125    0.583229   -0.411807
     26          6           0       -0.933007    0.130276   -0.405932
     27          6           0       -2.713353   -0.938558    1.132840
     28          1           0       -2.031302   -0.574168    1.904752
     29          1           0       -3.727348   -0.646483    1.423367
     30          8           0       -0.614015    1.274745   -0.121642
     31          6           0       -2.638824   -2.458492    0.905455
     32          1           0       -1.601726   -2.810782    0.961740
     33          1           0       -3.213830   -3.020973    1.644870
     34          6           0       -3.191324   -2.640779   -0.512411
     35          1           0       -4.284896   -2.714124   -0.521059
     36          1           0       -2.792071   -3.502828   -1.051001
     37          7           0       -0.047142   -0.788621   -0.919607
     38          1           0       -0.333093   -1.758365   -0.958777
     39          6           0        1.383425   -0.499318   -0.933018
     40          1           0        1.448570    0.595469   -0.876855
     41          6           0        2.051607   -0.888726   -2.247136
     42          6           0        2.151070   -1.084640    0.272097
     43          1           0        1.739899   -0.613963    1.172929
     44          1           0        3.192611   -0.758278    0.187872
     45          8           0        3.222043   -1.123944   -2.381559
     46          6           0        2.099342   -2.612664    0.400804
     47          1           0        1.055556   -2.948735    0.507847
     48          1           0        2.487055   -3.074863   -0.517297
     49          6           0        2.905002   -3.133032    1.600226
     50          1           0        2.542496   -2.656210    2.523002
     51          1           0        3.956376   -2.832414    1.488220
     52          6           0        2.828769   -4.663255    1.757907
     53          1           0        1.777722   -4.962926    1.874072
     54          1           0        3.181765   -5.140860    0.834149
     55          7           0        3.579312   -5.240330    2.869114
     56          1           0        3.280664   -4.829820    3.752512
     57          1           0        4.571574   -5.029804    2.774654
     58          8           0        1.210081   -0.915554   -3.350838
     59          1           0        1.805665   -1.152299   -4.090733
 ---------------------------------------------------------------------
 Rotational constants (GHZ):           0.2940414           0.0946903           0.0849298
 Standard basis: 6-31G(d) (6D, 7F)
   482 basis functions,   908 primitive gaussians,   482 cartesian basis functions
   105 alpha electrons      105 beta electrons
       nuclear repulsion energy      2820.6686421933 Hartrees.
 NAtoms=   59 NActive=   59 NUniq=   59 SFac= 1.00D+00 NAtFMM=   60 NAOKFM=F Big=F
 Integral buffers will be    131072 words long.
 Raffenetti 2 integral format.
 Two-electron integral symmetry is turned off.
 One-electron integrals computed using PRISM.
 NBasis=   482 RedAO= T EigKep=  4.71D-04  NBF=   482
 NBsUse=   482 1.00D-06 EigRej= -1.00D+00 NBFU=   482
 Initial guess from the checkpoint file:  "conf-684.chk"
 B after Tr=     0.000000    0.000000    0.000000
         Rot=    1.000000    0.000000    0.000000    0.000000 Ang=   0.00 deg.
 Requested convergence on RMS density matrix=1.00D-08 within 128 cycles.
 Requested convergence on MAX density matrix=1.00D-06.
 Requested convergence on             energy=1.00D-06.
 No special actions if energy rises.
 SCF Done:  E(RB3LYP) =  -1300.52523796     A.U. after    1 cycles
            NFock=  1  Conv=0.50D-08     -V/T= 2.0095

 **********************************************************************

            Population analysis using the SCF Density.

 **********************************************************************

 Alpha  occ. eigenvalues --  -19.34277 -19.27357 -19.26548 -19.24531 -14.60145
 Alpha  occ. eigenvalues --  -14.51052 -14.49521 -14.37613 -10.45411 -10.43695
 Alpha  occ. eigenvalues --  -10.41734 -10.40788 -10.36459 -10.36369 -10.34586
 Alpha  occ. eigenvalues --  -10.34159 -10.31645 -10.31409 -10.31240 -10.29916
 Alpha  occ. eigenvalues --  -10.29816 -10.29418 -10.29372 -10.29343 -10.29188
 Alpha  occ. eigenvalues --  -10.28354 -10.27842 -10.26310  -1.24073  -1.19174
 Alpha  occ. eigenvalues --   -1.16626  -1.15199  -1.14210  -1.08736  -1.05469
 Alpha  occ. eigenvalues --   -0.97122  -0.94629  -0.93709  -0.91970  -0.91092
 Alpha  occ. eigenvalues --   -0.88095  -0.85879  -0.85381  -0.85000  -0.80459
 Alpha  occ. eigenvalues --   -0.79235  -0.77781  -0.74548  -0.74434  -0.73642
 Alpha  occ. eigenvalues --   -0.73181  -0.71539  -0.71196  -0.69979  -0.69251
 Alpha  occ. eigenvalues --   -0.68858  -0.67052  -0.66481  -0.64678  -0.63498
 Alpha  occ. eigenvalues --   -0.62277  -0.61979  -0.61355  -0.59886  -0.58889
 Alpha  occ. eigenvalues --   -0.58211  -0.57657  -0.57248  -0.56750  -0.56236
 Alpha  occ. eigenvalues --   -0.55775  -0.55233  -0.54499  -0.54351  -0.53679
 Alpha  occ. eigenvalues --   -0.53328  -0.53130  -0.52538  -0.52227  -0.51952
 Alpha  occ. eigenvalues --   -0.51378  -0.50480  -0.50369  -0.49927  -0.48148
 Alpha  occ. eigenvalues --   -0.47878  -0.47436  -0.46578  -0.46239  -0.45992
 Alpha  occ. eigenvalues --   -0.45782  -0.45081  -0.44662  -0.44444  -0.43716
 Alpha  occ. eigenvalues --   -0.42629  -0.41454  -0.41036  -0.40793  -0.40003
 Alpha  occ. eigenvalues --   -0.38573  -0.36915  -0.35533  -0.35446  -0.29652
 Alpha virt. eigenvalues --   -0.13921  -0.12600  -0.11696  -0.11174  -0.10870
 Alpha virt. eigenvalues --   -0.09982  -0.06605  -0.05637  -0.03332  -0.02376
 Alpha virt. eigenvalues --   -0.02074  -0.01320  -0.00505   0.00141   0.01328
 Alpha virt. eigenvalues --    0.01361   0.01798   0.02078   0.02427   0.02682
 Alpha virt. eigenvalues --    0.03158   0.03356   0.03596   0.04022   0.04903
 Alpha virt. eigenvalues --    0.05127   0.05263   0.05585   0.06212   0.06322
 Alpha virt. eigenvalues --    0.06874   0.07160   0.07763   0.08456   0.08676
 Alpha virt. eigenvalues --    0.09058   0.09400   0.09882   0.10026   0.10723
 Alpha virt. eigenvalues --    0.10758   0.11324   0.11818   0.11869   0.12185
 Alpha virt. eigenvalues --    0.12533   0.13054   0.14328   0.15183   0.15635
 Alpha virt. eigenvalues --    0.17080   0.18314   0.19662   0.20194   0.20515
 Alpha virt. eigenvalues --    0.21220   0.21481   0.21859   0.22068   0.23065
 Alpha virt. eigenvalues --    0.24008   0.26641   0.27971   0.30445   0.33565
 Alpha virt. eigenvalues --    0.35123   0.35770   0.36679   0.38043   0.38464
 Alpha virt. eigenvalues --    0.39761   0.41457   0.41750   0.42231   0.42686
 Alpha virt. eigenvalues --    0.43209   0.43418   0.44272   0.44730   0.45047
 Alpha virt. eigenvalues --    0.45546   0.45862   0.46890   0.47350   0.48395
 Alpha virt. eigenvalues --    0.48925   0.49156   0.49494   0.50049   0.50153
 Alpha virt. eigenvalues --    0.50712   0.51259   0.51576   0.52407   0.52654
 Alpha virt. eigenvalues --    0.52876   0.53372   0.53666   0.53970   0.54689
 Alpha virt. eigenvalues --    0.55189   0.55579   0.56572   0.57151   0.57194
 Alpha virt. eigenvalues --    0.58089   0.59503   0.60799   0.61147   0.61892
 Alpha virt. eigenvalues --    0.62339   0.63894   0.64114   0.64712   0.65520
 Alpha virt. eigenvalues --    0.65730   0.67662   0.67878   0.68044   0.69511
 Alpha virt. eigenvalues --    0.69949   0.70465   0.71027   0.71621   0.71842
 Alpha virt. eigenvalues --    0.72097   0.72328   0.72688   0.73046   0.73535
 Alpha virt. eigenvalues --    0.74065   0.74519   0.74881   0.75002   0.75675
 Alpha virt. eigenvalues --    0.76043   0.76584   0.77401   0.78082   0.78284
 Alpha virt. eigenvalues --    0.78959   0.80144   0.80508   0.81177   0.81721
 Alpha virt. eigenvalues --    0.81819   0.82160   0.82720   0.82932   0.83222
 Alpha virt. eigenvalues --    0.84598   0.84852   0.85392   0.86235   0.86287
 Alpha virt. eigenvalues --    0.86955   0.87194   0.87515   0.87835   0.88257
 Alpha virt. eigenvalues --    0.88800   0.89837   0.90123   0.90952   0.92691
 Alpha virt. eigenvalues --    0.93029   0.93670   0.95131   0.95963   0.97349
 Alpha virt. eigenvalues --    0.97818   0.98744   0.99381   1.00523   1.01601
 Alpha virt. eigenvalues --    1.02615   1.03974   1.04842   1.05145   1.05665
 Alpha virt. eigenvalues --    1.06303   1.07331   1.09576   1.12133   1.13172
 Alpha virt. eigenvalues --    1.15908   1.16849   1.18029   1.18994   1.21076
 Alpha virt. eigenvalues --    1.23104   1.23482   1.25343   1.26486   1.27209
 Alpha virt. eigenvalues --    1.27519   1.29463   1.31646   1.32064   1.32355
 Alpha virt. eigenvalues --    1.34564   1.35324   1.35939   1.36502   1.37732
 Alpha virt. eigenvalues --    1.38271   1.39082   1.39754   1.40483   1.40786
 Alpha virt. eigenvalues --    1.41966   1.43204   1.45026   1.46267   1.47542
 Alpha virt. eigenvalues --    1.50521   1.51419   1.51669   1.54625   1.55312
 Alpha virt. eigenvalues --    1.57410   1.57768   1.58663   1.59582   1.61565
 Alpha virt. eigenvalues --    1.62570   1.63941   1.64001   1.65061   1.66202
 Alpha virt. eigenvalues --    1.66486   1.68003   1.68145   1.69009   1.70356
 Alpha virt. eigenvalues --    1.70626   1.70760   1.71492   1.72246   1.72992
 Alpha virt. eigenvalues --    1.73170   1.74809   1.75737   1.77291   1.77703
 Alpha virt. eigenvalues --    1.78736   1.79171   1.79959   1.80679   1.82001
 Alpha virt. eigenvalues --    1.82366   1.82804   1.83246   1.84861   1.85236
 Alpha virt. eigenvalues --    1.86443   1.87178   1.87355   1.87871   1.88211
 Alpha virt. eigenvalues --    1.88750   1.90181   1.90705   1.92383   1.92505
 Alpha virt. eigenvalues --    1.94131   1.94586   1.94984   1.96655   1.96988
 Alpha virt. eigenvalues --    1.98213   1.99128   1.99845   2.00538   2.01100
 Alpha virt. eigenvalues --    2.02479   2.03715   2.03908   2.04283   2.05356
 Alpha virt. eigenvalues --    2.06122   2.06865   2.08022   2.09858   2.10374
 Alpha virt. eigenvalues --    2.11704   2.14182   2.14249   2.16732   2.17462
 Alpha virt. eigenvalues --    2.18619   2.19090   2.19978   2.20498   2.21368
 Alpha virt. eigenvalues --    2.21851   2.23734   2.25179   2.26691   2.28013
 Alpha virt. eigenvalues --    2.28316   2.29941   2.31100   2.31778   2.33737
 Alpha virt. eigenvalues --    2.34896   2.35104   2.36121   2.37027   2.37931
 Alpha virt. eigenvalues --    2.41351   2.42120   2.44583   2.45037   2.47009
 Alpha virt. eigenvalues --    2.47136   2.48010   2.49005   2.50667   2.51568
 Alpha virt. eigenvalues --    2.52447   2.54720   2.55270   2.56118   2.57125
 Alpha virt. eigenvalues --    2.58301   2.59709   2.60396   2.61760   2.63087
 Alpha virt. eigenvalues --    2.64098   2.64887   2.66443   2.68100   2.69776
 Alpha virt. eigenvalues --    2.71506   2.73056   2.74341   2.79528   2.80656
 Alpha virt. eigenvalues --    2.84803   2.87527   2.88252   2.91915   2.94576
 Alpha virt. eigenvalues --    2.99696   3.01802   3.07611   3.30079   3.67374
 Alpha virt. eigenvalues --    3.71995   3.78409   3.88834   3.96012   3.99522
 Alpha virt. eigenvalues --    4.02431   4.03423   4.05269   4.07607   4.08926
 Alpha virt. eigenvalues --    4.10861   4.13907   4.16189   4.20290   4.22614
 Alpha virt. eigenvalues --    4.24170   4.25194   4.32386   4.33401   4.34581
 Alpha virt. eigenvalues --    4.42683   4.43691   4.48266   4.52898   4.58129
 Alpha virt. eigenvalues --    4.60515   4.61811
          Condensed to atoms (all electrons):
 Mulliken charges:
               1
     1  N   -0.778164
     2  H    0.448299
     3  H    0.406235
     4  H    0.417984
     5  C   -0.116287
     6  H    0.220773
     7  C    0.632545
     8  C   -0.374369
     9  H    0.175803
    10  H    0.191347
    11  O   -0.535962
    12  C    0.151420
    13  C   -0.185453
    14  H    0.151271
    15  C   -0.191060
    16  H    0.141930
    17  C   -0.131655
    18  H    0.159827
    19  C   -0.127073
    20  H    0.163315
    21  C   -0.126364
    22  H    0.162779
    23  N   -0.469290
    24  C   -0.062910
    25  H    0.210505
    26  C    0.592931
    27  C   -0.310421
    28  H    0.194445
    29  H    0.188853
    30  O   -0.497601
    31  C   -0.321312
    32  H    0.163775
    33  H    0.192274
    34  C   -0.136400
    35  H    0.192523
    36  H    0.197498
    37  N   -0.619900
    38  H    0.346227
    39  C   -0.082290
    40  H    0.234792
    41  C    0.616648
    42  C   -0.259970
    43  H    0.162996
    44  H    0.185370
    45  O   -0.415913
    46  C   -0.286810
    47  H    0.114705
    48  H    0.153448
    49  C   -0.266275
    50  H    0.132105
    51  H    0.144993
    52  C   -0.139450
    53  H    0.134835
    54  H    0.147005
    55  N   -0.698561
    56  H    0.297738
    57  H    0.301510
    58  O   -0.627006
    59  H    0.431793
 Sum of Mulliken charges =   1.00000
 Mulliken charges with hydrogens summed into heavy atoms:
               1
     1  N    0.494353
     5  C    0.104486
     7  C    0.632545
     8  C   -0.007218
    11  O   -0.535962
    12  C    0.151420
    13  C   -0.034182
    15  C   -0.049130
    17  C    0.028172
    19  C    0.036243
    21  C    0.036415
    23  N   -0.469290
    24  C    0.147595
    26  C    0.592931
    27  C    0.072877
    30  O   -0.497601
    31  C    0.034737
    34  C    0.253621
    37  N   -0.273673
    39  C    0.152502
    41  C    0.616648
    42  C    0.088396
    45  O   -0.415913
    46  C   -0.018657
    49  C    0.010823
    52  C    0.142389
    55  N   -0.099313
    58  O   -0.195213
 Electronic spatial extent (au):  <R**2>=          15880.9985
 Charge=              1.0000 electrons
 Dipole moment (field-independent basis, Debye):
    X=             -8.8335    Y=             -1.8250    Z=            -11.4032  Tot=             14.5394
 Quadrupole moment (field-independent basis, Debye-Ang):
   XX=           -117.1712   YY=           -168.2460   ZZ=            -96.4886
   XY=             -1.9127   XZ=             13.4655   YZ=             -3.3060
 Traceless Quadrupole moment (field-independent basis, Debye-Ang):
   XX=             10.1308   YY=            -40.9441   ZZ=             30.8133
   XY=             -1.9127   XZ=             13.4655   YZ=             -3.3060
 Octapole moment (field-independent basis, Debye-Ang**2):
  XXX=            461.2004  YYY=            532.9665  ZZZ=            214.3659  XYY=            167.5347
  XXY=            146.8808  XXZ=            188.2295  XZZ=            185.0281  YZZ=            140.8464
  YYZ=            144.0195  XYZ=             19.4281
 Hexadecapole moment (field-independent basis, Debye-Ang**3):
 XXXX=         -10030.4847 YYYY=          -5339.6343 ZZZZ=          -3014.2022 XXXY=           1212.0218
 XXXZ=          -1749.8870 YYYX=           1660.3846 YYYZ=            823.4907 ZZZX=          -1570.8464
 ZZZY=            497.3532 XXYY=          -2604.8808 XXZZ=          -2591.0410 YYZZ=          -1637.2532
 XXYZ=            146.6035 YYXZ=           -814.3103 ZZXY=            385.3128
 N-N= 2.820668642193D+03 E-N=-8.641743141596D+03  KE= 1.288276342196D+03
 Unable to Open any file for archive entry.
 1\1\GINC-AMR-136\SP\RB3LYP\6-31G(d)\C20H31N4O4(1+)\KENGMITH\25-May-202
 2\0\\# B3LYP/6-31G* guess=read geom=check nosymm integral(ultrafinegri
 d)\\Candidate Structure: Conf:684 Charge calc in gas phase\\1,1\N,0,-1
 .478912158,-0.3547762532,-4.3121371707\H,0,-0.5170907814,-0.5122228157
 ,-3.9462418784\H,0,-1.4491872934,0.3279265508,-5.0752217687\H,0,-1.856
 2655356,-1.2625271675,-4.6510475332\C,0,-2.426402705,0.0532838816,-3.2
 00874502\H,0,-1.8957373467,0.7614635078,-2.5662599593\C,0,-2.751402385
 ,-1.3054022144,-2.533041416\C,0,-3.6890579807,0.6965176613,-3.81254375
 07\H,0,-3.3775328722,1.5739501294,-4.3954779571\H,0,-4.1406771503,-0.0
 232365901,-4.5050764408\O,0,-2.9498963498,-2.253641211,-3.3019533282\C
 ,0,-4.6950082435,1.1077914979,-2.7549593208\C,0,-5.7747086713,0.272142
 2402,-2.4405257206\H,0,-5.9081742736,-0.6636680355,-2.9785301079\C,0,-
 4.5481302377,2.3216109688,-2.0685493931\H,0,-3.7266877574,2.9911562576
 ,-2.3160969413\C,0,-6.6896454629,0.6417378388,-1.4531045168\H,0,-7.530
 581828,-0.0076489738,-1.2276316799\C,0,-5.461158668,2.6896056173,-1.07
 9171039\H,0,-5.3417405316,3.6363118613,-0.5607067819\C,0,-6.5328301968
 ,1.8489393403,-0.7694155052\H,0,-7.2494296288,2.1401769317,-0.00714176
 2\N,0,-2.7872070595,-1.3886871639,-1.1946876286\C,0,-2.3998775727,-0.3
 175708699,-0.2534860753\H,0,-2.9971253805,0.5832294447,-0.4118073775\C
 ,0,-0.9330073015,0.1302760067,-0.4059322294\C,0,-2.7133529466,-0.93855
 83416,1.1328403537\H,0,-2.0313019468,-0.5741676474,1.9047515494\H,0,-3
 .7273475367,-0.6464827979,1.4233669391\O,0,-0.6140146364,1.2747445398,
 -0.1216421303\C,0,-2.6388244946,-2.4584923806,0.9054550109\H,0,-1.6017
 260604,-2.8107816457,0.9617399533\H,0,-3.2138297504,-3.0209730804,1.64
 48698859\C,0,-3.1913242679,-2.6407787216,-0.5124114039\H,0,-4.28489597
 53,-2.7141235914,-0.5210586538\H,0,-2.7920713519,-3.5028282947,-1.0510
 008814\N,0,-0.0471424373,-0.7886207391,-0.9196067422\H,0,-0.3330929902
 ,-1.7583651656,-0.9587765096\C,0,1.3834248013,-0.4993176915,-0.9330184
 056\H,0,1.4485703275,0.5954692462,-0.8768549137\C,0,2.0516067051,-0.88
 87259906,-2.2471361846\C,0,2.1510697943,-1.0846396393,0.2720973368\H,0
 ,1.739899305,-0.6139626137,1.1729285738\H,0,3.1926112873,-0.7582783732
 ,0.1878720105\O,0,3.2220429165,-1.1239442986,-2.3815588882\C,0,2.09934
 18765,-2.6126642647,0.4008036791\H,0,1.0555557247,-2.9487350101,0.5078
 470523\H,0,2.4870549411,-3.074862916,-0.5172965711\C,0,2.9050017932,-3
 .1330320873,1.6002258608\H,0,2.5424958183,-2.6562095046,2.5230021307\H
 ,0,3.9563764031,-2.8324137045,1.4882197237\C,0,2.8287691688,-4.6632548
 596,1.757906611\H,0,1.7777224449,-4.9629261051,1.874071827\H,0,3.18176
 47796,-5.1408599976,0.8341492363\N,0,3.5793119254,-5.2403300456,2.8691
 138623\H,0,3.2806635493,-4.8298200106,3.7525116606\H,0,4.5715744576,-5
 .0298037155,2.7746540934\O,0,1.2100810859,-0.9155537082,-3.3508382106\
 H,0,1.805664751,-1.1522991655,-4.0907328611\\Version=ES64L-G16RevC.01\
 HF=-1300.525238\RMSD=5.039e-09\Dipole=-0.9920348,0.9131123,-2.443261\Q
 uadrupole=7.5319761,-30.4409194,22.9089433,-1.4220555,10.0112945,-2.45
 79596\PG=C01 [X(C20H31N4O4)]\\@
 The archive entry for this job was punched.


 K N O W I N G  IS A BARRIER WHICH PREVENTS LEARNING

                     -- TEACHING OF THE BENE GESSERIT
 Job cpu time:       0 days  0 hours  1 minutes  3.7 seconds.
 Elapsed time:       0 days  0 hours  0 minutes 16.3 seconds.
 File lengths (MBytes):  RWF=    240 Int=      0 D2E=      0 Chk=     32 Scr=     16
 Normal termination of Gaussian 16 at Wed May 25 07:54:30 2022.
