 Entering Gaussian System, Link 0=/opt/software/Gaussian/g16-AVX2-C.01/g16/g16
 Input=charge-conf-102.com
 Output=charge-conf-102.log
 Initial command:
 /opt/software/Gaussian/g16-AVX2-C.01/g16/l1.exe "/mnt/gs18/scratch/users/kengmith/Gau-18261.inp" -scrdir="/mnt/gs18/scratch/users/kengmith/"
 Entering Link 1 = /opt/software/Gaussian/g16-AVX2-C.01/g16/l1.exe PID=     18271.
  
 Copyright (c) 1988-2019, Gaussian, Inc.  All Rights Reserved.
  
 This is part of the Gaussian(R) 16 program.  It is based on
 the Gaussian(R) 09 system (copyright 2009, Gaussian, Inc.),
 the Gaussian(R) 03 system (copyright 2003, Gaussian, Inc.),
 the Gaussian(R) 98 system (copyright 1998, Gaussian, Inc.),
 the Gaussian(R) 94 system (copyright 1995, Gaussian, Inc.),
 the Gaussian 92(TM) system (copyright 1992, Gaussian, Inc.),
 the Gaussian 90(TM) system (copyright 1990, Gaussian, Inc.),
 the Gaussian 88(TM) system (copyright 1988, Gaussian, Inc.),
 the Gaussian 86(TM) system (copyright 1986, Carnegie Mellon
 University), and the Gaussian 82(TM) system (copyright 1983,
 Carnegie Mellon University). Gaussian is a federally registered
 trademark of Gaussian, Inc.
  
 This software contains proprietary and confidential information,
 including trade secrets, belonging to Gaussian, Inc.
  
 This software is provided under written license and may be
 used, copied, transmitted, or stored only in accord with that
 written license.
  
 The following legend is applicable only to US Government
 contracts under FAR:
  
                    RESTRICTED RIGHTS LEGEND
  
 Use, reproduction and disclosure by the US Government is
 subject to restrictions as set forth in subparagraphs (a)
 and (c) of the Commercial Computer Software - Restricted
 Rights clause in FAR 52.227-19.
  
 Gaussian, Inc.
 340 Quinnipiac St., Bldg. 40, Wallingford CT 06492
  
  
 ---------------------------------------------------------------
 Warning -- This program may not be used in any manner that
 competes with the business of Gaussian, Inc. or will provide
 assistance to any competitor of Gaussian, Inc.  The licensee
 of this program is prohibited from giving any competitor of
 Gaussian, Inc. access to this program.  By using this program,
 the user acknowledges that Gaussian, Inc. is engaged in the
 business of creating and licensing software in the field of
 computational chemistry and represents and warrants to the
 licensee that it is not a competitor of Gaussian, Inc. and that
 it will not use this program in any manner prohibited above.
 ---------------------------------------------------------------
  

 Cite this work as:
 Gaussian 16, Revision C.01,
 M. J. Frisch, G. W. Trucks, H. B. Schlegel, G. E. Scuseria, 
 M. A. Robb, J. R. Cheeseman, G. Scalmani, V. Barone, 
 G. A. Petersson, H. Nakatsuji, X. Li, M. Caricato, A. V. Marenich, 
 J. Bloino, B. G. Janesko, R. Gomperts, B. Mennucci, H. P. Hratchian, 
 J. V. Ortiz, A. F. Izmaylov, J. L. Sonnenberg, D. Williams-Young, 
 F. Ding, F. Lipparini, F. Egidi, J. Goings, B. Peng, A. Petrone, 
 T. Henderson, D. Ranasinghe, V. G. Zakrzewski, J. Gao, N. Rega, 
 G. Zheng, W. Liang, M. Hada, M. Ehara, K. Toyota, R. Fukuda, 
 J. Hasegawa, M. Ishida, T. Nakajima, Y. Honda, O. Kitao, H. Nakai, 
 T. Vreven, K. Throssell, J. A. Montgomery, Jr., J. E. Peralta, 
 F. Ogliaro, M. J. Bearpark, J. J. Heyd, E. N. Brothers, K. N. Kudin, 
 V. N. Staroverov, T. A. Keith, R. Kobayashi, J. Normand, 
 K. Raghavachari, A. P. Rendell, J. C. Burant, S. S. Iyengar, 
 J. Tomasi, M. Cossi, J. M. Millam, M. Klene, C. Adamo, R. Cammi, 
 J. W. Ochterski, R. L. Martin, K. Morokuma, O. Farkas, 
 J. B. Foresman, and D. J. Fox, Gaussian, Inc., Wallingford CT, 2019.
 
 ******************************************
 Gaussian 16:  ES64L-G16RevC.01  3-Jul-2019
                25-May-2022 
 ******************************************
 %mem=8gb
 %nproc=4
 Will use up to    4 processors via shared memory.
 %chk=conf-102.chk
 -------------------------------------------------------------------
 # B3LYP/6-31G* guess=read geom=check nosymm integral(ultrafinegrid)
 -------------------------------------------------------------------
 1/29=2,38=1,172=1/1;
 2/12=2,15=1,40=1/2;
 3/5=1,6=6,7=1,11=2,14=-4,25=1,30=1,74=-5,75=-5,116=-2/1,2,3;
 4/5=1/1;
 5/5=2,38=6/2;
 6/7=2,8=2,9=2,10=2,28=1/1;
 99/5=1,9=1/99;
 ------------------------------------------------------
 Candidate Structure: Conf:102 Charge calc in gas phase
 ------------------------------------------------------
 Structure from the checkpoint file:  "conf-102.chk"
 Charge =  1 Multiplicity = 1
 Redundant internal coordinates found in file.  (old form).
 N,0,-2.6425191491,-2.5283597737,2.1537321122
 H,0,-3.3905414449,-3.0139441087,2.6522972411
 H,0,-1.7071401431,-3.0767590961,2.2729352638
 H,0,-2.8085359574,-2.5255781149,1.1259425947
 C,0,-2.5320929513,-1.0654506199,2.5357009173
 H,0,-3.4524675736,-0.7768949998,3.0509270211
 C,0,-2.3836132356,-0.3506589821,1.1646338743
 C,0,-1.3069956412,-0.9027284673,3.478804108
 H,0,-1.3635057359,-1.7297209419,4.1998776302
 H,0,-0.3995967514,-1.0596636716,2.8857379234
 O,0,-2.1981512211,-1.0839177385,0.1756589007
 C,0,-1.2053681203,0.3984518386,4.2453312025
 C,0,-0.2325092407,1.349373492,3.9113674097
 H,0,0.4202875189,1.1861886816,3.0581023736
 C,0,-2.0601790321,0.6472407576,5.328493501
 H,0,-2.804218774,-0.0938713048,5.6168438426
 C,0,-0.1239390574,2.5326182016,4.6455321817
 H,0,0.6347903654,3.2617634233,4.3767959033
 C,0,-1.9560982172,1.831688032,6.0572782382
 H,0,-2.6221263606,2.0108968714,6.8963330688
 C,0,-0.9853816841,2.7771693427,5.7166563044
 H,0,-0.8974930118,3.6962873777,6.2885710211
 N,0,-2.361892596,0.9834304414,1.0805341914
 C,0,-1.8557521197,1.5956745176,-0.1803934763
 H,0,-2.4091814026,1.1724941443,-1.024669349
 C,0,-0.3440309967,1.2782892808,-0.2833553058
 C,0,-2.1476554389,3.0933277696,0.0110498462
 H,0,-1.2682398722,3.5676314207,0.4573203466
 H,0,-2.3646687996,3.5860001332,-0.939772509
 O,0,0.4576240911,1.7745743862,0.5062848211
 C,0,-3.3301048778,3.1210483119,0.9928454931
 H,0,-3.435401135,4.0813605858,1.5044485597
 H,0,-4.2719198729,2.9052092504,0.4756512876
 C,0,-2.9857225575,1.991847109,1.9718764519
 H,0,-3.8586899933,1.5671573073,2.4752211275
 H,0,-2.2723638694,2.3301749245,2.7245959667
 N,0,0.0009876931,0.411004436,-1.2594565958
 H,0,-0.7102552017,-0.0451488503,-1.8194870011
 C,0,1.3610226651,-0.0729705983,-1.4446451187
 H,0,2.0407821517,0.7851285646,-1.4779945829
 C,0,1.3962595413,-0.7752669579,-2.7962018389
 C,0,1.8541549113,-1.0158990582,-0.3124574016
 H,0,1.8862273748,-0.4150349298,0.6026207601
 H,0,2.8880620742,-1.2964128059,-0.5466580619
 O,0,0.4115956147,-1.104398407,-3.4227502884
 C,0,0.9979469673,-2.2723136991,-0.0927525592
 H,0,-0.0294820611,-1.9794633568,0.1465980824
 H,0,0.9375322028,-2.8552657619,-1.0225370865
 C,0,1.5701781183,-3.1763009849,1.0108716141
 H,0,1.7681393474,-2.5888557377,1.9208538389
 H,0,2.5502210283,-3.5498571891,0.6892538875
 C,0,0.7015352013,-4.3914704263,1.374781649
 H,0,0.1574258841,-4.7508702061,0.4946267523
 H,0,1.3455675853,-5.2128144323,1.7131730789
 N,0,-0.312468156,-4.0938384954,2.4372461275
 H,0,0.1922215981,-3.770601383,3.2657826986
 H,0,-0.7269759207,-4.9845279665,2.7223721654
 O,0,2.656123193,-1.0201194498,-3.1949065344
 H,0,2.6034573965,-1.483790366,-4.0529871606
 Recover connectivity data from disk.
                           ----------------------------
                           !    Current Parameters    !
                           ! (Angstroms and Degrees)  !
 --------------------------                            --------------------------
 ! Name  Definition              Value                                          !
 --------------------------------------------------------------------------------
 ! R1    R(1,2)                  1.0217                                         !
 ! R2    R(1,3)                  1.0908                                         !
 ! R3    R(1,4)                  1.0411                                         !
 ! R4    R(1,5)                  1.516                                          !
 ! R5    R(5,6)                  1.0935                                         !
 ! R6    R(5,7)                  1.5533                                         !
 ! R7    R(5,8)                  1.5546                                         !
 ! R8    R(7,11)                 1.245                                          !
 ! R9    R(7,23)                 1.3369                                         !
 ! R10   R(8,9)                  1.0987                                         !
 ! R11   R(8,10)                 1.0953                                         !
 ! R12   R(8,12)                 1.5136                                         !
 ! R13   R(12,13)                1.4008                                         !
 ! R14   R(12,15)                1.4021                                         !
 ! R15   R(13,14)                1.0867                                         !
 ! R16   R(13,17)                1.3967                                         !
 ! R17   R(15,16)                1.089                                          !
 ! R18   R(15,19)                1.3946                                         !
 ! R19   R(17,18)                1.0861                                         !
 ! R20   R(17,21)                1.3961                                         !
 ! R21   R(19,20)                1.0862                                         !
 ! R22   R(19,21)                1.3972                                         !
 ! R23   R(21,22)                1.0861                                         !
 ! R24   R(23,24)                1.4903                                         !
 ! R25   R(23,34)                1.4834                                         !
 ! R26   R(24,25)                1.0946                                         !
 ! R27   R(24,26)                1.5481                                         !
 ! R28   R(24,27)                1.5378                                         !
 ! R29   R(26,30)                1.2298                                         !
 ! R30   R(26,37)                1.3506                                         !
 ! R31   R(27,28)                1.0943                                         !
 ! R32   R(27,29)                1.0926                                         !
 ! R33   R(27,31)                1.5372                                         !
 ! R34   R(31,32)                1.0932                                         !
 ! R35   R(31,33)                1.0959                                         !
 ! R36   R(31,34)                1.5337                                         !
 ! R37   R(34,35)                1.0935                                         !
 ! R38   R(34,36)                1.0908                                         !
 ! R39   R(37,38)                1.0137                                         !
 ! R40   R(37,39)                1.4554                                         !
 ! R41   R(39,40)                1.0952                                         !
 ! R42   R(39,41)                1.5235                                         !
 ! R43   R(39,42)                1.5538                                         !
 ! R44   R(41,45)                1.2126                                         !
 ! R45   R(41,58)                1.3439                                         !
 ! R46   R(42,43)                1.0952                                         !
 ! R47   R(42,44)                1.0966                                         !
 ! R48   R(42,46)                1.5362                                         !
 ! R49   R(46,47)                1.0948                                         !
 ! R50   R(46,48)                1.0991                                         !
 ! R51   R(46,49)                1.5371                                         !
 ! R52   R(49,50)                1.1011                                         !
 ! R53   R(49,51)                1.097                                          !
 ! R54   R(49,52)                1.5374                                         !
 ! R55   R(52,53)                1.0954                                         !
 ! R56   R(52,54)                1.0972                                         !
 ! R57   R(52,55)                1.4985                                         !
 ! R58   R(55,56)                1.0226                                         !
 ! R59   R(55,57)                1.023                                          !
 ! R60   R(58,59)                0.9768                                         !
 ! A1    A(2,1,3)              109.6053                                         !
 ! A2    A(2,1,4)              111.4845                                         !
 ! A3    A(2,1,5)              112.8927                                         !
 ! A4    A(3,1,4)              104.2386                                         !
 ! A5    A(3,1,5)              113.275                                          !
 ! A6    A(4,1,5)              104.938                                          !
 ! A7    A(1,5,6)              108.1824                                         !
 ! A8    A(1,5,7)              103.2161                                         !
 ! A9    A(1,5,8)              108.1353                                         !
 ! A10   A(6,5,7)              112.0182                                         !
 ! A11   A(6,5,8)              110.4758                                         !
 ! A12   A(7,5,8)              114.3292                                         !
 ! A13   A(5,7,11)             116.3821                                         !
 ! A14   A(5,7,23)             121.0828                                         !
 ! A15   A(11,7,23)            122.3649                                         !
 ! A16   A(5,8,9)              106.1907                                         !
 ! A17   A(5,8,10)             108.0213                                         !
 ! A18   A(5,8,12)             116.7514                                         !
 ! A19   A(9,8,10)             106.8657                                         !
 ! A20   A(9,8,12)             108.5521                                         !
 ! A21   A(10,8,12)            109.9838                                         !
 ! A22   A(8,12,13)            120.6285                                         !
 ! A23   A(8,12,15)            120.1881                                         !
 ! A24   A(13,12,15)           119.153                                          !
 ! A25   A(12,13,14)           120.1638                                         !
 ! A26   A(12,13,17)           120.2486                                         !
 ! A27   A(14,13,17)           119.5548                                         !
 ! A28   A(12,15,16)           120.022                                          !
 ! A29   A(12,15,19)           120.5917                                         !
 ! A30   A(16,15,19)           119.3802                                         !
 ! A31   A(13,17,18)           119.5372                                         !
 ! A32   A(13,17,21)           120.2448                                         !
 ! A33   A(18,17,21)           120.2179                                         !
 ! A34   A(15,19,20)           119.872                                          !
 ! A35   A(15,19,21)           119.9452                                         !
 ! A36   A(20,19,21)           120.1783                                         !
 ! A37   A(17,21,19)           119.8132                                         !
 ! A38   A(17,21,22)           120.1523                                         !
 ! A39   A(19,21,22)           120.0331                                         !
 ! A40   A(7,23,24)            117.9497                                         !
 ! A41   A(7,23,34)            129.3252                                         !
 ! A42   A(24,23,34)           111.8355                                         !
 ! A43   A(23,24,25)           108.7875                                         !
 ! A44   A(23,24,26)           107.6794                                         !
 ! A45   A(23,24,27)           103.3146                                         !
 ! A46   A(25,24,26)           111.2941                                         !
 ! A47   A(25,24,27)           112.1208                                         !
 ! A48   A(26,24,27)           113.16                                           !
 ! A49   A(24,26,30)           120.7363                                         !
 ! A50   A(24,26,37)           115.4157                                         !
 ! A51   A(30,26,37)           123.8259                                         !
 ! A52   A(24,27,28)           108.6835                                         !
 ! A53   A(24,27,29)           111.6227                                         !
 ! A54   A(24,27,31)           104.0691                                         !
 ! A55   A(28,27,29)           108.6059                                         !
 ! A56   A(28,27,31)           110.4811                                         !
 ! A57   A(29,27,31)           113.259                                          !
 ! A58   A(27,31,32)           112.8829                                         !
 ! A59   A(27,31,33)           110.8603                                         !
 ! A60   A(27,31,34)           102.8096                                         !
 ! A61   A(32,31,33)           108.1249                                         !
 ! A62   A(32,31,34)           111.6949                                         !
 ! A63   A(33,31,34)           110.4391                                         !
 ! A64   A(23,34,31)           102.2026                                         !
 ! A65   A(23,34,35)           110.3823                                         !
 ! A66   A(23,34,36)           110.5148                                         !
 ! A67   A(31,34,35)           113.6105                                         !
 ! A68   A(31,34,36)           111.0371                                         !
 ! A69   A(35,34,36)           108.9588                                         !
 ! A70   A(26,37,38)           120.5984                                         !
 ! A71   A(26,37,39)           122.9721                                         !
 ! A72   A(38,37,39)           115.8312                                         !
 ! A73   A(37,39,40)           108.8639                                         !
 ! A74   A(37,39,41)           106.7249                                         !
 ! A75   A(37,39,42)           113.9332                                         !
 ! A76   A(40,39,41)           108.6505                                         !
 ! A77   A(40,39,42)           107.4986                                         !
 ! A78   A(41,39,42)           111.0595                                         !
 ! A79   A(39,41,45)           124.3814                                         !
 ! A80   A(39,41,58)           111.6444                                         !
 ! A81   A(45,41,58)           123.9506                                         !
 ! A82   A(39,42,43)           106.5699                                         !
 ! A83   A(39,42,44)           107.3889                                         !
 ! A84   A(39,42,46)           115.066                                          !
 ! A85   A(43,42,44)           106.9289                                         !
 ! A86   A(43,42,46)           110.2147                                         !
 ! A87   A(44,42,46)           110.2931                                         !
 ! A88   A(42,46,47)           109.6052                                         !
 ! A89   A(42,46,48)           110.0869                                         !
 ! A90   A(42,46,49)           112.0983                                         !
 ! A91   A(47,46,48)           105.9759                                         !
 ! A92   A(47,46,49)           110.4695                                         !
 ! A93   A(48,46,49)           108.4168                                         !
 ! A94   A(46,49,50)           110.2765                                         !
 ! A95   A(46,49,51)           108.8052                                         !
 ! A96   A(46,49,52)           115.1166                                         !
 ! A97   A(50,49,51)           105.2689                                         !
 ! A98   A(50,49,52)           109.1266                                         !
 ! A99   A(51,49,52)           107.7585                                         !
 ! A100  A(49,52,53)           110.4745                                         !
 ! A101  A(49,52,54)           109.4529                                         !
 ! A102  A(49,52,55)           113.151                                          !
 ! A103  A(53,52,54)           107.0833                                         !
 ! A104  A(53,52,55)           107.3817                                         !
 ! A105  A(54,52,55)           109.0985                                         !
 ! A106  A(52,55,56)           107.6548                                         !
 ! A107  A(52,55,57)           107.3898                                         !
 ! A108  A(56,55,57)           104.4408                                         !
 ! A109  A(41,58,59)           107.2512                                         !
 ! D1    D(2,1,5,6)            -15.8202                                         !
 ! D2    D(2,1,5,7)           -134.6673                                         !
 ! D3    D(2,1,5,8)            103.8509                                         !
 ! D4    D(3,1,5,6)           -141.1396                                         !
 ! D5    D(3,1,5,7)            100.0133                                         !
 ! D6    D(3,1,5,8)            -21.4685                                         !
 ! D7    D(4,1,5,6)            105.7891                                         !
 ! D8    D(4,1,5,7)            -13.058                                          !
 ! D9    D(4,1,5,8)           -134.5398                                         !
 ! D10   D(1,5,7,11)            -9.8742                                         !
 ! D11   D(1,5,7,23)           174.7586                                         !
 ! D12   D(6,5,7,11)          -126.0241                                         !
 ! D13   D(6,5,7,23)            58.6087                                         !
 ! D14   D(8,5,7,11)           107.3242                                         !
 ! D15   D(8,5,7,23)           -68.043                                          !
 ! D16   D(1,5,8,9)            -44.4453                                         !
 ! D17   D(1,5,8,10)            69.8951                                         !
 ! D18   D(1,5,8,12)          -165.6017                                         !
 ! D19   D(6,5,8,9)             73.771                                          !
 ! D20   D(6,5,8,10)          -171.8886                                         !
 ! D21   D(6,5,8,12)           -47.3854                                         !
 ! D22   D(7,5,8,9)           -158.7828                                         !
 ! D23   D(7,5,8,10)           -44.4424                                         !
 ! D24   D(7,5,8,12)            80.0608                                         !
 ! D25   D(5,7,23,24)          163.7648                                         !
 ! D26   D(5,7,23,34)          -28.0049                                         !
 ! D27   D(11,7,23,24)         -11.321                                          !
 ! D28   D(11,7,23,34)         156.9093                                         !
 ! D29   D(5,8,12,13)         -108.5462                                         !
 ! D30   D(5,8,12,15)           73.4743                                         !
 ! D31   D(9,8,12,13)          131.5501                                         !
 ! D32   D(9,8,12,15)          -46.4294                                         !
 ! D33   D(10,8,12,13)          14.955                                          !
 ! D34   D(10,8,12,15)        -163.0245                                         !
 ! D35   D(8,12,13,14)           3.7106                                         !
 ! D36   D(8,12,13,17)        -178.3811                                         !
 ! D37   D(15,12,13,14)       -178.2892                                         !
 ! D38   D(15,12,13,17)         -0.3809                                         !
 ! D39   D(8,12,15,16)          -0.3828                                         !
 ! D40   D(8,12,15,19)         178.7148                                         !
 ! D41   D(13,12,15,16)       -178.392                                          !
 ! D42   D(13,12,15,19)          0.7055                                         !
 ! D43   D(12,13,17,18)        179.9753                                         !
 ! D44   D(12,13,17,21)         -0.0823                                         !
 ! D45   D(14,13,17,18)         -2.1036                                         !
 ! D46   D(14,13,17,21)        177.8388                                         !
 ! D47   D(12,15,19,20)       -179.7945                                         !
 ! D48   D(12,15,19,21)         -0.5647                                         !
 ! D49   D(16,15,19,20)         -0.6912                                         !
 ! D50   D(16,15,19,21)        178.5386                                         !
 ! D51   D(13,17,21,19)          0.2286                                         !
 ! D52   D(13,17,21,22)        179.7982                                         !
 ! D53   D(18,17,21,19)       -179.8294                                         !
 ! D54   D(18,17,21,22)         -0.2598                                         !
 ! D55   D(15,19,21,17)          0.0933                                         !
 ! D56   D(15,19,21,22)       -179.4768                                         !
 ! D57   D(20,19,21,17)        179.3207                                         !
 ! D58   D(20,19,21,22)         -0.2494                                         !
 ! D59   D(7,23,24,25)          53.5866                                         !
 ! D60   D(7,23,24,26)         -67.1465                                         !
 ! D61   D(7,23,24,27)         172.8778                                         !
 ! D62   D(34,23,24,25)       -116.6265                                         !
 ! D63   D(34,23,24,26)        122.6404                                         !
 ! D64   D(34,23,24,27)          2.6647                                         !
 ! D65   D(7,23,34,31)        -147.4428                                         !
 ! D66   D(7,23,34,35)         -26.2785                                         !
 ! D67   D(7,23,34,36)          94.3242                                         !
 ! D68   D(24,23,34,31)         21.3643                                         !
 ! D69   D(24,23,34,35)        142.5287                                         !
 ! D70   D(24,23,34,36)        -96.8686                                         !
 ! D71   D(23,24,26,30)        -67.6582                                         !
 ! D72   D(23,24,26,37)        110.6949                                         !
 ! D73   D(25,24,26,30)        173.1965                                         !
 ! D74   D(25,24,26,37)         -8.4504                                         !
 ! D75   D(27,24,26,30)         45.8733                                         !
 ! D76   D(27,24,26,37)       -135.7736                                         !
 ! D77   D(23,24,27,28)         92.0002                                         !
 ! D78   D(23,24,27,29)       -148.2414                                         !
 ! D79   D(23,24,27,31)        -25.7445                                         !
 ! D80   D(25,24,27,28)       -151.0347                                         !
 ! D81   D(25,24,27,29)        -31.2763                                         !
 ! D82   D(25,24,27,31)         91.2207                                         !
 ! D83   D(26,24,27,28)        -24.1466                                         !
 ! D84   D(26,24,27,29)         95.6118                                         !
 ! D85   D(26,24,27,31)       -141.8912                                         !
 ! D86   D(24,26,37,38)         -4.9018                                         !
 ! D87   D(24,26,37,39)       -175.6586                                         !
 ! D88   D(30,26,37,38)        173.3942                                         !
 ! D89   D(30,26,37,39)          2.6374                                         !
 ! D90   D(24,27,31,32)        159.588                                          !
 ! D91   D(24,27,31,33)        -78.9331                                         !
 ! D92   D(24,27,31,34)         39.094                                          !
 ! D93   D(28,27,31,32)         43.0919                                         !
 ! D94   D(28,27,31,33)        164.5708                                         !
 ! D95   D(28,27,31,34)        -77.402                                          !
 ! D96   D(29,27,31,32)        -78.9985                                         !
 ! D97   D(29,27,31,33)         42.4804                                         !
 ! D98   D(29,27,31,34)        160.5076                                         !
 ! D99   D(27,31,34,23)        -36.4749                                         !
 ! D100  D(27,31,34,35)       -155.3836                                         !
 ! D101  D(27,31,34,36)         81.3862                                         !
 ! D102  D(32,31,34,23)       -157.7825                                         !
 ! D103  D(32,31,34,35)         83.3088                                         !
 ! D104  D(32,31,34,36)        -39.9215                                         !
 ! D105  D(33,31,34,23)         81.8486                                         !
 ! D106  D(33,31,34,35)        -37.0601                                         !
 ! D107  D(33,31,34,36)       -160.2904                                         !
 ! D108  D(26,37,39,40)        -51.0994                                         !
 ! D109  D(26,37,39,41)       -168.1991                                         !
 ! D110  D(26,37,39,42)         68.8532                                         !
 ! D111  D(38,37,39,40)        137.7366                                         !
 ! D112  D(38,37,39,41)         20.6369                                         !
 ! D113  D(38,37,39,42)       -102.3108                                         !
 ! D114  D(37,39,41,45)        -14.4722                                         !
 ! D115  D(37,39,41,58)        167.2425                                         !
 ! D116  D(40,39,41,45)       -131.7132                                         !
 ! D117  D(40,39,41,58)         50.0016                                         !
 ! D118  D(42,39,41,45)        110.251                                          !
 ! D119  D(42,39,41,58)        -68.0343                                         !
 ! D120  D(37,39,42,43)        -64.5051                                         !
 ! D121  D(37,39,42,44)       -178.8061                                         !
 ! D122  D(37,39,42,46)         57.9851                                         !
 ! D123  D(40,39,42,43)         56.2137                                         !
 ! D124  D(40,39,42,44)        -58.0873                                         !
 ! D125  D(40,39,42,46)        178.704                                          !
 ! D126  D(41,39,42,43)        174.9453                                         !
 ! D127  D(41,39,42,44)         60.6443                                         !
 ! D128  D(41,39,42,46)        -62.5644                                         !
 ! D129  D(39,41,58,59)        178.9068                                         !
 ! D130  D(45,41,58,59)          0.6128                                         !
 ! D131  D(39,42,46,47)        -58.7226                                         !
 ! D132  D(39,42,46,48)         57.4672                                         !
 ! D133  D(39,42,46,49)        178.2335                                         !
 ! D134  D(43,42,46,47)         61.7896                                         !
 ! D135  D(43,42,46,48)        177.9794                                         !
 ! D136  D(43,42,46,49)        -61.2543                                         !
 ! D137  D(44,42,46,47)        179.6287                                         !
 ! D138  D(44,42,46,48)        -64.1815                                         !
 ! D139  D(44,42,46,49)         56.5848                                         !
 ! D140  D(42,46,49,50)         50.8493                                         !
 ! D141  D(42,46,49,51)        -64.136                                          !
 ! D142  D(42,46,49,52)        174.834                                          !
 ! D143  D(47,46,49,50)        -71.7055                                         !
 ! D144  D(47,46,49,51)        173.3092                                         !
 ! D145  D(47,46,49,52)         52.2792                                         !
 ! D146  D(48,46,49,50)        172.577                                          !
 ! D147  D(48,46,49,51)         57.5917                                         !
 ! D148  D(48,46,49,52)        -63.4384                                         !
 ! D149  D(46,49,52,53)         32.255                                          !
 ! D150  D(46,49,52,54)        149.9282                                         !
 ! D151  D(46,49,52,55)        -88.1734                                         !
 ! D152  D(50,49,52,53)        156.8436                                         !
 ! D153  D(50,49,52,54)        -85.4831                                         !
 ! D154  D(50,49,52,55)         36.4153                                         !
 ! D155  D(51,49,52,53)        -89.3435                                         !
 ! D156  D(51,49,52,54)         28.3298                                         !
 ! D157  D(51,49,52,55)        150.2282                                         !
 ! D158  D(49,52,55,56)        -58.6259                                         !
 ! D159  D(49,52,55,57)       -170.5834                                         !
 ! D160  D(53,52,55,56)        179.2011                                         !
 ! D161  D(53,52,55,57)         67.2437                                         !
 ! D162  D(54,52,55,56)         63.4708                                         !
 ! D163  D(54,52,55,57)        -48.4866                                         !
 --------------------------------------------------------------------------------
 Symmetry turned off by external request.
 Stoichiometry    C20H31N4O4(1+)
 Framework group  C1[X(C20H31N4O4)]
 Deg. of freedom   171
 Full point group                 C1      NOp   1
                          Input orientation:                          
 ---------------------------------------------------------------------
 Center     Atomic      Atomic             Coordinates (Angstroms)
 Number     Number       Type             X           Y           Z
 ---------------------------------------------------------------------
      1          7           0       -2.642519   -2.528360    2.153732
      2          1           0       -3.390541   -3.013944    2.652297
      3          1           0       -1.707140   -3.076759    2.272935
      4          1           0       -2.808536   -2.525578    1.125943
      5          6           0       -2.532093   -1.065451    2.535701
      6          1           0       -3.452468   -0.776895    3.050927
      7          6           0       -2.383613   -0.350659    1.164634
      8          6           0       -1.306996   -0.902728    3.478804
      9          1           0       -1.363506   -1.729721    4.199878
     10          1           0       -0.399597   -1.059664    2.885738
     11          8           0       -2.198151   -1.083918    0.175659
     12          6           0       -1.205368    0.398452    4.245331
     13          6           0       -0.232509    1.349373    3.911367
     14          1           0        0.420288    1.186189    3.058102
     15          6           0       -2.060179    0.647241    5.328494
     16          1           0       -2.804219   -0.093871    5.616844
     17          6           0       -0.123939    2.532618    4.645532
     18          1           0        0.634790    3.261763    4.376796
     19          6           0       -1.956098    1.831688    6.057278
     20          1           0       -2.622126    2.010897    6.896333
     21          6           0       -0.985382    2.777169    5.716656
     22          1           0       -0.897493    3.696287    6.288571
     23          7           0       -2.361893    0.983430    1.080534
     24          6           0       -1.855752    1.595675   -0.180393
     25          1           0       -2.409181    1.172494   -1.024669
     26          6           0       -0.344031    1.278289   -0.283355
     27          6           0       -2.147655    3.093328    0.011050
     28          1           0       -1.268240    3.567631    0.457320
     29          1           0       -2.364669    3.586000   -0.939773
     30          8           0        0.457624    1.774574    0.506285
     31          6           0       -3.330105    3.121048    0.992845
     32          1           0       -3.435401    4.081361    1.504449
     33          1           0       -4.271920    2.905209    0.475651
     34          6           0       -2.985723    1.991847    1.971876
     35          1           0       -3.858690    1.567157    2.475221
     36          1           0       -2.272364    2.330175    2.724596
     37          7           0        0.000988    0.411004   -1.259457
     38          1           0       -0.710255   -0.045149   -1.819487
     39          6           0        1.361023   -0.072971   -1.444645
     40          1           0        2.040782    0.785129   -1.477995
     41          6           0        1.396260   -0.775267   -2.796202
     42          6           0        1.854155   -1.015899   -0.312457
     43          1           0        1.886227   -0.415035    0.602621
     44          1           0        2.888062   -1.296413   -0.546658
     45          8           0        0.411596   -1.104398   -3.422750
     46          6           0        0.997947   -2.272314   -0.092753
     47          1           0       -0.029482   -1.979463    0.146598
     48          1           0        0.937532   -2.855266   -1.022537
     49          6           0        1.570178   -3.176301    1.010872
     50          1           0        1.768139   -2.588856    1.920854
     51          1           0        2.550221   -3.549857    0.689254
     52          6           0        0.701535   -4.391470    1.374782
     53          1           0        0.157426   -4.750870    0.494627
     54          1           0        1.345568   -5.212814    1.713173
     55          7           0       -0.312468   -4.093838    2.437246
     56          1           0        0.192222   -3.770601    3.265783
     57          1           0       -0.726976   -4.984528    2.722372
     58          8           0        2.656123   -1.020119   -3.194907
     59          1           0        2.603457   -1.483790   -4.052987
 ---------------------------------------------------------------------
 Rotational constants (GHZ):           0.2323263           0.1313882           0.1072358
 Standard basis: 6-31G(d) (6D, 7F)
   482 basis functions,   908 primitive gaussians,   482 cartesian basis functions
   105 alpha electrons      105 beta electrons
       nuclear repulsion energy      2906.7944770410 Hartrees.
 NAtoms=   59 NActive=   59 NUniq=   59 SFac= 1.00D+00 NAtFMM=   60 NAOKFM=F Big=F
 Integral buffers will be    131072 words long.
 Raffenetti 2 integral format.
 Two-electron integral symmetry is turned off.
 One-electron integrals computed using PRISM.
 NBasis=   482 RedAO= T EigKep=  4.62D-04  NBF=   482
 NBsUse=   482 1.00D-06 EigRej= -1.00D+00 NBFU=   482
 Initial guess from the checkpoint file:  "conf-102.chk"
 B after Tr=     0.000000    0.000000    0.000000
         Rot=    1.000000    0.000000    0.000000    0.000000 Ang=   0.00 deg.
 Requested convergence on RMS density matrix=1.00D-08 within 128 cycles.
 Requested convergence on MAX density matrix=1.00D-06.
 Requested convergence on             energy=1.00D-06.
 No special actions if energy rises.
 SCF Done:  E(RB3LYP) =  -1300.54648349     A.U. after    1 cycles
            NFock=  1  Conv=0.79D-08     -V/T= 2.0095

 **********************************************************************

            Population analysis using the SCF Density.

 **********************************************************************

 Alpha  occ. eigenvalues --  -19.29134 -19.25654 -19.23691 -19.20958 -14.56046
 Alpha  occ. eigenvalues --  -14.49301 -14.47684 -14.45517 -10.42499 -10.41651
 Alpha  occ. eigenvalues --  -10.39670 -10.38345 -10.33835 -10.33361 -10.33293
 Alpha  occ. eigenvalues --  -10.33270 -10.33255 -10.30309 -10.29332 -10.29179
 Alpha  occ. eigenvalues --  -10.29135 -10.28710 -10.28593 -10.28456 -10.28366
 Alpha  occ. eigenvalues --  -10.28315 -10.28278 -10.28020  -1.20199  -1.17960
 Alpha  occ. eigenvalues --   -1.12934  -1.11293  -1.10841  -1.06414  -1.02536
 Alpha  occ. eigenvalues --   -1.02066  -0.95967  -0.92185  -0.90257  -0.89858
 Alpha  occ. eigenvalues --   -0.87085  -0.85157  -0.84359  -0.84035  -0.80165
 Alpha  occ. eigenvalues --   -0.78753  -0.76083  -0.73622  -0.72338  -0.72201
 Alpha  occ. eigenvalues --   -0.70322  -0.70138  -0.69767  -0.69220  -0.66836
 Alpha  occ. eigenvalues --   -0.66500  -0.66226  -0.63053  -0.62665  -0.62064
 Alpha  occ. eigenvalues --   -0.61818  -0.60525  -0.59850  -0.58828  -0.58165
 Alpha  occ. eigenvalues --   -0.58026  -0.56757  -0.56459  -0.55722  -0.55443
 Alpha  occ. eigenvalues --   -0.55173  -0.54660  -0.54047  -0.53592  -0.52611
 Alpha  occ. eigenvalues --   -0.51907  -0.51465  -0.51160  -0.51062  -0.50909
 Alpha  occ. eigenvalues --   -0.50475  -0.49391  -0.49094  -0.48687  -0.48387
 Alpha  occ. eigenvalues --   -0.47006  -0.46646  -0.46004  -0.45335  -0.45053
 Alpha  occ. eigenvalues --   -0.44261  -0.44047  -0.43745  -0.43591  -0.43349
 Alpha  occ. eigenvalues --   -0.43086  -0.41250  -0.40096  -0.39928  -0.37606
 Alpha  occ. eigenvalues --   -0.37213  -0.35090  -0.34600  -0.34414  -0.34102
 Alpha virt. eigenvalues --   -0.12612  -0.10519  -0.09834  -0.08904  -0.08736
 Alpha virt. eigenvalues --   -0.07684  -0.05596  -0.03702  -0.02914  -0.01479
 Alpha virt. eigenvalues --   -0.01117  -0.00984   0.00261   0.00571   0.01244
 Alpha virt. eigenvalues --    0.01481   0.01883   0.02608   0.02800   0.03380
 Alpha virt. eigenvalues --    0.03866   0.04740   0.04937   0.05359   0.05805
 Alpha virt. eigenvalues --    0.05871   0.06716   0.06929   0.07414   0.07633
 Alpha virt. eigenvalues --    0.07949   0.08214   0.08726   0.08882   0.09400
 Alpha virt. eigenvalues --    0.09607   0.10166   0.10510   0.10869   0.11029
 Alpha virt. eigenvalues --    0.12110   0.12433   0.12726   0.13466   0.13748
 Alpha virt. eigenvalues --    0.14010   0.14149   0.15325   0.15770   0.16514
 Alpha virt. eigenvalues --    0.17716   0.18200   0.18675   0.20017   0.21356
 Alpha virt. eigenvalues --    0.22166   0.22700   0.23169   0.25358   0.26287
 Alpha virt. eigenvalues --    0.27346   0.28167   0.30511   0.32224   0.34388
 Alpha virt. eigenvalues --    0.35053   0.37234   0.38915   0.39653   0.39847
 Alpha virt. eigenvalues --    0.40963   0.41732   0.42030   0.42428   0.43380
 Alpha virt. eigenvalues --    0.43626   0.44451   0.44999   0.45799   0.46327
 Alpha virt. eigenvalues --    0.46659   0.47201   0.48622   0.49284   0.49466
 Alpha virt. eigenvalues --    0.49605   0.50352   0.50610   0.51028   0.51236
 Alpha virt. eigenvalues --    0.51700   0.52288   0.52395   0.52890   0.53748
 Alpha virt. eigenvalues --    0.54355   0.54404   0.55081   0.55424   0.55647
 Alpha virt. eigenvalues --    0.56654   0.57274   0.57641   0.58381   0.59202
 Alpha virt. eigenvalues --    0.59930   0.60539   0.61759   0.62408   0.62938
 Alpha virt. eigenvalues --    0.64250   0.64703   0.65476   0.65965   0.66788
 Alpha virt. eigenvalues --    0.67143   0.67546   0.67946   0.69002   0.69407
 Alpha virt. eigenvalues --    0.69722   0.70449   0.71424   0.71922   0.72688
 Alpha virt. eigenvalues --    0.73033   0.73183   0.74250   0.74461   0.74816
 Alpha virt. eigenvalues --    0.74998   0.75351   0.75947   0.76404   0.76551
 Alpha virt. eigenvalues --    0.76603   0.77674   0.77769   0.78954   0.79244
 Alpha virt. eigenvalues --    0.79975   0.80974   0.81385   0.81855   0.82368
 Alpha virt. eigenvalues --    0.82464   0.83077   0.83692   0.84467   0.84732
 Alpha virt. eigenvalues --    0.85182   0.85655   0.85696   0.86590   0.87126
 Alpha virt. eigenvalues --    0.87546   0.88352   0.88845   0.89252   0.90610
 Alpha virt. eigenvalues --    0.91514   0.92673   0.93210   0.93546   0.94500
 Alpha virt. eigenvalues --    0.95798   0.96811   0.98229   0.98874   0.99587
 Alpha virt. eigenvalues --    1.00778   1.01360   1.02830   1.03257   1.04547
 Alpha virt. eigenvalues --    1.05533   1.05820   1.07690   1.07920   1.09000
 Alpha virt. eigenvalues --    1.09906   1.10376   1.10634   1.13087   1.13459
 Alpha virt. eigenvalues --    1.15430   1.15962   1.18015   1.19474   1.20658
 Alpha virt. eigenvalues --    1.24103   1.25580   1.27197   1.27787   1.29535
 Alpha virt. eigenvalues --    1.30368   1.31482   1.32754   1.33006   1.34359
 Alpha virt. eigenvalues --    1.35330   1.37361   1.37672   1.38597   1.38939
 Alpha virt. eigenvalues --    1.39701   1.40347   1.40569   1.42103   1.42934
 Alpha virt. eigenvalues --    1.44354   1.45767   1.46030   1.48084   1.51277
 Alpha virt. eigenvalues --    1.52320   1.53495   1.54740   1.56571   1.57888
 Alpha virt. eigenvalues --    1.59081   1.60403   1.61793   1.62524   1.62924
 Alpha virt. eigenvalues --    1.63986   1.64844   1.66666   1.67730   1.68066
 Alpha virt. eigenvalues --    1.68259   1.68582   1.70664   1.70889   1.71764
 Alpha virt. eigenvalues --    1.72108   1.72510   1.73559   1.74094   1.74268
 Alpha virt. eigenvalues --    1.74987   1.76416   1.77203   1.77643   1.79060
 Alpha virt. eigenvalues --    1.79129   1.80090   1.80614   1.81507   1.82222
 Alpha virt. eigenvalues --    1.83015   1.83367   1.84903   1.85528   1.86361
 Alpha virt. eigenvalues --    1.87001   1.87695   1.88049   1.89092   1.89849
 Alpha virt. eigenvalues --    1.90363   1.91016   1.91444   1.93564   1.93993
 Alpha virt. eigenvalues --    1.94535   1.95171   1.95559   1.96208   1.97474
 Alpha virt. eigenvalues --    1.98924   1.99591   2.00225   2.01643   2.02144
 Alpha virt. eigenvalues --    2.03029   2.04648   2.04867   2.05612   2.06197
 Alpha virt. eigenvalues --    2.07035   2.09274   2.10544   2.12286   2.12859
 Alpha virt. eigenvalues --    2.14534   2.14807   2.16418   2.18348   2.18659
 Alpha virt. eigenvalues --    2.20085   2.20578   2.21340   2.21616   2.23361
 Alpha virt. eigenvalues --    2.24579   2.26576   2.27235   2.28274   2.29660
 Alpha virt. eigenvalues --    2.30462   2.31222   2.32300   2.33083   2.35147
 Alpha virt. eigenvalues --    2.35967   2.36643   2.37470   2.37905   2.38950
 Alpha virt. eigenvalues --    2.40219   2.42054   2.43977   2.47381   2.48142
 Alpha virt. eigenvalues --    2.48218   2.49387   2.50005   2.51713   2.54535
 Alpha virt. eigenvalues --    2.54852   2.55522   2.56161   2.57363   2.58399
 Alpha virt. eigenvalues --    2.59315   2.61444   2.63038   2.63241   2.64677
 Alpha virt. eigenvalues --    2.65187   2.65523   2.67397   2.68281   2.70650
 Alpha virt. eigenvalues --    2.72314   2.74765   2.76949   2.81433   2.83890
 Alpha virt. eigenvalues --    2.87637   2.89582   2.91975   2.95096   2.95983
 Alpha virt. eigenvalues --    3.01609   3.07268   3.10428   3.31137   3.70636
 Alpha virt. eigenvalues --    3.78898   3.81091   3.90831   3.96281   3.97711
 Alpha virt. eigenvalues --    4.01470   4.04393   4.05322   4.09250   4.10957
 Alpha virt. eigenvalues --    4.12505   4.15504   4.20228   4.22787   4.23981
 Alpha virt. eigenvalues --    4.26665   4.28884   4.32935   4.35601   4.38050
 Alpha virt. eigenvalues --    4.40399   4.44468   4.49208   4.50682   4.58087
 Alpha virt. eigenvalues --    4.61015   4.62433
          Condensed to atoms (all electrons):
 Mulliken charges:
               1
     1  N   -0.804751
     2  H    0.386671
     3  H    0.460997
     4  H    0.414441
     5  C   -0.077352
     6  H    0.200306
     7  C    0.613618
     8  C   -0.387717
     9  H    0.164901
    10  H    0.187820
    11  O   -0.539873
    12  C    0.160509
    13  C   -0.200342
    14  H    0.174240
    15  C   -0.183968
    16  H    0.123205
    17  C   -0.135477
    18  H    0.162124
    19  C   -0.128576
    20  H    0.155987
    21  C   -0.125354
    22  H    0.159567
    23  N   -0.435586
    24  C   -0.038352
    25  H    0.175972
    26  C    0.618108
    27  C   -0.315662
    28  H    0.195475
    29  H    0.178723
    30  O   -0.530750
    31  C   -0.302432
    32  H    0.179609
    33  H    0.164918
    34  C   -0.149825
    35  H    0.161670
    36  H    0.207257
    37  N   -0.601683
    38  H    0.365903
    39  C   -0.026267
    40  H    0.205557
    41  C    0.585851
    42  C   -0.287486
    43  H    0.173698
    44  H    0.170540
    45  O   -0.464583
    46  C   -0.297637
    47  H    0.159705
    48  H    0.152865
    49  C   -0.272443
    50  H    0.136981
    51  H    0.168503
    52  C   -0.150944
    53  H    0.171368
    54  H    0.165486
    55  N   -0.786074
    56  H    0.335781
    57  H    0.336289
    58  O   -0.559615
    59  H    0.428105
 Sum of Mulliken charges =   1.00000
 Mulliken charges with hydrogens summed into heavy atoms:
               1
     1  N    0.457358
     5  C    0.122953
     7  C    0.613618
     8  C   -0.034996
    11  O   -0.539873
    12  C    0.160509
    13  C   -0.026103
    15  C   -0.060764
    17  C    0.026647
    19  C    0.027411
    21  C    0.034213
    23  N   -0.435586
    24  C    0.137619
    26  C    0.618108
    27  C    0.058535
    30  O   -0.530750
    31  C    0.042095
    34  C    0.219102
    37  N   -0.235780
    39  C    0.179290
    41  C    0.585851
    42  C    0.056753
    45  O   -0.464583
    46  C    0.014934
    49  C    0.033041
    52  C    0.185911
    55  N   -0.114005
    58  O   -0.131509
 Electronic spatial extent (au):  <R**2>=          12320.2856
 Charge=              1.0000 electrons
 Dipole moment (field-independent basis, Debye):
    X=             -8.0360    Y=             -7.9159    Z=             10.3314  Tot=             15.2963
 Quadrupole moment (field-independent basis, Debye-Ang):
   XX=           -124.2823   YY=           -106.4272   ZZ=           -113.9920
   XY=             -0.7652   XZ=            -34.4747   YZ=            -16.8081
 Traceless Quadrupole moment (field-independent basis, Debye-Ang):
   XX=             -9.3818   YY=              8.4733   ZZ=              0.9085
   XY=             -0.7652   XZ=            -34.4747   YZ=            -16.8081
 Octapole moment (field-independent basis, Debye-Ang**2):
  XXX=            239.0265  YYY=           -108.3313  ZZZ=           -497.8714  XYY=             49.9384
  XXY=            -30.1989  XXZ=           -147.6567  XZZ=             54.5327  YZZ=            -13.4961
  YYZ=            -75.0316  XYZ=             44.4896
 Hexadecapole moment (field-independent basis, Debye-Ang**3):
 XXXX=          -3088.0356 YYYY=          -3667.4701 ZZZZ=          -7033.6646 XXXY=            780.7609
 XXXZ=           1112.4687 YYYX=            739.1868 YYYZ=           -821.7137 ZZZX=            764.1563
 ZZZY=           -309.8202 XXYY=          -1072.5977 XXZZ=          -1535.7049 YYZZ=          -1546.2808
 XXYZ=           -262.2964 YYXZ=            284.2544 ZZXY=            191.3052
 N-N= 2.906794477041D+03 E-N=-8.816433686999D+03  KE= 1.288275217242D+03
 Unable to Open any file for archive entry.
 1\1\GINC-AMR-011\SP\RB3LYP\6-31G(d)\C20H31N4O4(1+)\KENGMITH\25-May-202
 2\0\\# B3LYP/6-31G* guess=read geom=check nosymm integral(ultrafinegri
 d)\\Candidate Structure: Conf:102 Charge calc in gas phase\\1,1\N,0,-2
 .6425191491,-2.5283597737,2.1537321122\H,0,-3.3905414449,-3.0139441087
 ,2.6522972411\H,0,-1.7071401431,-3.0767590961,2.2729352638\H,0,-2.8085
 359574,-2.5255781149,1.1259425947\C,0,-2.5320929513,-1.0654506199,2.53
 57009173\H,0,-3.4524675736,-0.7768949998,3.0509270211\C,0,-2.383613235
 6,-0.3506589821,1.1646338743\C,0,-1.3069956412,-0.9027284673,3.4788041
 08\H,0,-1.3635057359,-1.7297209419,4.1998776302\H,0,-0.3995967514,-1.0
 596636716,2.8857379234\O,0,-2.1981512211,-1.0839177385,0.1756589007\C,
 0,-1.2053681203,0.3984518386,4.2453312025\C,0,-0.2325092407,1.34937349
 2,3.9113674097\H,0,0.4202875189,1.1861886816,3.0581023736\C,0,-2.06017
 90321,0.6472407576,5.328493501\H,0,-2.804218774,-0.0938713048,5.616843
 8426\C,0,-0.1239390574,2.5326182016,4.6455321817\H,0,0.6347903654,3.26
 17634233,4.3767959033\C,0,-1.9560982172,1.831688032,6.0572782382\H,0,-
 2.6221263606,2.0108968714,6.8963330688\C,0,-0.9853816841,2.7771693427,
 5.7166563044\H,0,-0.8974930118,3.6962873777,6.2885710211\N,0,-2.361892
 596,0.9834304414,1.0805341914\C,0,-1.8557521197,1.5956745176,-0.180393
 4763\H,0,-2.4091814026,1.1724941443,-1.024669349\C,0,-0.3440309967,1.2
 782892808,-0.2833553058\C,0,-2.1476554389,3.0933277696,0.0110498462\H,
 0,-1.2682398722,3.5676314207,0.4573203466\H,0,-2.3646687996,3.58600013
 32,-0.939772509\O,0,0.4576240911,1.7745743862,0.5062848211\C,0,-3.3301
 048778,3.1210483119,0.9928454931\H,0,-3.435401135,4.0813605858,1.50444
 85597\H,0,-4.2719198729,2.9052092504,0.4756512876\C,0,-2.9857225575,1.
 991847109,1.9718764519\H,0,-3.8586899933,1.5671573073,2.4752211275\H,0
 ,-2.2723638694,2.3301749245,2.7245959667\N,0,0.0009876931,0.411004436,
 -1.2594565958\H,0,-0.7102552017,-0.0451488503,-1.8194870011\C,0,1.3610
 226651,-0.0729705983,-1.4446451187\H,0,2.0407821517,0.7851285646,-1.47
 79945829\C,0,1.3962595413,-0.7752669579,-2.7962018389\C,0,1.8541549113
 ,-1.0158990582,-0.3124574016\H,0,1.8862273748,-0.4150349298,0.60262076
 01\H,0,2.8880620742,-1.2964128059,-0.5466580619\O,0,0.4115956147,-1.10
 4398407,-3.4227502884\C,0,0.9979469673,-2.2723136991,-0.0927525592\H,0
 ,-0.0294820611,-1.9794633568,0.1465980824\H,0,0.9375322028,-2.85526576
 19,-1.0225370865\C,0,1.5701781183,-3.1763009849,1.0108716141\H,0,1.768
 1393474,-2.5888557377,1.9208538389\H,0,2.5502210283,-3.5498571891,0.68
 92538875\C,0,0.7015352013,-4.3914704263,1.374781649\H,0,0.1574258841,-
 4.7508702061,0.4946267523\H,0,1.3455675853,-5.2128144323,1.7131730789\
 N,0,-0.312468156,-4.0938384954,2.4372461275\H,0,0.1922215981,-3.770601
 383,3.2657826986\H,0,-0.7269759207,-4.9845279665,2.7223721654\O,0,2.65
 6123193,-1.0201194498,-3.1949065344\H,0,2.6034573965,-1.483790366,-4.0
 529871606\\Version=ES64L-G16RevC.01\HF=-1300.5464835\RMSD=7.905e-09\Di
 pole=-1.8775551,-2.9033447,1.7527323\Quadrupole=-6.9751373,6.2997169,0
 .6754203,-0.5688907,-25.6310974,-12.4964072\PG=C01 [X(C20H31N4O4)]\\@
 The archive entry for this job was punched.


 IT IS WELL TO REMEMBER THAT MAN IS A PART OF NATURE AND THAT HIS WORKS,
 WHATEVER THEY MAY BE, ARE NO MORE "UNNATURAL" THAN 
 THE FLIGHT OF AN EAGLE OR THE PASSAGE OF A TORNADO.

                                    -- CHARLES MCCARRY IN "THE GREAT SOUTHWEST"
 Job cpu time:       0 days  0 hours  1 minutes  1.1 seconds.
 Elapsed time:       0 days  0 hours  0 minutes 15.6 seconds.
 File lengths (MBytes):  RWF=    240 Int=      0 D2E=      0 Chk=     32 Scr=     16
 Normal termination of Gaussian 16 at Wed May 25 07:50:13 2022.
