 Entering Gaussian System, Link 0=/opt/software/Gaussian/g16-AVX2-C.01/g16/g16
 Input=charge-conf-242.com
 Output=charge-conf-242.log
 Initial command:
 /opt/software/Gaussian/g16-AVX2-C.01/g16/l1.exe "/mnt/gs18/scratch/users/kengmith/Gau-34440.inp" -scrdir="/mnt/gs18/scratch/users/kengmith/"
 Entering Link 1 = /opt/software/Gaussian/g16-AVX2-C.01/g16/l1.exe PID=     34450.
  
 Copyright (c) 1988-2019, Gaussian, Inc.  All Rights Reserved.
  
 This is part of the Gaussian(R) 16 program.  It is based on
 the Gaussian(R) 09 system (copyright 2009, Gaussian, Inc.),
 the Gaussian(R) 03 system (copyright 2003, Gaussian, Inc.),
 the Gaussian(R) 98 system (copyright 1998, Gaussian, Inc.),
 the Gaussian(R) 94 system (copyright 1995, Gaussian, Inc.),
 the Gaussian 92(TM) system (copyright 1992, Gaussian, Inc.),
 the Gaussian 90(TM) system (copyright 1990, Gaussian, Inc.),
 the Gaussian 88(TM) system (copyright 1988, Gaussian, Inc.),
 the Gaussian 86(TM) system (copyright 1986, Carnegie Mellon
 University), and the Gaussian 82(TM) system (copyright 1983,
 Carnegie Mellon University). Gaussian is a federally registered
 trademark of Gaussian, Inc.
  
 This software contains proprietary and confidential information,
 including trade secrets, belonging to Gaussian, Inc.
  
 This software is provided under written license and may be
 used, copied, transmitted, or stored only in accord with that
 written license.
  
 The following legend is applicable only to US Government
 contracts under FAR:
  
                    RESTRICTED RIGHTS LEGEND
  
 Use, reproduction and disclosure by the US Government is
 subject to restrictions as set forth in subparagraphs (a)
 and (c) of the Commercial Computer Software - Restricted
 Rights clause in FAR 52.227-19.
  
 Gaussian, Inc.
 340 Quinnipiac St., Bldg. 40, Wallingford CT 06492
  
  
 ---------------------------------------------------------------
 Warning -- This program may not be used in any manner that
 competes with the business of Gaussian, Inc. or will provide
 assistance to any competitor of Gaussian, Inc.  The licensee
 of this program is prohibited from giving any competitor of
 Gaussian, Inc. access to this program.  By using this program,
 the user acknowledges that Gaussian, Inc. is engaged in the
 business of creating and licensing software in the field of
 computational chemistry and represents and warrants to the
 licensee that it is not a competitor of Gaussian, Inc. and that
 it will not use this program in any manner prohibited above.
 ---------------------------------------------------------------
  

 Cite this work as:
 Gaussian 16, Revision C.01,
 M. J. Frisch, G. W. Trucks, H. B. Schlegel, G. E. Scuseria, 
 M. A. Robb, J. R. Cheeseman, G. Scalmani, V. Barone, 
 G. A. Petersson, H. Nakatsuji, X. Li, M. Caricato, A. V. Marenich, 
 J. Bloino, B. G. Janesko, R. Gomperts, B. Mennucci, H. P. Hratchian, 
 J. V. Ortiz, A. F. Izmaylov, J. L. Sonnenberg, D. Williams-Young, 
 F. Ding, F. Lipparini, F. Egidi, J. Goings, B. Peng, A. Petrone, 
 T. Henderson, D. Ranasinghe, V. G. Zakrzewski, J. Gao, N. Rega, 
 G. Zheng, W. Liang, M. Hada, M. Ehara, K. Toyota, R. Fukuda, 
 J. Hasegawa, M. Ishida, T. Nakajima, Y. Honda, O. Kitao, H. Nakai, 
 T. Vreven, K. Throssell, J. A. Montgomery, Jr., J. E. Peralta, 
 F. Ogliaro, M. J. Bearpark, J. J. Heyd, E. N. Brothers, K. N. Kudin, 
 V. N. Staroverov, T. A. Keith, R. Kobayashi, J. Normand, 
 K. Raghavachari, A. P. Rendell, J. C. Burant, S. S. Iyengar, 
 J. Tomasi, M. Cossi, J. M. Millam, M. Klene, C. Adamo, R. Cammi, 
 J. W. Ochterski, R. L. Martin, K. Morokuma, O. Farkas, 
 J. B. Foresman, and D. J. Fox, Gaussian, Inc., Wallingford CT, 2019.
 
 ******************************************
 Gaussian 16:  ES64L-G16RevC.01  3-Jul-2019
                12-Jun-2022 
 ******************************************
 %mem=8gb
 %nproc=4
 Will use up to    4 processors via shared memory.
 %chk=conf-242.chk
 ----------------------------------------------------------------------
 # B3LYP/6-31G* empiricaldispersion=gd3 guess=read geom=check nosymm in
 tegral(ultrafinegrid)
 ----------------------------------------------------------------------
 1/29=2,38=1,172=1/1;
 2/12=2,15=1,40=1/2;
 3/5=1,6=6,7=1,11=2,14=-4,25=1,30=1,74=-5,75=-5,116=-2,124=31/1,2,3;
 4/5=1/1;
 5/5=2,38=6/2;
 6/7=2,8=2,9=2,10=2,28=1/1;
 99/5=1,9=1/99;
 ------------------------------------------------------
 Candidate Structure: Conf:242 Charge calc in gas phase
 ------------------------------------------------------
 Structure from the checkpoint file:  "conf-242.chk"
 Charge =  1 Multiplicity = 1
 Redundant internal coordinates found in file.  (old form).
 N,0,-11.812134184,-1.7352861093,-8.4462571542
 H,0,-11.8070279396,-1.0019783383,-9.1605543178
 H,0,-11.1488939184,-2.4913143939,-8.7499161163
 H,0,-12.7780467643,-2.0709463467,-8.300430934
 C,0,-11.2530450847,-1.2842905576,-7.1240328865
 H,0,-11.4039955946,-0.206760404,-7.026965161
 C,0,-9.763823105,-1.6988234725,-7.1720569064
 C,0,-12.0192245087,-2.0681744712,-6.0301730656
 H,0,-11.7970888213,-1.6353172278,-5.0492435733
 H,0,-11.6764926436,-3.1082996176,-6.0303964193
 O,0,-9.4410952312,-2.5524086057,-8.0086161301
 O,0,-13.404301872,-2.0933634835,-6.3363074532
 H,0,-13.8588557517,-1.3552705444,-5.9002557763
 N,0,-8.977600241,-1.1442653944,-6.2600738394
 H,0,-9.3023306361,-0.4513685631,-5.5794590164
 C,0,-7.5674279832,-1.4790528688,-6.0630454707
 H,0,-7.4697832729,-2.5685401642,-5.9973314395
 C,0,-7.2073273962,-0.8290106377,-4.7078228284
 C,0,-6.6839549094,-0.9451452476,-7.202263653
 H,0,-5.6324640768,-1.1892541006,-7.0233963299
 H,0,-6.7753001839,0.1432792577,-7.27498611
 H,0,-6.9885069826,-1.3976666732,-8.1493662246
 O,0,-7.9970308627,-0.0463951266,-4.1716379135
 N,0,-6.0092393189,-1.1778682763,-4.210621943
 H,0,-5.3297407754,-1.6540508139,-4.8078770809
 C,0,-5.3308813341,-0.4291171198,-3.1563003619
 H,0,-5.7544054693,0.5798570453,-3.1048578953
 C,0,-3.8482537799,-0.3857027933,-3.5916698683
 C,0,-5.468038461,-1.1193840674,-1.7733681012
 H,0,-4.8958714966,-0.5294712924,-1.0484631405
 O,0,-3.4611659524,-1.068216943,-4.543637542
 C,0,-6.9196691268,-1.2202717433,-1.3102576086
 H,0,-7.3940870032,-0.235280165,-1.2595296082
 H,0,-7.5045103832,-1.8341401512,-2.0053268225
 H,0,-6.9527541433,-1.6885867604,-0.3225156262
 O,0,-4.8246822338,-2.3857653419,-1.7920707586
 H,0,-5.322920634,-2.9568834569,-2.3996043428
 N,0,-3.0656821786,0.4264880797,-2.8616218712
 H,0,-3.4204147622,0.8305319598,-1.9970935567
 C,0,-1.610059925,0.3553895627,-2.8699892973
 H,0,-1.3216928437,-0.6201774647,-3.2763325093
 C,0,-1.1851051454,0.4642286425,-1.3921066964
 C,0,-0.9501582159,1.4719950849,-3.7254245809
 H,0,0.1355503496,1.3209355234,-3.6429988223
 O,0,-1.9776484193,0.8683132413,-0.5365396384
 C,0,-1.3430070243,1.3291877249,-5.2009742625
 H,0,-2.418162311,1.4933624188,-5.3332674518
 H,0,-1.1131019378,0.3305332857,-5.5856007685
 H,0,-0.809924981,2.0688018987,-5.8085230602
 C,0,-1.2814240351,2.8716757523,-3.1907217333
 H,0,-2.3615961521,3.0553387414,-3.2335301179
 H,0,-0.9587889061,3.0034652247,-2.1526239351
 H,0,-0.7869239138,3.637178725,-3.7976343937
 N,0,0.0924455992,0.1234983037,-1.1397731572
 H,0,0.7234743401,-0.1098498227,-1.8997260879
 C,0,0.7667177944,0.3787674347,0.1283964278
 H,0,0.1437123512,1.0768688215,0.6971134586
 C,0,2.1167195355,1.008429242,-0.2517307646
 C,0,0.9700882931,-0.9220680955,0.9576218392
 H,0,1.5630855327,-1.6015354965,0.327329531
 O,0,2.7145427077,0.6240557453,-1.2565854439
 C,0,-0.3886282517,-1.5882180273,1.2488743394
 H,0,-0.9470118661,-1.6887162454,0.3116994166
 H,0,-0.9835435814,-0.91936652,1.8863650543
 C,0,1.7609710038,-0.6370109774,2.2417675219
 H,0,1.2139892679,0.0633753596,2.8888608
 H,0,2.7429606489,-0.2078509247,2.0337554111
 H,0,1.9475713012,-1.5485184272,2.8132183108
 C,0,-0.2730508361,-2.9698259771,1.9027325609
 H,0,-1.2616508705,-3.4310644914,2.0059697335
 H,0,0.3465503701,-3.6413283547,1.295146672
 H,0,0.1737106217,-2.9194809924,2.9008846446
 N,0,2.5731184071,1.9800033323,0.5752860911
 H,0,2.0827002856,2.16296396,1.4423021813
 C,0,3.9258742435,2.51239171,0.4938473828
 H,0,4.4528615372,1.9428424373,-0.2716284961
 C,0,4.5940113106,2.3020321093,1.8608307426
 C,0,3.9445388255,4.0098590641,0.1127772777
 H,0,3.6622225159,4.0885088003,-0.9430153257
 H,0,3.203459908,4.5570226127,0.7038621159
 O,0,3.9356056339,2.4637300039,2.9083233998
 C,0,5.3449235261,4.6248680676,0.3501971422
 O,0,5.396737067,5.6971685367,0.987551571
 O,0,6.3326830447,3.9200692528,-0.0461993084
 N,0,5.8925976875,1.9624875454,1.8119792861
 H,0,6.3218384077,2.1057423705,0.8980033264
 C,0,6.7650803373,1.800091258,2.9614616893
 H,0,6.1457832812,1.9228197303,3.8536494807
 C,0,7.8773719028,2.8654230456,3.097399259
 C,0,7.3885980999,0.3917099549,2.9922207027
 H,0,8.1500836831,0.3946438223,3.7804536503
 H,0,7.9185571822,0.2228480026,2.0429747771
 O,0,8.6932513649,2.7250910457,4.0220626977
 C,0,6.3728500303,-0.6833033516,3.2234799988
 C,0,5.0576059458,-0.6732942051,3.6296308892
 H,0,4.4342265734,0.1864653254,3.8308532965
 N,0,6.6752268877,-2.0255537401,3.0720597658
 H,0,7.5666035149,-2.4023451301,2.7822743285
 C,0,5.5531346302,-2.7428595117,3.3884071486
 H,0,5.5274507305,-3.823710158,3.3485890482
 N,0,4.5570772311,-1.9568450015,3.7292196453
 N,0,7.8806576887,3.9120032407,2.2555998882
 H,0,7.277735724,3.9634838654,1.4067335703
 C,0,8.8959832309,4.9601375296,2.3875827643
 H,0,9.8791614743,4.4787273693,2.4445015432
 C,0,8.6668223199,5.7357094279,3.6987441407
 C,0,8.8299495797,5.9015106717,1.1776048779
 H,0,9.0567814744,5.3011565145,0.2869519115
 H,0,7.7951569146,6.2421374851,1.0662360261
 O,0,7.795768144,6.6148689149,3.8070047632
 C,0,9.7820402712,7.1096523104,1.2499877017
 H,0,9.4332357304,7.7603253085,2.0637232548
 C,0,11.2383491883,6.714857234,1.544700271
 H,0,11.5970201387,5.9704928843,0.8211884388
 H,0,11.8972145705,7.5880830086,1.4746907978
 H,0,11.3630377586,6.3010771464,2.5523923675
 C,0,9.6846257623,7.9058571181,-0.0589800115
 H,0,10.0483997036,7.3090273744,-0.9055243274
 H,0,10.2880679536,8.8198285313,-0.0102989255
 H,0,8.6484339356,8.1915516172,-0.272775582
 N,0,9.4838164229,5.3856631765,4.712438863
 H,0,10.0491977565,4.5567788454,4.5781677735
 C,0,9.4880458081,5.9966188547,6.0205593726
 H,0,8.7373361285,6.7909109761,6.0208336536
 C,0,10.8494181406,6.6522102442,6.2632418894
 C,0,9.2034351256,4.9749105896,7.1477672256
 H,0,9.2388479741,5.5141292173,8.1016003973
 H,0,10.0274153533,4.2496467143,7.1652722628
 O,0,11.8480001977,6.4436162753,5.6165600146
 C,0,7.8800587559,4.201442466,7.0299731231
 H,0,7.880488111,3.596281893,6.1163065554
 H,0,7.844683597,3.5001312558,7.8731909707
 C,0,6.6112051069,5.0803673231,7.0788983554
 H,0,5.7916239182,4.5496043834,7.573940866
 H,0,6.7841767993,5.9721932508,7.6915545237
 N,0,6.1396785406,5.5513190573,5.7781246844
 H,0,6.7006114753,6.2648629296,5.3064936893
 N,0,4.690050722,3.7509905074,5.3187627215
 H,0,4.3025786293,3.1500407501,4.5847134074
 H,0,4.8403993953,3.3523114419,6.2307674507
 N,0,5.2034059674,5.2976180535,3.6874479481
 H,0,4.6220065691,4.803773773,3.0256940847
 H,0,5.8666043183,5.9435761864,3.2634915076
 C,0,5.364344596,4.8501452466,4.9310438986
 O,0,10.7995540697,7.474825083,7.3350716468
 H,0,11.697220798,7.8386570088,7.4573765568
 Recover connectivity data from disk.
                           ----------------------------
                           !    Current Parameters    !
                           ! (Angstroms and Degrees)  !
 --------------------------                            --------------------------
 ! Name  Definition              Value                                          !
 --------------------------------------------------------------------------------
 ! R1    R(1,2)                  1.0237                                         !
 ! R2    R(1,3)                  1.0506                                         !
 ! R3    R(1,4)                  1.0329                                         !
 ! R4    R(1,5)                  1.5047                                         !
 ! R5    R(5,6)                  1.0924                                         !
 ! R6    R(5,7)                  1.5466                                         !
 ! R7    R(5,8)                  1.5486                                         !
 ! R8    R(7,11)                 1.238                                          !
 ! R9    R(7,14)                 1.3257                                         !
 ! R10   R(8,9)                  1.095                                          !
 ! R11   R(8,10)                 1.0951                                         !
 ! R12   R(8,12)                 1.4187                                         !
 ! R13   R(12,13)                0.9703                                         !
 ! R14   R(14,15)                1.0241                                         !
 ! R15   R(14,16)                1.4627                                         !
 ! R16   R(16,17)                1.0958                                         !
 ! R17   R(16,18)                1.5456                                         !
 ! R18   R(16,19)                1.5373                                         !
 ! R19   R(18,23)                1.2343                                         !
 ! R20   R(18,24)                1.3433                                         !
 ! R21   R(19,20)                1.0942                                         !
 ! R22   R(19,21)                1.0947                                         !
 ! R23   R(19,22)                1.0929                                         !
 ! R24   R(24,25)                1.0223                                         !
 ! R25   R(24,26)                1.4603                                         !
 ! R26   R(26,27)                1.0955                                         !
 ! R27   R(26,28)                1.5458                                         !
 ! R28   R(26,29)                1.5517                                         !
 ! R29   R(28,31)                1.2337                                         !
 ! R30   R(28,38)                1.3435                                         !
 ! R31   R(29,30)                1.0958                                         !
 ! R32   R(29,32)                1.527                                          !
 ! R33   R(29,36)                1.4206                                         !
 ! R34   R(32,33)                1.0945                                         !
 ! R35   R(32,34)                1.0964                                         !
 ! R36   R(32,35)                1.0936                                         !
 ! R37   R(36,37)                0.9713                                         !
 ! R38   R(38,39)                1.0181                                         !
 ! R39   R(38,40)                1.4574                                         !
 ! R40   R(40,41)                1.0954                                         !
 ! R41   R(40,42)                1.5416                                         !
 ! R42   R(40,43)                1.5537                                         !
 ! R43   R(42,45)                1.2343                                         !
 ! R44   R(42,54)                1.3461                                         !
 ! R45   R(43,44)                1.0993                                         !
 ! R46   R(43,46)                1.5336                                         !
 ! R47   R(43,50)                1.5345                                         !
 ! R48   R(46,47)                1.0956                                         !
 ! R49   R(46,48)                1.0946                                         !
 ! R50   R(46,49)                1.0956                                         !
 ! R51   R(50,51)                1.0965                                         !
 ! R52   R(50,52)                1.095                                          !
 ! R53   R(50,53)                1.0949                                         !
 ! R54   R(54,55)                1.015                                          !
 ! R55   R(54,56)                1.4588                                         !
 ! R56   R(56,57)                1.095                                          !
 ! R57   R(56,58)                1.5374                                         !
 ! R58   R(56,59)                1.556                                          !
 ! R59   R(58,61)                1.2308                                         !
 ! R60   R(58,73)                1.3551                                         !
 ! R61   R(59,60)                1.1003                                         !
 ! R62   R(59,62)                1.541                                          !
 ! R63   R(59,65)                1.5349                                         !
 ! R64   R(62,63)                1.0955                                         !
 ! R65   R(62,64)                1.0989                                         !
 ! R66   R(62,69)                1.5329                                         !
 ! R67   R(65,66)                1.0993                                         !
 ! R68   R(65,67)                1.0917                                         !
 ! R69   R(65,68)                1.0919                                         !
 ! R70   R(69,70)                1.0958                                         !
 ! R71   R(69,71)                1.0973                                         !
 ! R72   R(69,72)                1.0947                                         !
 ! R73   R(73,74)                1.0128                                         !
 ! R74   R(73,75)                1.456                                          !
 ! R75   R(75,76)                1.09                                           !
 ! R76   R(75,77)                1.536                                          !
 ! R77   R(75,78)                1.5453                                         !
 ! R78   R(77,81)                1.2478                                         !
 ! R79   R(77,85)                1.3431                                         !
 ! R80   R(78,79)                1.0957                                         !
 ! R81   R(78,80)                1.0945                                         !
 ! R82   R(78,82)                1.5478                                         !
 ! R83   R(82,83)                1.2485                                         !
 ! R84   R(82,84)                1.2765                                         !
 ! R85   R(85,86)                1.0199                                         !
 ! R86   R(85,87)                1.4522                                         !
 ! R87   R(87,88)                1.093                                          !
 ! R88   R(87,89)                1.5462                                         !
 ! R89   R(87,90)                1.5405                                         !
 ! R90   R(89,93)                1.2411                                         !
 ! R91   R(89,102)               1.3431                                         !
 ! R92   R(90,91)                1.096                                          !
 ! R93   R(90,92)                1.1002                                         !
 ! R94   R(90,94)                1.497                                          !
 ! R95   R(94,95)                1.3766                                         !
 ! R96   R(94,97)                1.3842                                         !
 ! R97   R(95,96)                1.0809                                         !
 ! R98   R(95,101)               1.3813                                         !
 ! R99   R(97,98)                1.0102                                         !
 ! R100  R(97,99)                1.3688                                         !
 ! R101  R(99,100)               1.0819                                         !
 ! R102  R(99,101)               1.3138                                         !
 ! R103  R(102,103)              1.0425                                         !
 ! R104  R(102,104)              1.4652                                         !
 ! R105  R(104,105)              1.0962                                         !
 ! R106  R(104,106)              1.5405                                         !
 ! R107  R(104,107)              1.5345                                         !
 ! R108  R(106,110)              1.2423                                         !
 ! R109  R(106,121)              1.3482                                         !
 ! R110  R(107,108)              1.0978                                         !
 ! R111  R(107,109)              1.0951                                         !
 ! R112  R(107,111)              1.5399                                         !
 ! R113  R(111,112)              1.0987                                         !
 ! R114  R(111,113)              1.5374                                         !
 ! R115  R(111,117)              1.5352                                         !
 ! R116  R(113,114)              1.0983                                         !
 ! R117  R(113,115)              1.0961                                         !
 ! R118  R(113,116)              1.0965                                         !
 ! R119  R(117,118)              1.0978                                         !
 ! R120  R(117,119)              1.0963                                         !
 ! R121  R(117,120)              1.0959                                         !
 ! R122  R(121,122)              1.0123                                         !
 ! R123  R(121,123)              1.4438                                         !
 ! R124  R(123,124)              1.0929                                         !
 ! R125  R(123,125)              1.5304                                         !
 ! R126  R(123,126)              1.5477                                         !
 ! R127  R(125,129)              1.2078                                         !
 ! R128  R(125,145)              1.352                                          !
 ! R129  R(126,127)              1.0963                                         !
 ! R130  R(126,128)              1.0978                                         !
 ! R131  R(126,130)              1.5374                                         !
 ! R132  R(130,131)              1.0959                                         !
 ! R133  R(130,132)              1.0973                                         !
 ! R134  R(130,133)              1.5443                                         !
 ! R135  R(133,134)              1.0948                                         !
 ! R136  R(133,135)              1.0957                                         !
 ! R137  R(133,136)              1.4616                                         !
 ! R138  R(136,137)              1.0229                                         !
 ! R139  R(136,144)              1.3455                                         !
 ! R140  R(138,139)              1.0247                                         !
 ! R141  R(138,140)              1.0066                                         !
 ! R142  R(138,144)              1.3465                                         !
 ! R143  R(141,142)              1.0099                                         !
 ! R144  R(141,143)              1.0182                                         !
 ! R145  R(141,144)              1.3314                                         !
 ! R146  R(145,146)              0.9763                                         !
 ! A1    A(2,1,3)              108.0994                                         !
 ! A2    A(2,1,4)              109.6303                                         !
 ! A3    A(2,1,5)              113.364                                          !
 ! A4    A(3,1,4)              113.4105                                         !
 ! A5    A(3,1,5)              103.5978                                         !
 ! A6    A(4,1,5)              108.7107                                         !
 ! A7    A(1,5,6)              108.807                                          !
 ! A8    A(1,5,7)              104.4865                                         !
 ! A9    A(1,5,8)              106.5674                                         !
 ! A10   A(6,5,7)              113.5912                                         !
 ! A11   A(6,5,8)              111.6038                                         !
 ! A12   A(7,5,8)              111.2645                                         !
 ! A13   A(5,7,11)             117.1815                                         !
 ! A14   A(5,7,14)             115.9505                                         !
 ! A15   A(11,7,14)            126.7768                                         !
 ! A16   A(5,8,9)              109.41                                           !
 ! A17   A(5,8,10)             109.0133                                         !
 ! A18   A(5,8,12)             109.8525                                         !
 ! A19   A(9,8,10)             108.189                                          !
 ! A20   A(9,8,12)             113.4774                                         !
 ! A21   A(10,8,12)            106.7758                                         !
 ! A22   A(8,12,13)            110.2958                                         !
 ! A23   A(7,14,15)            123.5166                                         !
 ! A24   A(7,14,16)            124.6595                                         !
 ! A25   A(15,14,16)           111.7796                                         !
 ! A26   A(14,16,17)           108.7563                                         !
 ! A27   A(14,16,18)           104.2685                                         !
 ! A28   A(14,16,19)           112.0078                                         !
 ! A29   A(17,16,18)           110.1698                                         !
 ! A30   A(17,16,19)           109.7865                                         !
 ! A31   A(18,16,19)           111.7036                                         !
 ! A32   A(16,18,23)           119.8999                                         !
 ! A33   A(16,18,24)           115.0326                                         !
 ! A34   A(23,18,24)           125.0655                                         !
 ! A35   A(16,19,20)           110.7102                                         !
 ! A36   A(16,19,21)           110.2788                                         !
 ! A37   A(16,19,22)           109.7686                                         !
 ! A38   A(20,19,21)           108.2327                                         !
 ! A39   A(20,19,22)           108.4858                                         !
 ! A40   A(21,19,22)           109.3207                                         !
 ! A41   A(18,24,25)           119.8379                                         !
 ! A42   A(18,24,26)           123.2588                                         !
 ! A43   A(25,24,26)           110.6014                                         !
 ! A44   A(24,26,27)           109.0607                                         !
 ! A45   A(24,26,28)           104.8685                                         !
 ! A46   A(24,26,29)           111.9823                                         !
 ! A47   A(27,26,28)           110.9875                                         !
 ! A48   A(27,26,29)           109.4933                                         !
 ! A49   A(28,26,29)           110.382                                          !
 ! A50   A(26,28,31)           120.1812                                         !
 ! A51   A(26,28,38)           114.9989                                         !
 ! A52   A(31,28,38)           124.8197                                         !
 ! A53   A(26,29,30)           107.6943                                         !
 ! A54   A(26,29,32)           112.5632                                         !
 ! A55   A(26,29,36)           110.1696                                         !
 ! A56   A(30,29,32)           109.3471                                         !
 ! A57   A(30,29,36)           104.6042                                         !
 ! A58   A(32,29,36)           112.0626                                         !
 ! A59   A(29,32,33)           111.5097                                         !
 ! A60   A(29,32,34)           110.5986                                         !
 ! A61   A(29,32,35)           109.3267                                         !
 ! A62   A(33,32,34)           107.5817                                         !
 ! A63   A(33,32,35)           109.2936                                         !
 ! A64   A(34,32,35)           108.4628                                         !
 ! A65   A(29,36,37)           107.4626                                         !
 ! A66   A(28,38,39)           119.8935                                         !
 ! A67   A(28,38,40)           123.3097                                         !
 ! A68   A(39,38,40)           111.8543                                         !
 ! A69   A(38,40,41)           107.9689                                         !
 ! A70   A(38,40,42)           105.4487                                         !
 ! A71   A(38,40,43)           113.0984                                         !
 ! A72   A(41,40,42)           110.2376                                         !
 ! A73   A(41,40,43)           108.9041                                         !
 ! A74   A(42,40,43)           111.0999                                         !
 ! A75   A(40,42,45)           120.7061                                         !
 ! A76   A(40,42,54)           115.0534                                         !
 ! A77   A(45,42,54)           124.2193                                         !
 ! A78   A(40,43,44)           106.2271                                         !
 ! A79   A(40,43,46)           110.7327                                         !
 ! A80   A(40,43,50)           111.8379                                         !
 ! A81   A(44,43,46)           108.2008                                         !
 ! A82   A(44,43,50)           108.2058                                         !
 ! A83   A(46,43,50)           111.4011                                         !
 ! A84   A(43,46,47)           110.7072                                         !
 ! A85   A(43,46,48)           111.6689                                         !
 ! A86   A(43,46,49)           110.2454                                         !
 ! A87   A(47,46,48)           107.4815                                         !
 ! A88   A(47,46,49)           108.0207                                         !
 ! A89   A(48,46,49)           108.594                                          !
 ! A90   A(43,50,51)           110.5996                                         !
 ! A91   A(43,50,52)           112.1172                                         !
 ! A92   A(43,50,53)           110.3078                                         !
 ! A93   A(51,50,52)           107.8843                                         !
 ! A94   A(51,50,53)           107.8277                                         !
 ! A95   A(52,50,53)           107.9547                                         !
 ! A96   A(42,54,55)           120.5246                                         !
 ! A97   A(42,54,56)           123.8731                                         !
 ! A98   A(55,54,56)           113.8139                                         !
 ! A99   A(54,56,57)           107.4639                                         !
 ! A100  A(54,56,58)           105.2246                                         !
 ! A101  A(54,56,59)           112.173                                          !
 ! A102  A(57,56,58)           111.5267                                         !
 ! A103  A(57,56,59)           109.3038                                         !
 ! A104  A(58,56,59)           111.0637                                         !
 ! A105  A(56,58,61)           120.0321                                         !
 ! A106  A(56,58,73)           116.0093                                         !
 ! A107  A(61,58,73)           123.9586                                         !
 ! A108  A(56,59,60)           106.3457                                         !
 ! A109  A(56,59,62)           110.2964                                         !
 ! A110  A(56,59,65)           110.9745                                         !
 ! A111  A(60,59,62)           108.4525                                         !
 ! A112  A(60,59,65)           108.4368                                         !
 ! A113  A(62,59,65)           112.116                                          !
 ! A114  A(59,62,63)           109.1094                                         !
 ! A115  A(59,62,64)           108.896                                          !
 ! A116  A(59,62,69)           113.8136                                         !
 ! A117  A(63,62,64)           106.0307                                         !
 ! A118  A(63,62,69)           108.702                                          !
 ! A119  A(64,62,69)           109.9953                                         !
 ! A120  A(59,65,66)           110.7584                                         !
 ! A121  A(59,65,67)           112.1542                                         !
 ! A122  A(59,65,68)           111.7706                                         !
 ! A123  A(66,65,67)           108.0157                                         !
 ! A124  A(66,65,68)           107.9887                                         !
 ! A125  A(67,65,68)           105.9128                                         !
 ! A126  A(62,69,70)           110.582                                          !
 ! A127  A(62,69,71)           110.9754                                         !
 ! A128  A(62,69,72)           112.2249                                         !
 ! A129  A(70,69,71)           107.6993                                         !
 ! A130  A(70,69,72)           107.5562                                         !
 ! A131  A(71,69,72)           107.6124                                         !
 ! A132  A(58,73,74)           119.2691                                         !
 ! A133  A(58,73,75)           122.7482                                         !
 ! A134  A(74,73,75)           115.5766                                         !
 ! A135  A(73,75,76)           107.3022                                         !
 ! A136  A(73,75,77)           107.7148                                         !
 ! A137  A(73,75,78)           112.2928                                         !
 ! A138  A(76,75,77)           110.0681                                         !
 ! A139  A(76,75,78)           109.107                                          !
 ! A140  A(77,75,78)           110.2992                                         !
 ! A141  A(75,77,81)           119.99                                           !
 ! A142  A(75,77,85)           115.0122                                         !
 ! A143  A(81,77,85)           124.9924                                         !
 ! A144  A(75,78,79)           107.7016                                         !
 ! A145  A(75,78,80)           110.065                                          !
 ! A146  A(75,78,82)           110.9863                                         !
 ! A147  A(79,78,80)           108.061                                          !
 ! A148  A(79,78,82)           110.6341                                         !
 ! A149  A(80,78,82)           109.3368                                         !
 ! A150  A(78,82,83)           117.2017                                         !
 ! A151  A(78,82,84)           115.6627                                         !
 ! A152  A(83,82,84)           126.9137                                         !
 ! A153  A(77,85,86)           113.8289                                         !
 ! A154  A(77,85,87)           125.4753                                         !
 ! A155  A(86,85,87)           118.1774                                         !
 ! A156  A(85,87,88)           107.0467                                         !
 ! A157  A(85,87,89)           115.1348                                         !
 ! A158  A(85,87,90)           111.1742                                         !
 ! A159  A(88,87,89)           104.98                                           !
 ! A160  A(88,87,90)           108.4025                                         !
 ! A161  A(89,87,90)           109.6935                                         !
 ! A162  A(87,89,93)           117.4199                                         !
 ! A163  A(87,89,102)          118.9176                                         !
 ! A164  A(93,89,102)          123.6036                                         !
 ! A165  A(87,90,91)           107.0451                                         !
 ! A166  A(87,90,92)           108.545                                          !
 ! A167  A(87,90,94)           112.6424                                         !
 ! A168  A(91,90,92)           106.6339                                         !
 ! A169  A(91,90,94)           111.2393                                         !
 ! A170  A(92,90,94)           110.4823                                         !
 ! A171  A(90,94,95)           133.5254                                         !
 ! A172  A(90,94,97)           122.0896                                         !
 ! A173  A(95,94,97)           104.3619                                         !
 ! A174  A(94,95,96)           127.7169                                         !
 ! A175  A(94,95,101)          111.1456                                         !
 ! A176  A(96,95,101)          121.1138                                         !
 ! A177  A(94,97,98)           125.861                                          !
 ! A178  A(94,97,99)           107.6857                                         !
 ! A179  A(98,97,99)           126.4532                                         !
 ! A180  A(97,99,100)          122.3087                                         !
 ! A181  A(97,99,101)          111.5877                                         !
 ! A182  A(100,99,101)         126.1035                                         !
 ! A183  A(95,101,99)          105.2192                                         !
 ! A184  A(89,102,103)         123.1901                                         !
 ! A185  A(89,102,104)         120.1751                                         !
 ! A186  A(103,102,104)        116.0271                                         !
 ! A187  A(102,104,105)        108.1817                                         !
 ! A188  A(102,104,106)        109.495                                          !
 ! A189  A(102,104,107)        109.7552                                         !
 ! A190  A(105,104,106)        108.0788                                         !
 ! A191  A(105,104,107)        110.4239                                         !
 ! A192  A(106,104,107)        110.8471                                         !
 ! A193  A(104,106,110)        122.3268                                         !
 ! A194  A(104,106,121)        114.7774                                         !
 ! A195  A(110,106,121)        122.8958                                         !
 ! A196  A(104,107,108)        107.1789                                         !
 ! A197  A(104,107,109)        108.1605                                         !
 ! A198  A(104,107,111)        114.6857                                         !
 ! A199  A(108,107,109)        106.43                                           !
 ! A200  A(108,107,111)        109.8426                                         !
 ! A201  A(109,107,111)        110.1805                                         !
 ! A202  A(107,111,112)        107.6469                                         !
 ! A203  A(107,111,113)        113.1545                                         !
 ! A204  A(107,111,117)        109.1223                                         !
 ! A205  A(112,111,113)        108.1088                                         !
 ! A206  A(112,111,117)        107.7098                                         !
 ! A207  A(113,111,117)        110.9001                                         !
 ! A208  A(111,113,114)        110.9233                                         !
 ! A209  A(111,113,115)        110.644                                          !
 ! A210  A(111,113,116)        112.384                                          !
 ! A211  A(114,113,115)        107.551                                          !
 ! A212  A(114,113,116)        108.212                                          !
 ! A213  A(115,113,116)        106.9166                                         !
 ! A214  A(111,117,118)        110.7631                                         !
 ! A215  A(111,117,119)        111.0752                                         !
 ! A216  A(111,117,120)        111.1946                                         !
 ! A217  A(118,117,119)        107.7635                                         !
 ! A218  A(118,117,120)        107.7341                                         !
 ! A219  A(119,117,120)        108.1659                                         !
 ! A220  A(106,121,122)        116.829                                          !
 ! A221  A(106,121,123)        124.9707                                         !
 ! A222  A(122,121,123)        117.7129                                         !
 ! A223  A(121,123,124)        107.8038                                         !
 ! A224  A(121,123,125)        109.121                                          !
 ! A225  A(121,123,126)        112.3327                                         !
 ! A226  A(124,123,125)        107.4371                                         !
 ! A227  A(124,123,126)        110.6872                                         !
 ! A228  A(125,123,126)        109.3223                                         !
 ! A229  A(123,125,129)        125.2095                                         !
 ! A230  A(123,125,145)        110.7045                                         !
 ! A231  A(129,125,145)        124.0565                                         !
 ! A232  A(123,126,127)        107.6398                                         !
 ! A233  A(123,126,128)        108.0409                                         !
 ! A234  A(123,126,130)        115.7607                                         !
 ! A235  A(127,126,128)        106.6678                                         !
 ! A236  A(127,126,130)        109.9951                                         !
 ! A237  A(128,126,130)        108.3566                                         !
 ! A238  A(126,130,131)        109.9601                                         !
 ! A239  A(126,130,132)        106.8832                                         !
 ! A240  A(126,130,133)        114.7401                                         !
 ! A241  A(131,130,132)        106.723                                          !
 ! A242  A(131,130,133)        109.9386                                         !
 ! A243  A(132,130,133)        108.2348                                         !
 ! A244  A(130,133,134)        110.7018                                         !
 ! A245  A(130,133,135)        110.5631                                         !
 ! A246  A(130,133,136)        114.8516                                         !
 ! A247  A(134,133,135)        105.067                                          !
 ! A248  A(134,133,136)        108.4904                                         !
 ! A249  A(135,133,136)        106.6358                                         !
 ! A250  A(133,136,137)        117.273                                          !
 ! A251  A(133,136,144)        125.3312                                         !
 ! A252  A(137,136,144)        112.9088                                         !
 ! A253  A(139,138,140)        118.2423                                         !
 ! A254  A(139,138,144)        117.5027                                         !
 ! A255  A(140,138,144)        120.6221                                         !
 ! A256  A(142,141,143)        114.3534                                         !
 ! A257  A(142,141,144)        121.1517                                         !
 ! A258  A(143,141,144)        121.5589                                         !
 ! A259  A(136,144,138)        122.1866                                         !
 ! A260  A(136,144,141)        118.8525                                         !
 ! A261  A(138,144,141)        118.8659                                         !
 ! A262  A(125,145,146)        106.9863                                         !
 ! D1    D(2,1,5,6)             27.3655                                         !
 ! D2    D(2,1,5,7)            -94.2794                                         !
 ! D3    D(2,1,5,8)            147.8374                                         !
 ! D4    D(3,1,5,6)            144.2804                                         !
 ! D5    D(3,1,5,7)             22.6355                                         !
 ! D6    D(3,1,5,8)            -95.2477                                         !
 ! D7    D(4,1,5,6)            -94.8218                                         !
 ! D8    D(4,1,5,7)            143.5332                                         !
 ! D9    D(4,1,5,8)             25.65                                           !
 ! D10   D(1,5,7,11)           -18.2738                                         !
 ! D11   D(1,5,7,14)           164.9616                                         !
 ! D12   D(6,5,7,11)          -136.7089                                         !
 ! D13   D(6,5,7,14)            46.5265                                         !
 ! D14   D(8,5,7,11)            96.3446                                         !
 ! D15   D(8,5,7,14)           -80.42                                           !
 ! D16   D(1,5,8,9)           -168.6392                                         !
 ! D17   D(1,5,8,10)            73.2305                                         !
 ! D18   D(1,5,8,12)           -43.4483                                         !
 ! D19   D(6,5,8,9)            -49.9821                                         !
 ! D20   D(6,5,8,10)          -168.1124                                         !
 ! D21   D(6,5,8,12)            75.2088                                         !
 ! D22   D(7,5,8,9)             78.0431                                         !
 ! D23   D(7,5,8,10)           -40.0872                                         !
 ! D24   D(7,5,8,12)          -156.766                                          !
 ! D25   D(5,7,14,15)           -2.5192                                         !
 ! D26   D(5,7,14,16)          174.8601                                         !
 ! D27   D(11,7,14,15)        -178.9255                                         !
 ! D28   D(11,7,14,16)          -1.5462                                         !
 ! D29   D(5,8,12,13)          -93.0127                                         !
 ! D30   D(9,8,12,13)           29.8096                                         !
 ! D31   D(10,8,12,13)         148.9132                                         !
 ! D32   D(7,14,16,17)         -49.6129                                         !
 ! D33   D(7,14,16,18)        -167.1349                                         !
 ! D34   D(7,14,16,19)          71.9107                                         !
 ! D35   D(15,14,16,17)        128.0344                                         !
 ! D36   D(15,14,16,18)         10.5123                                         !
 ! D37   D(15,14,16,19)       -110.442                                          !
 ! D38   D(14,16,18,23)        -10.4327                                         !
 ! D39   D(14,16,18,24)        170.0529                                         !
 ! D40   D(17,16,18,23)       -126.9758                                         !
 ! D41   D(17,16,18,24)         53.5099                                         !
 ! D42   D(19,16,18,23)        110.7242                                         !
 ! D43   D(19,16,18,24)        -68.7902                                         !
 ! D44   D(14,16,19,20)        178.836                                          !
 ! D45   D(14,16,19,21)         59.0813                                         !
 ! D46   D(14,16,19,22)        -61.4229                                         !
 ! D47   D(17,16,19,20)        -60.2346                                         !
 ! D48   D(17,16,19,21)       -179.9892                                         !
 ! D49   D(17,16,19,22)         59.5065                                         !
 ! D50   D(18,16,19,20)         62.285                                          !
 ! D51   D(18,16,19,21)        -57.4697                                         !
 ! D52   D(18,16,19,22)       -177.9739                                         !
 ! D53   D(16,18,24,25)         13.6308                                         !
 ! D54   D(16,18,24,26)        163.0913                                         !
 ! D55   D(23,18,24,25)       -165.8548                                         !
 ! D56   D(23,18,24,26)        -16.3943                                         !
 ! D57   D(18,24,26,27)        -19.3401                                         !
 ! D58   D(18,24,26,28)       -138.2739                                         !
 ! D59   D(18,24,26,29)        102.0059                                         !
 ! D60   D(25,24,26,27)        132.5681                                         !
 ! D61   D(25,24,26,28)         13.6343                                         !
 ! D62   D(25,24,26,29)       -106.0859                                         !
 ! D63   D(24,26,28,31)         -9.4896                                         !
 ! D64   D(24,26,28,38)        170.6941                                         !
 ! D65   D(27,26,28,31)       -127.1181                                         !
 ! D66   D(27,26,28,38)         53.0655                                         !
 ! D67   D(29,26,28,31)        111.2939                                         !
 ! D68   D(29,26,28,38)        -68.5224                                         !
 ! D69   D(24,26,29,30)        177.2523                                         !
 ! D70   D(24,26,29,32)        -62.1423                                         !
 ! D71   D(24,26,29,36)         63.728                                          !
 ! D72   D(27,26,29,30)        -61.6513                                         !
 ! D73   D(27,26,29,32)         58.9541                                         !
 ! D74   D(27,26,29,36)       -175.1756                                         !
 ! D75   D(28,26,29,30)         60.8174                                         !
 ! D76   D(28,26,29,32)       -178.5772                                         !
 ! D77   D(28,26,29,36)        -52.7069                                         !
 ! D78   D(26,28,38,39)         10.4032                                         !
 ! D79   D(26,28,38,40)        163.4709                                         !
 ! D80   D(31,28,38,39)       -169.4034                                         !
 ! D81   D(31,28,38,40)        -16.3358                                         !
 ! D82   D(26,29,32,33)        -57.5161                                         !
 ! D83   D(26,29,32,34)         62.1521                                         !
 ! D84   D(26,29,32,35)       -178.485                                          !
 ! D85   D(30,29,32,33)         62.1352                                         !
 ! D86   D(30,29,32,34)       -178.1966                                         !
 ! D87   D(30,29,32,35)        -58.8337                                         !
 ! D88   D(36,29,32,33)        177.6441                                         !
 ! D89   D(36,29,32,34)        -62.6877                                         !
 ! D90   D(36,29,32,35)         56.6752                                         !
 ! D91   D(26,29,36,37)        -66.7121                                         !
 ! D92   D(30,29,36,37)        177.8004                                         !
 ! D93   D(32,29,36,37)         59.4408                                         !
 ! D94   D(28,38,40,41)        -18.0064                                         !
 ! D95   D(28,38,40,42)       -135.8404                                         !
 ! D96   D(28,38,40,43)        102.5647                                         !
 ! D97   D(39,38,40,41)        136.9643                                         !
 ! D98   D(39,38,40,42)         19.1303                                         !
 ! D99   D(39,38,40,43)       -102.4646                                         !
 ! D100  D(38,40,42,45)        -15.8269                                         !
 ! D101  D(38,40,42,54)        165.7789                                         !
 ! D102  D(41,40,42,45)       -132.123                                          !
 ! D103  D(41,40,42,54)         49.4828                                         !
 ! D104  D(43,40,42,45)        107.0547                                         !
 ! D105  D(43,40,42,54)        -71.3395                                         !
 ! D106  D(38,40,43,44)        179.3028                                         !
 ! D107  D(38,40,43,46)        -63.4392                                         !
 ! D108  D(38,40,43,50)         61.4514                                         !
 ! D109  D(41,40,43,44)        -60.6596                                         !
 ! D110  D(41,40,43,46)         56.5983                                         !
 ! D111  D(41,40,43,50)       -178.5111                                         !
 ! D112  D(42,40,43,44)         60.945                                          !
 ! D113  D(42,40,43,46)        178.203                                          !
 ! D114  D(42,40,43,50)        -56.9064                                         !
 ! D115  D(40,42,54,55)          4.7199                                         !
 ! D116  D(40,42,54,56)        168.5322                                         !
 ! D117  D(45,42,54,55)       -173.6104                                         !
 ! D118  D(45,42,54,56)         -9.7981                                         !
 ! D119  D(40,43,46,47)         65.139                                          !
 ! D120  D(40,43,46,48)        -54.5805                                         !
 ! D121  D(40,43,46,49)       -175.3939                                         !
 ! D122  D(44,43,46,47)       -178.8216                                         !
 ! D123  D(44,43,46,48)         61.4589                                         !
 ! D124  D(44,43,46,49)        -59.3545                                         !
 ! D125  D(50,43,46,47)        -59.9987                                         !
 ! D126  D(50,43,46,48)       -179.7182                                         !
 ! D127  D(50,43,46,49)         59.4684                                         !
 ! D128  D(40,43,50,51)        -62.0386                                         !
 ! D129  D(40,43,50,52)         58.4179                                         !
 ! D130  D(40,43,50,53)        178.7627                                         !
 ! D131  D(44,43,50,51)       -178.6998                                         !
 ! D132  D(44,43,50,52)        -58.2433                                         !
 ! D133  D(44,43,50,53)         62.1015                                         !
 ! D134  D(46,43,50,51)         62.4802                                         !
 ! D135  D(46,43,50,52)       -177.0632                                         !
 ! D136  D(46,43,50,53)        -56.7185                                         !
 ! D137  D(42,54,56,57)        -13.1288                                         !
 ! D138  D(42,54,56,58)       -132.0941                                         !
 ! D139  D(42,54,56,59)        107.0329                                         !
 ! D140  D(55,54,56,57)        151.6529                                         !
 ! D141  D(55,54,56,58)         32.6877                                         !
 ! D142  D(55,54,56,59)        -88.1854                                         !
 ! D143  D(54,56,58,61)        -36.5226                                         !
 ! D144  D(54,56,58,73)        143.4402                                         !
 ! D145  D(57,56,58,61)       -152.7346                                         !
 ! D146  D(57,56,58,73)         27.2282                                         !
 ! D147  D(59,56,58,61)         85.0753                                         !
 ! D148  D(59,56,58,73)        -94.9618                                         !
 ! D149  D(54,56,59,60)         58.5861                                         !
 ! D150  D(54,56,59,62)        -58.811                                          !
 ! D151  D(54,56,59,65)        176.3222                                         !
 ! D152  D(57,56,59,60)        177.6723                                         !
 ! D153  D(57,56,59,62)         60.2752                                         !
 ! D154  D(57,56,59,65)        -64.5915                                         !
 ! D155  D(58,56,59,60)        -58.8552                                         !
 ! D156  D(58,56,59,62)       -176.2524                                         !
 ! D157  D(58,56,59,65)         58.8809                                         !
 ! D158  D(56,58,73,74)          7.4869                                         !
 ! D159  D(56,58,73,75)        169.092                                          !
 ! D160  D(61,58,73,74)       -172.5519                                         !
 ! D161  D(61,58,73,75)        -10.9467                                         !
 ! D162  D(56,59,62,63)         50.8626                                         !
 ! D163  D(56,59,62,64)        -64.4464                                         !
 ! D164  D(56,59,62,69)        172.4522                                         !
 ! D165  D(60,59,62,63)        -65.2242                                         !
 ! D166  D(60,59,62,64)        179.4668                                         !
 ! D167  D(60,59,62,69)         56.3654                                         !
 ! D168  D(65,59,62,63)        175.0745                                         !
 ! D169  D(65,59,62,64)         59.7655                                         !
 ! D170  D(65,59,62,69)        -63.3359                                         !
 ! D171  D(56,59,65,66)         61.9305                                         !
 ! D172  D(56,59,65,67)        -58.8293                                         !
 ! D173  D(56,59,65,68)       -177.6045                                         !
 ! D174  D(60,59,65,66)        178.3864                                         !
 ! D175  D(60,59,65,67)         57.6267                                         !
 ! D176  D(60,59,65,68)        -61.1486                                         !
 ! D177  D(62,59,65,66)        -61.9031                                         !
 ! D178  D(62,59,65,67)        177.3371                                         !
 ! D179  D(62,59,65,68)         58.5619                                         !
 ! D180  D(59,62,69,70)       -175.0638                                         !
 ! D181  D(59,62,69,71)        -55.6076                                         !
 ! D182  D(59,62,69,72)         64.8367                                         !
 ! D183  D(63,62,69,70)        -53.2483                                         !
 ! D184  D(63,62,69,71)         66.2079                                         !
 ! D185  D(63,62,69,72)       -173.3477                                         !
 ! D186  D(64,62,69,70)         62.4369                                         !
 ! D187  D(64,62,69,71)       -178.1068                                         !
 ! D188  D(64,62,69,72)        -57.6625                                         !
 ! D189  D(58,73,75,76)         -3.7189                                         !
 ! D190  D(58,73,75,77)       -122.1951                                         !
 ! D191  D(58,73,75,78)        116.1657                                         !
 ! D192  D(74,73,75,76)        158.512                                          !
 ! D193  D(74,73,75,77)         40.0358                                         !
 ! D194  D(74,73,75,78)        -81.6034                                         !
 ! D195  D(73,75,77,81)        -38.9192                                         !
 ! D196  D(73,75,77,85)        141.8878                                         !
 ! D197  D(76,75,77,81)       -155.6044                                         !
 ! D198  D(76,75,77,85)         25.2026                                         !
 ! D199  D(78,75,77,81)         83.9515                                         !
 ! D200  D(78,75,77,85)        -95.2415                                         !
 ! D201  D(73,75,78,79)        -71.8496                                         !
 ! D202  D(73,75,78,80)         45.7342                                         !
 ! D203  D(73,75,78,82)        166.9103                                         !
 ! D204  D(76,75,78,79)         46.9797                                         !
 ! D205  D(76,75,78,80)        164.5635                                         !
 ! D206  D(76,75,78,82)        -74.2604                                         !
 ! D207  D(77,75,78,79)        167.9991                                         !
 ! D208  D(77,75,78,80)        -74.4171                                         !
 ! D209  D(77,75,78,82)         46.759                                          !
 ! D210  D(75,77,85,86)         13.9438                                         !
 ! D211  D(75,77,85,87)        175.4972                                         !
 ! D212  D(81,77,85,86)       -165.203                                          !
 ! D213  D(81,77,85,87)         -3.6497                                         !
 ! D214  D(75,78,82,83)       -130.8529                                         !
 ! D215  D(75,78,82,84)         44.1141                                         !
 ! D216  D(79,78,82,83)        109.6469                                         !
 ! D217  D(79,78,82,84)        -75.3862                                         !
 ! D218  D(80,78,82,83)         -9.2494                                         !
 ! D219  D(80,78,82,84)        165.7175                                         !
 ! D220  D(77,85,87,88)          4.6429                                         !
 ! D221  D(77,85,87,89)       -111.6204                                         !
 ! D222  D(77,85,87,90)        122.864                                          !
 ! D223  D(86,85,87,88)        165.4735                                         !
 ! D224  D(86,85,87,89)         49.2102                                         !
 ! D225  D(86,85,87,90)        -76.3053                                         !
 ! D226  D(85,87,89,93)       -176.0717                                         !
 ! D227  D(85,87,89,102)         6.6174                                         !
 ! D228  D(88,87,89,93)         66.4931                                         !
 ! D229  D(88,87,89,102)      -110.8177                                         !
 ! D230  D(90,87,89,93)        -49.794                                          !
 ! D231  D(90,87,89,102)       132.8952                                         !
 ! D232  D(85,87,90,91)        170.9925                                         !
 ! D233  D(85,87,90,92)         56.2427                                         !
 ! D234  D(85,87,90,94)        -66.43                                           !
 ! D235  D(88,87,90,91)        -71.6078                                         !
 ! D236  D(88,87,90,92)        173.6423                                         !
 ! D237  D(88,87,90,94)         50.9696                                         !
 ! D238  D(89,87,90,91)         42.4977                                         !
 ! D239  D(89,87,90,92)        -72.2521                                         !
 ! D240  D(89,87,90,94)        165.0751                                         !
 ! D241  D(87,89,102,103)      -11.2913                                         !
 ! D242  D(87,89,102,104)      178.0075                                         !
 ! D243  D(93,89,102,103)      171.5748                                         !
 ! D244  D(93,89,102,104)        0.8736                                         !
 ! D245  D(87,90,94,95)        -12.7858                                         !
 ! D246  D(87,90,94,97)        169.2606                                         !
 ! D247  D(91,90,94,95)        107.4043                                         !
 ! D248  D(91,90,94,97)        -70.5492                                         !
 ! D249  D(92,90,94,95)       -134.3651                                         !
 ! D250  D(92,90,94,97)         47.6813                                         !
 ! D251  D(90,94,95,96)          3.6016                                         !
 ! D252  D(90,94,95,101)      -178.1768                                         !
 ! D253  D(97,94,95,96)       -178.188                                          !
 ! D254  D(97,94,95,101)         0.0336                                         !
 ! D255  D(90,94,97,98)         -1.4311                                         !
 ! D256  D(90,94,97,99)        178.4146                                         !
 ! D257  D(95,94,97,98)       -179.8996                                         !
 ! D258  D(95,94,97,99)         -0.0539                                         !
 ! D259  D(94,95,101,99)         0.0007                                         !
 ! D260  D(96,95,101,99)       178.3575                                         !
 ! D261  D(94,97,99,100)       179.9289                                         !
 ! D262  D(94,97,99,101)         0.0588                                         !
 ! D263  D(98,97,99,100)        -0.2266                                         !
 ! D264  D(98,97,99,101)       179.9033                                         !
 ! D265  D(97,99,101,95)        -0.0365                                         !
 ! D266  D(100,99,101,95)     -179.9006                                         !
 ! D267  D(89,102,104,105)      49.8674                                         !
 ! D268  D(89,102,104,106)     -67.6985                                         !
 ! D269  D(89,102,104,107)     170.4129                                         !
 ! D270  D(103,102,104,105)   -121.4776                                         !
 ! D271  D(103,102,104,106)    120.9565                                         !
 ! D272  D(103,102,104,107)     -0.9321                                         !
 ! D273  D(102,104,106,110)    -79.1282                                         !
 ! D274  D(102,104,106,121)    100.9145                                         !
 ! D275  D(105,104,106,110)    163.2414                                         !
 ! D276  D(105,104,106,121)    -16.7158                                         !
 ! D277  D(107,104,106,110)     42.1027                                         !
 ! D278  D(107,104,106,121)   -137.8546                                         !
 ! D279  D(102,104,107,108)    -62.0864                                         !
 ! D280  D(102,104,107,109)     52.3058                                         !
 ! D281  D(102,104,107,111)    175.6971                                         !
 ! D282  D(105,104,107,108)     57.0912                                         !
 ! D283  D(105,104,107,109)    171.4833                                         !
 ! D284  D(105,104,107,111)    -65.1254                                         !
 ! D285  D(106,104,107,108)    176.8362                                         !
 ! D286  D(106,104,107,109)    -68.7717                                         !
 ! D287  D(106,104,107,111)     54.6196                                         !
 ! D288  D(104,106,121,122)    -10.2176                                         !
 ! D289  D(104,106,121,123)    178.0038                                         !
 ! D290  D(110,106,121,122)    169.8254                                         !
 ! D291  D(110,106,121,123)     -1.9532                                         !
 ! D292  D(104,107,111,112)    -67.336                                          !
 ! D293  D(104,107,111,113)     52.0567                                         !
 ! D294  D(104,107,111,117)    176.0385                                         !
 ! D295  D(108,107,111,112)    171.9035                                         !
 ! D296  D(108,107,111,113)    -68.7038                                         !
 ! D297  D(108,107,111,117)     55.278                                          !
 ! D298  D(109,107,111,112)     54.9675                                         !
 ! D299  D(109,107,111,113)    174.3602                                         !
 ! D300  D(109,107,111,117)    -61.658                                          !
 ! D301  D(107,111,113,114)     54.2954                                         !
 ! D302  D(107,111,113,115)    173.5729                                         !
 ! D303  D(107,111,113,116)    -66.9914                                         !
 ! D304  D(112,111,113,114)    173.4222                                         !
 ! D305  D(112,111,113,115)    -67.3004                                         !
 ! D306  D(112,111,113,116)     52.1354                                         !
 ! D307  D(117,111,113,114)    -68.7079                                         !
 ! D308  D(117,111,113,115)     50.5696                                         !
 ! D309  D(117,111,113,116)    170.0053                                         !
 ! D310  D(107,111,117,118)    -64.9524                                         !
 ! D311  D(107,111,117,119)    175.3268                                         !
 ! D312  D(107,111,117,120)     54.8098                                         !
 ! D313  D(112,111,117,118)    178.4621                                         !
 ! D314  D(112,111,117,119)     58.7413                                         !
 ! D315  D(112,111,117,120)    -61.7756                                         !
 ! D316  D(113,111,117,118)     60.3495                                         !
 ! D317  D(113,111,117,119)    -59.3713                                         !
 ! D318  D(113,111,117,120)   -179.8882                                         !
 ! D319  D(106,121,123,124)     -1.2655                                         !
 ! D320  D(106,121,123,125)   -117.6533                                         !
 ! D321  D(106,121,123,126)    120.9459                                         !
 ! D322  D(122,121,123,124)   -172.978                                          !
 ! D323  D(122,121,123,125)     70.6342                                         !
 ! D324  D(122,121,123,126)    -50.7666                                         !
 ! D325  D(121,123,125,129)    -15.2964                                         !
 ! D326  D(121,123,125,145)    166.6202                                         !
 ! D327  D(124,123,125,129)   -131.9178                                         !
 ! D328  D(124,123,125,145)     49.9988                                         !
 ! D329  D(126,123,125,129)    107.9157                                         !
 ! D330  D(126,123,125,145)    -70.1677                                         !
 ! D331  D(121,123,126,127)    179.2006                                         !
 ! D332  D(121,123,126,128)     64.3593                                         !
 ! D333  D(121,123,126,130)    -57.305                                          !
 ! D334  D(124,123,126,127)    -60.2384                                         !
 ! D335  D(124,123,126,128)   -175.0796                                         !
 ! D336  D(124,123,126,130)     63.256                                          !
 ! D337  D(125,123,126,127)     57.915                                          !
 ! D338  D(125,123,126,128)    -56.9262                                         !
 ! D339  D(125,123,126,130)   -178.5906                                         !
 ! D340  D(123,125,145,146)    178.1848                                         !
 ! D341  D(129,125,145,146)      0.0749                                         !
 ! D342  D(123,126,130,131)     62.4835                                         !
 ! D343  D(123,126,130,132)    177.9605                                         !
 ! D344  D(123,126,130,133)    -62.0457                                         !
 ! D345  D(127,126,130,131)   -175.2642                                         !
 ! D346  D(127,126,130,132)    -59.7871                                         !
 ! D347  D(127,126,130,133)     60.2067                                         !
 ! D348  D(128,126,130,131)    -59.012                                          !
 ! D349  D(128,126,130,132)     56.465                                          !
 ! D350  D(128,126,130,133)    176.4588                                         !
 ! D351  D(126,130,133,134)   -146.1748                                         !
 ! D352  D(126,130,133,135)    -30.1623                                         !
 ! D353  D(126,130,133,136)     90.5497                                         !
 ! D354  D(131,130,133,134)     89.2847                                         !
 ! D355  D(131,130,133,135)   -154.7027                                         !
 ! D356  D(131,130,133,136)    -33.9907                                         !
 ! D357  D(132,130,133,134)    -26.9334                                         !
 ! D358  D(132,130,133,135)     89.0791                                         !
 ! D359  D(132,130,133,136)   -150.2088                                         !
 ! D360  D(130,133,136,137)    -71.1381                                         !
 ! D361  D(130,133,136,144)     83.3194                                         !
 ! D362  D(134,133,136,137)    164.4131                                         !
 ! D363  D(134,133,136,144)    -41.1294                                         !
 ! D364  D(135,133,136,137)     51.7078                                         !
 ! D365  D(135,133,136,144)   -153.8346                                         !
 ! D366  D(133,136,144,138)     15.3592                                         !
 ! D367  D(133,136,144,141)   -168.2276                                         !
 ! D368  D(137,136,144,138)    170.7729                                         !
 ! D369  D(137,136,144,141)    -12.8139                                         !
 ! D370  D(139,138,144,136)   -166.036                                          !
 ! D371  D(139,138,144,141)     17.5513                                         !
 ! D372  D(140,138,144,136)     -7.893                                          !
 ! D373  D(140,138,144,141)    175.6943                                         !
 ! D374  D(142,141,144,136)   -179.3984                                         !
 ! D375  D(142,141,144,138)     -2.8646                                         !
 ! D376  D(143,141,144,136)     21.0885                                         !
 ! D377  D(143,141,144,138)   -162.3777                                         !
 --------------------------------------------------------------------------------
 Symmetry turned off by external request.
 Stoichiometry    C43H75N14O14(1+)
 Framework group  C1[X(C43H75N14O14)]
 Deg. of freedom   432
 Full point group                 C1      NOp   1
                          Input orientation:                          
 ---------------------------------------------------------------------
 Center     Atomic      Atomic             Coordinates (Angstroms)
 Number     Number       Type             X           Y           Z
 ---------------------------------------------------------------------
      1          7           0      -11.812134   -1.735286   -8.446257
      2          1           0      -11.807028   -1.001978   -9.160554
      3          1           0      -11.148894   -2.491314   -8.749916
      4          1           0      -12.778047   -2.070946   -8.300431
      5          6           0      -11.253045   -1.284291   -7.124033
      6          1           0      -11.403996   -0.206760   -7.026965
      7          6           0       -9.763823   -1.698823   -7.172057
      8          6           0      -12.019225   -2.068174   -6.030173
      9          1           0      -11.797089   -1.635317   -5.049244
     10          1           0      -11.676493   -3.108300   -6.030396
     11          8           0       -9.441095   -2.552409   -8.008616
     12          8           0      -13.404302   -2.093363   -6.336307
     13          1           0      -13.858856   -1.355271   -5.900256
     14          7           0       -8.977600   -1.144265   -6.260074
     15          1           0       -9.302331   -0.451369   -5.579459
     16          6           0       -7.567428   -1.479053   -6.063045
     17          1           0       -7.469783   -2.568540   -5.997331
     18          6           0       -7.207327   -0.829011   -4.707823
     19          6           0       -6.683955   -0.945145   -7.202264
     20          1           0       -5.632464   -1.189254   -7.023396
     21          1           0       -6.775300    0.143279   -7.274986
     22          1           0       -6.988507   -1.397667   -8.149366
     23          8           0       -7.997031   -0.046395   -4.171638
     24          7           0       -6.009239   -1.177868   -4.210622
     25          1           0       -5.329741   -1.654051   -4.807877
     26          6           0       -5.330881   -0.429117   -3.156300
     27          1           0       -5.754405    0.579857   -3.104858
     28          6           0       -3.848254   -0.385703   -3.591670
     29          6           0       -5.468038   -1.119384   -1.773368
     30          1           0       -4.895871   -0.529471   -1.048463
     31          8           0       -3.461166   -1.068217   -4.543638
     32          6           0       -6.919669   -1.220272   -1.310258
     33          1           0       -7.394087   -0.235280   -1.259530
     34          1           0       -7.504510   -1.834140   -2.005327
     35          1           0       -6.952754   -1.688587   -0.322516
     36          8           0       -4.824682   -2.385765   -1.792071
     37          1           0       -5.322921   -2.956883   -2.399604
     38          7           0       -3.065682    0.426488   -2.861622
     39          1           0       -3.420415    0.830532   -1.997094
     40          6           0       -1.610060    0.355390   -2.869989
     41          1           0       -1.321693   -0.620177   -3.276333
     42          6           0       -1.185105    0.464229   -1.392107
     43          6           0       -0.950158    1.471995   -3.725425
     44          1           0        0.135550    1.320936   -3.642999
     45          8           0       -1.977648    0.868313   -0.536540
     46          6           0       -1.343007    1.329188   -5.200974
[...]
 Alpha virt. eigenvalues --    1.71371   1.72132   1.72646   1.72775   1.73133
 Alpha virt. eigenvalues --    1.73512   1.73770   1.73781   1.74045   1.74355
 Alpha virt. eigenvalues --    1.74699   1.74882   1.75202   1.75337   1.75914
 Alpha virt. eigenvalues --    1.76285   1.76353   1.77122   1.77385   1.77964
 Alpha virt. eigenvalues --    1.78166   1.78458   1.78874   1.79031   1.79430
 Alpha virt. eigenvalues --    1.79635   1.80040   1.80362   1.80656   1.81277
 Alpha virt. eigenvalues --    1.81464   1.81849   1.82350   1.82582   1.82853
 Alpha virt. eigenvalues --    1.83385   1.83437   1.83713   1.83887   1.84410
 Alpha virt. eigenvalues --    1.84490   1.84553   1.84722   1.85389   1.85547
 Alpha virt. eigenvalues --    1.85636   1.86493   1.87131   1.87306   1.87726
 Alpha virt. eigenvalues --    1.88099   1.88232   1.89064   1.89261   1.89468
 Alpha virt. eigenvalues --    1.89884   1.90396   1.90606   1.90708   1.91192
 Alpha virt. eigenvalues --    1.91346   1.91617   1.91941   1.92201   1.92426
 Alpha virt. eigenvalues --    1.92779   1.92904   1.93273   1.93870   1.93958
 Alpha virt. eigenvalues --    1.94525   1.94672   1.94974   1.95567   1.95728
 Alpha virt. eigenvalues --    1.96394   1.96479   1.96824   1.97078   1.97524
 Alpha virt. eigenvalues --    1.97821   1.98039   1.98354   1.98700   1.98797
 Alpha virt. eigenvalues --    1.99138   1.99405   1.99683   2.00167   2.00684
 Alpha virt. eigenvalues --    2.00837   2.01433   2.01712   2.02195   2.02446
 Alpha virt. eigenvalues --    2.02869   2.03091   2.03386   2.03705   2.04162
 Alpha virt. eigenvalues --    2.04446   2.04973   2.05234   2.05285   2.05462
 Alpha virt. eigenvalues --    2.05926   2.06196   2.06707   2.07213   2.07293
 Alpha virt. eigenvalues --    2.07530   2.07712   2.08042   2.08214   2.09035
 Alpha virt. eigenvalues --    2.09321   2.09548   2.10328   2.10584   2.10982
 Alpha virt. eigenvalues --    2.11300   2.11576   2.12130   2.12332   2.12613
 Alpha virt. eigenvalues --    2.12904   2.13222   2.13788   2.14100   2.14434
 Alpha virt. eigenvalues --    2.14781   2.15417   2.15531   2.15722   2.16453
 Alpha virt. eigenvalues --    2.16975   2.17460   2.17893   2.18732   2.19313
 Alpha virt. eigenvalues --    2.19397   2.20148   2.20584   2.20930   2.21549
 Alpha virt. eigenvalues --    2.21891   2.21913   2.22712   2.22806   2.22920
 Alpha virt. eigenvalues --    2.23683   2.24082   2.24797   2.25105   2.25393
 Alpha virt. eigenvalues --    2.25637   2.25919   2.26362   2.26587   2.27034
 Alpha virt. eigenvalues --    2.27563   2.28177   2.28322   2.28661   2.29083
 Alpha virt. eigenvalues --    2.29847   2.30516   2.30690   2.31444   2.31667
 Alpha virt. eigenvalues --    2.31870   2.32508   2.32937   2.33114   2.33239
 Alpha virt. eigenvalues --    2.33438   2.33920   2.34822   2.35059   2.36010
 Alpha virt. eigenvalues --    2.36364   2.36625   2.36899   2.37100   2.37465
 Alpha virt. eigenvalues --    2.37901   2.37998   2.38801   2.38860   2.39848
 Alpha virt. eigenvalues --    2.40462   2.41349   2.41457   2.41885   2.42898
 Alpha virt. eigenvalues --    2.43299   2.43980   2.44285   2.44505   2.45004
 Alpha virt. eigenvalues --    2.45361   2.45896   2.46535   2.46709   2.47100
 Alpha virt. eigenvalues --    2.47338   2.47548   2.47855   2.49095   2.49413
 Alpha virt. eigenvalues --    2.50001   2.50904   2.51332   2.51386   2.51483
 Alpha virt. eigenvalues --    2.52287   2.52830   2.53178   2.53840   2.54461
 Alpha virt. eigenvalues --    2.55049   2.55327   2.55910   2.56547   2.56704
 Alpha virt. eigenvalues --    2.57239   2.58736   2.58817   2.59117   2.59544
 Alpha virt. eigenvalues --    2.60328   2.61059   2.61863   2.62250   2.62661
 Alpha virt. eigenvalues --    2.63463   2.64009   2.64458   2.64845   2.65305
 Alpha virt. eigenvalues --    2.65926   2.66468   2.66618   2.67036   2.68237
 Alpha virt. eigenvalues --    2.68443   2.68579   2.69980   2.70051   2.70184
 Alpha virt. eigenvalues --    2.70576   2.70860   2.71909   2.72462   2.73305
 Alpha virt. eigenvalues --    2.73975   2.75199   2.75557   2.76115   2.76358
 Alpha virt. eigenvalues --    2.78385   2.78795   2.80310   2.81169   2.81834
 Alpha virt. eigenvalues --    2.82349   2.83559   2.83643   2.83829   2.84224
 Alpha virt. eigenvalues --    2.85103   2.85757   2.86806   2.88600   2.89060
 Alpha virt. eigenvalues --    2.89435   2.89796   2.92135   2.93694   2.94282
 Alpha virt. eigenvalues --    2.94887   2.95334   2.96288   2.96869   2.97963
 Alpha virt. eigenvalues --    2.98840   2.99465   3.01313   3.02795   3.02982
 Alpha virt. eigenvalues --    3.03404   3.04948   3.05593   3.06150   3.07869
 Alpha virt. eigenvalues --    3.09712   3.11331   3.12527   3.13567   3.13803
 Alpha virt. eigenvalues --    3.15555   3.16219   3.17413   3.61853   3.64943
 Alpha virt. eigenvalues --    3.72489   3.78254   3.84506   3.89217   3.89947
 Alpha virt. eigenvalues --    3.91112   3.92733   3.97186   3.97324   3.97843
 Alpha virt. eigenvalues --    3.99296   3.99895   4.00617   4.01578   4.02259
 Alpha virt. eigenvalues --    4.04780   4.05277   4.07309   4.10136   4.11831
 Alpha virt. eigenvalues --    4.12151   4.12452   4.13653   4.14311   4.15338
 Alpha virt. eigenvalues --    4.15707   4.16835   4.16853   4.18473   4.18786
 Alpha virt. eigenvalues --    4.20017   4.20903   4.21572   4.25428   4.25609
 Alpha virt. eigenvalues --    4.26269   4.26802   4.27306   4.27997   4.28495
 Alpha virt. eigenvalues --    4.29918   4.30641   4.33472   4.33575   4.34503
 Alpha virt. eigenvalues --    4.36926   4.37264   4.37646   4.38768   4.40055
 Alpha virt. eigenvalues --    4.41070   4.42405   4.43405   4.45101   4.46925
 Alpha virt. eigenvalues --    4.49482   4.49614   4.51129   4.51608   4.52456
 Alpha virt. eigenvalues --    4.53167   4.56283   4.59620   4.60655   4.64422
 Alpha virt. eigenvalues --    4.64977   4.70072   4.70766   4.75413
          Condensed to atoms (all electrons):
 Mulliken charges:
               1
     1  N   -0.740698
     2  H    0.419115
     3  H    0.428772
     4  H    0.427124
     5  C   -0.145163
     6  H    0.213011
     7  C    0.655026
     8  C   -0.065522
     9  H    0.204516
    10  H    0.208518
    11  O   -0.533313
    12  O   -0.607317
    13  H    0.431420
    14  N   -0.612731
    15  H    0.370398
    16  C   -0.053371
    17  H    0.196347
    18  C    0.620280
    19  C   -0.464445
    20  H    0.193985
    21  H    0.170744
    22  H    0.189880
    23  O   -0.541654
    24  N   -0.624730
    25  H    0.368328
    26  C   -0.097190
    27  H    0.183545
    28  C    0.646173
    29  C    0.128190
    30  H    0.169248
    31  O   -0.551054
    32  C   -0.455943
    33  H    0.160482
    34  H    0.132627
    35  H    0.173464
    36  O   -0.610366
    37  H    0.389589
    38  N   -0.604528
    39  H    0.360607
    40  C   -0.070026
    41  H    0.181659
    42  C    0.632651
    43  C   -0.079411
    44  H    0.145282
    45  O   -0.557712
    46  C   -0.440756
    47  H    0.142226
    48  H    0.157578
    49  H    0.149141
    50  C   -0.460625
    51  H    0.143094
    52  H    0.162724
    53  H    0.156138
    54  N   -0.605668
    55  H    0.354344
    56  C   -0.063431
    57  H    0.167661
    58  C    0.615199
    59  C   -0.068340
    60  H    0.135093
    61  O   -0.542064
    62  C   -0.249538
    63  H    0.142530
    64  H    0.136526
    65  C   -0.484970
    66  H    0.127820
    67  H    0.161529
    68  H    0.191491
    69  C   -0.451115
    70  H    0.143687
    71  H    0.142099
    72  H    0.155036
    73  N   -0.599199
    74  H    0.345372
    75  C   -0.046872
    76  H    0.199449
    77  C    0.617112
    78  C   -0.338967
    79  H    0.172022
    80  H    0.142898
    81  O   -0.602710
    82  C    0.574203
    83  O   -0.577372
    84  O   -0.626623
    85  N   -0.571033
    86  H    0.372030
    87  C   -0.076605
    88  H    0.175790
    89  C    0.622874
    90  C   -0.355893
    91  H    0.195899
    92  H    0.153495
    93  O   -0.573277
    94  C    0.339775
    95  C   -0.097468
    96  H    0.144803
    97  N   -0.615787
    98  H    0.334300
    99  C    0.211168
   100  H    0.158680
   101  N   -0.437865
   102  N   -0.675730
   103  H    0.436226
   104  C   -0.030432
   105  H    0.158294
   106  C    0.636810
   107  C   -0.308767
   108  H    0.149907
   109  H    0.205276
   110  O   -0.583814
   111  C   -0.086542
   112  H    0.139940
   113  C   -0.459550
   114  H    0.137473
   115  H    0.145239
   116  H    0.147751
   117  C   -0.444628
   118  H    0.139708
   119  H    0.138092
   120  H    0.154775
   121  N   -0.543211
   122  H    0.363951
   123  C   -0.073794
   124  H    0.187507
   125  C    0.595377
   126  C   -0.288650
   127  H    0.171012
   128  H    0.163056
   129  O   -0.446013
   130  C   -0.288503
   131  H    0.198738
   132  H    0.152868
   133  C   -0.180712
   134  H    0.158128
   135  H    0.180029
   136  N   -0.613240
   137  H    0.392869
   138  N   -0.802027
   139  H    0.418947
   140  H    0.355342
   141  N   -0.784538
   142  H    0.377029
   143  H    0.417119
   144  C    0.788997
   145  O   -0.565860
   146  H    0.422141
 Sum of Mulliken charges =   1.00000
 Mulliken charges with hydrogens summed into heavy atoms:
               1
     1  N    0.534313
     5  C    0.067848
     7  C    0.655026
     8  C    0.347513
    11  O   -0.533313
    12  O   -0.175897
    14  N   -0.242332
    16  C    0.142976
    18  C    0.620280
    19  C    0.090164
    23  O   -0.541654
    24  N   -0.256403
    26  C    0.086354
    28  C    0.646173
    29  C    0.297438
    31  O   -0.551054
    32  C    0.010630
    36  O   -0.220777
    38  N   -0.243922
    40  C    0.111632
    42  C    0.632651
    43  C    0.065871
    45  O   -0.557712
    46  C    0.008189
    50  C    0.001331
    54  N   -0.251324
    56  C    0.104230
    58  C    0.615199
    59  C    0.066753
    61  O   -0.542064
    62  C    0.029519
    65  C   -0.004129
    69  C   -0.010293
    73  N   -0.253827
    75  C    0.152577
    77  C    0.617112
    78  C   -0.024047
    81  O   -0.602710
    82  C    0.574203
    83  O   -0.577372
    84  O   -0.626623
    85  N   -0.199004
    87  C    0.099185
    89  C    0.622874
    90  C   -0.006499
    93  O   -0.573277
    94  C    0.339775
    95  C    0.047335
    97  N   -0.281486
    99  C    0.369849
   101  N   -0.437865
   102  N   -0.239504
   104  C    0.127862
   106  C    0.636810
   107  C    0.046416
   110  O   -0.583814
   111  C    0.053398
   113  C   -0.029087
   117  C   -0.012053
   121  N   -0.179260
   123  C    0.113712
   125  C    0.595377
   126  C    0.045417
   129  O   -0.446013
   130  C    0.063103
   133  C    0.157445
   136  N   -0.220370
   138  N   -0.027739
   141  N    0.009609
   144  C    0.788997
   145  O   -0.143719
 Electronic spatial extent (au):  <R**2>=         155915.7998
 Charge=              1.0000 electrons
 Dipole moment (field-independent basis, Debye):
    X=            -38.2736    Y=             -3.1946    Z=            -18.8229  Tot=             42.7712
 Quadrupole moment (field-independent basis, Debye-Ang):
   XX=            214.6402   YY=           -403.5051   ZZ=           -108.2379
   XY=             66.7324   XZ=            443.7150   YZ=             88.7840
 Traceless Quadrupole moment (field-independent basis, Debye-Ang):
   XX=            313.6745   YY=           -304.4709   ZZ=             -9.2036
   XY=             66.7324   XZ=            443.7150   YZ=             88.7840
 Octapole moment (field-independent basis, Debye-Ang**2):
  XXX=          -8117.1508  YYY=          -2234.0630  ZZZ=          -1533.4566  XYY=           -582.5503
  XXY=          -1148.6121  XXZ=          -3461.6294  XZZ=          -2794.6102  YZZ=           -482.2499
  YYZ=            180.7073  XYZ=             95.7950
 Hexadecapole moment (field-independent basis, Debye-Ang**3):
 XXXX=         -35692.9797 YYYY=         -32318.0003 ZZZZ=         -23996.8938 XXXY=         -14518.4373
 XXXZ=          25284.9922 YYYX=         -22791.0759 YYYZ=          -8385.7709 ZZZX=          -3835.4378
 ZZZY=          -4725.2212 XXYY=         -21978.0947 XXZZ=          10947.5431 YYZZ=          -9755.5141
 XXYZ=           5604.0122 YYXZ=          -6587.8550 ZZXY=           -849.2613
 N-N= 1.162941154482D+04 E-N=-3.139570849928D+04  KE= 3.471336042042D+03
 Unable to Open any file for archive entry.
 1\1\GINC-SKL-159\SP\RB3LYP\6-31G(d)\C43H75N14O14(1+)\KENGMITH\12-Jun-2
 022\0\\# B3LYP/6-31G* empiricaldispersion=gd3 guess=read geom=check no
 symm integral(ultrafinegrid)\\Candidate Structure: Conf:242 Charge cal
 c in gas phase\\1,1\N,0,-11.812134184,-1.7352861093,-8.4462571542\H,0,
 -11.8070279396,-1.0019783383,-9.1605543178\H,0,-11.1488939184,-2.49131
 43939,-8.7499161163\H,0,-12.7780467643,-2.0709463467,-8.300430934\C,0,
 -11.2530450847,-1.2842905576,-7.1240328865\H,0,-11.4039955946,-0.20676
 0404,-7.026965161\C,0,-9.763823105,-1.6988234725,-7.1720569064\C,0,-12
 .0192245087,-2.0681744712,-6.0301730656\H,0,-11.7970888213,-1.63531722
 78,-5.0492435733\H,0,-11.6764926436,-3.1082996176,-6.0303964193\O,0,-9
 .4410952312,-2.5524086057,-8.0086161301\O,0,-13.404301872,-2.093363483
 5,-6.3363074532\H,0,-13.8588557517,-1.3552705444,-5.9002557763\N,0,-8.
 977600241,-1.1442653944,-6.2600738394\H,0,-9.3023306361,-0.4513685631,
 -5.5794590164\C,0,-7.5674279832,-1.4790528688,-6.0630454707\H,0,-7.469
 7832729,-2.5685401642,-5.9973314395\C,0,-7.2073273962,-0.8290106377,-4
 .7078228284\C,0,-6.6839549094,-0.9451452476,-7.202263653\H,0,-5.632464
 0768,-1.1892541006,-7.0233963299\H,0,-6.7753001839,0.1432792577,-7.274
 98611\H,0,-6.9885069826,-1.3976666732,-8.1493662246\O,0,-7.9970308627,
 -0.0463951266,-4.1716379135\N,0,-6.0092393189,-1.1778682763,-4.2106219
 43\H,0,-5.3297407754,-1.6540508139,-4.8078770809\C,0,-5.3308813341,-0.
 4291171198,-3.1563003619\H,0,-5.7544054693,0.5798570453,-3.1048578953\
 C,0,-3.8482537799,-0.3857027933,-3.5916698683\C,0,-5.468038461,-1.1193
 840674,-1.7733681012\H,0,-4.8958714966,-0.5294712924,-1.0484631405\O,0
 ,-3.4611659524,-1.068216943,-4.543637542\C,0,-6.9196691268,-1.22027174
 33,-1.3102576086\H,0,-7.3940870032,-0.235280165,-1.2595296082\H,0,-7.5
 045103832,-1.8341401512,-2.0053268225\H,0,-6.9527541433,-1.6885867604,
 -0.3225156262\O,0,-4.8246822338,-2.3857653419,-1.7920707586\H,0,-5.322
 920634,-2.9568834569,-2.3996043428\N,0,-3.0656821786,0.4264880797,-2.8
 616218712\H,0,-3.4204147622,0.8305319598,-1.9970935567\C,0,-1.61005992
 5,0.3553895627,-2.8699892973\H,0,-1.3216928437,-0.6201774647,-3.276332
 5093\C,0,-1.1851051454,0.4642286425,-1.3921066964\C,0,-0.9501582159,1.
 4719950849,-3.7254245809\H,0,0.1355503496,1.3209355234,-3.6429988223\O
 ,0,-1.9776484193,0.8683132413,-0.5365396384\C,0,-1.3430070243,1.329187
 7249,-5.2009742625\H,0,-2.418162311,1.4933624188,-5.3332674518\H,0,-1.
 1131019378,0.3305332857,-5.5856007685\H,0,-0.809924981,2.0688018987,-5
 .8085230602\C,0,-1.2814240351,2.8716757523,-3.1907217333\H,0,-2.361596
 1521,3.0553387414,-3.2335301179\H,0,-0.9587889061,3.0034652247,-2.1526
 239351\H,0,-0.7869239138,3.637178725,-3.7976343937\N,0,0.0924455992,0.
 1234983037,-1.1397731572\H,0,0.7234743401,-0.1098498227,-1.8997260879\
 C,0,0.7667177944,0.3787674347,0.1283964278\H,0,0.1437123512,1.07686882
 15,0.6971134586\C,0,2.1167195355,1.008429242,-0.2517307646\C,0,0.97008
 82931,-0.9220680955,0.9576218392\H,0,1.5630855327,-1.6015354965,0.3273
 29531\O,0,2.7145427077,0.6240557453,-1.2565854439\C,0,-0.3886282517,-1
 .5882180273,1.2488743394\H,0,-0.9470118661,-1.6887162454,0.3116994166\
 H,0,-0.9835435814,-0.91936652,1.8863650543\C,0,1.7609710038,-0.6370109
 774,2.2417675219\H,0,1.2139892679,0.0633753596,2.8888608\H,0,2.7429606
 489,-0.2078509247,2.0337554111\H,0,1.9475713012,-1.5485184272,2.813218
 3108\C,0,-0.2730508361,-2.9698259771,1.9027325609\H,0,-1.2616508705,-3
 .4310644914,2.0059697335\H,0,0.3465503701,-3.6413283547,1.295146672\H,
 0,0.1737106217,-2.9194809924,2.9008846446\N,0,2.5731184071,1.980003332
 3,0.5752860911\H,0,2.0827002856,2.16296396,1.4423021813\C,0,3.92587424
 35,2.51239171,0.4938473828\H,0,4.4528615372,1.9428424373,-0.2716284961
 \C,0,4.5940113106,2.3020321093,1.8608307426\C,0,3.9445388255,4.0098590
 641,0.1127772777\H,0,3.6622225159,4.0885088003,-0.9430153257\H,0,3.203
 459908,4.5570226127,0.7038621159\O,0,3.9356056339,2.4637300039,2.90832
 33998\C,0,5.3449235261,4.6248680676,0.3501971422\O,0,5.396737067,5.697
 1685367,0.987551571\O,0,6.3326830447,3.9200692528,-0.0461993084\N,0,5.
 8925976875,1.9624875454,1.8119792861\H,0,6.3218384077,2.1057423705,0.8
 980033264\C,0,6.7650803373,1.800091258,2.9614616893\H,0,6.1457832812,1
 .9228197303,3.8536494807\C,0,7.8773719028,2.8654230456,3.097399259\C,0
 ,7.3885980999,0.3917099549,2.9922207027\H,0,8.1500836831,0.3946438223,
 3.7804536503\H,0,7.9185571822,0.2228480026,2.0429747771\O,0,8.69325136
 49,2.7250910457,4.0220626977\C,0,6.3728500303,-0.6833033516,3.22347999
 88\C,0,5.0576059458,-0.6732942051,3.6296308892\H,0,4.4342265734,0.1864
 653254,3.8308532965\N,0,6.6752268877,-2.0255537401,3.0720597658\H,0,7.
 5666035149,-2.4023451301,2.7822743285\C,0,5.5531346302,-2.7428595117,3
 .3884071486\H,0,5.5274507305,-3.823710158,3.3485890482\N,0,4.557077231
 1,-1.9568450015,3.7292196453\N,0,7.8806576887,3.9120032407,2.255599888
 2\H,0,7.277735724,3.9634838654,1.4067335703\C,0,8.8959832309,4.9601375
 296,2.3875827643\H,0,9.8791614743,4.4787273693,2.4445015432\C,0,8.6668
 223199,5.7357094279,3.6987441407\C,0,8.8299495797,5.9015106717,1.17760
 48779\H,0,9.0567814744,5.3011565145,0.2869519115\H,0,7.7951569146,6.24
 21374851,1.0662360261\O,0,7.795768144,6.6148689149,3.8070047632\C,0,9.
 7820402712,7.1096523104,1.2499877017\H,0,9.4332357304,7.7603253085,2.0
 637232548\C,0,11.2383491883,6.714857234,1.544700271\H,0,11.5970201387,
 5.9704928843,0.8211884388\H,0,11.8972145705,7.5880830086,1.4746907978\
 H,0,11.3630377586,6.3010771464,2.5523923675\C,0,9.6846257623,7.9058571
 181,-0.0589800115\H,0,10.0483997036,7.3090273744,-0.9055243274\H,0,10.
 2880679536,8.8198285313,-0.0102989255\H,0,8.6484339356,8.1915516172,-0
 .272775582\N,0,9.4838164229,5.3856631765,4.712438863\H,0,10.0491977565
 ,4.5567788454,4.5781677735\C,0,9.4880458081,5.9966188547,6.0205593726\
 H,0,8.7373361285,6.7909109761,6.0208336536\C,0,10.8494181406,6.6522102
 442,6.2632418894\C,0,9.2034351256,4.9749105896,7.1477672256\H,0,9.2388
 479741,5.5141292173,8.1016003973\H,0,10.0274153533,4.2496467143,7.1652
 722628\O,0,11.8480001977,6.4436162753,5.6165600146\C,0,7.8800587559,4.
 201442466,7.0299731231\H,0,7.880488111,3.596281893,6.1163065554\H,0,7.
 844683597,3.5001312558,7.8731909707\C,0,6.6112051069,5.0803673231,7.07
 88983554\H,0,5.7916239182,4.5496043834,7.573940866\H,0,6.7841767993,5.
 9721932508,7.6915545237\N,0,6.1396785406,5.5513190573,5.7781246844\H,0
 ,6.7006114753,6.2648629296,5.3064936893\N,0,4.690050722,3.7509905074,5
 .3187627215\H,0,4.3025786293,3.1500407501,4.5847134074\H,0,4.840399395
 3,3.3523114419,6.2307674507\N,0,5.2034059674,5.2976180535,3.6874479481
 \H,0,4.6220065691,4.803773773,3.0256940847\H,0,5.8666043183,5.94357618
 64,3.2634915076\C,0,5.364344596,4.8501452466,4.9310438986\O,0,10.79955
 40697,7.474825083,7.3350716468\H,0,11.697220798,7.8386570088,7.4573765
 568\\Version=ES64L-G16RevC.01\HF=-3503.6013014\RMSD=6.725e-09\Dipole=-
 18.2232959,-4.5581725,-7.79686\Quadrupole=233.2092765,-226.3666156,-6.
 8426608,49.6139373,329.8912526,66.0086927\PG=C01 [X(C43H75N14O14)]\\@
 The archive entry for this job was punched.


 IN-LAWS ARE LIKE SEEDS. YOU DON'T NEED THEM
 BUT THEY COME WITH THE TOMATO.
 Job cpu time:       0 days  0 hours  4 minutes 38.3 seconds.
 Elapsed time:       0 days  0 hours  1 minutes 10.8 seconds.
 File lengths (MBytes):  RWF=    880 Int=      0 D2E=      0 Chk=    144 Scr=     16
 Normal termination of Gaussian 16 at Sun Jun 12 09:21:52 2022.
