 Entering Gaussian System, Link 0=/opt/software/Gaussian/g16-AVX2-C.01/g16/g16
 Input=charge-conf-448.com
 Output=charge-conf-448.log
 Initial command:
 /opt/software/Gaussian/g16-AVX2-C.01/g16/l1.exe "/mnt/gs18/scratch/users/kengmith/Gau-32306.inp" -scrdir="/mnt/gs18/scratch/users/kengmith/"
 Entering Link 1 = /opt/software/Gaussian/g16-AVX2-C.01/g16/l1.exe PID=     32316.
  
 Copyright (c) 1988-2019, Gaussian, Inc.  All Rights Reserved.
  
 This is part of the Gaussian(R) 16 program.  It is based on
 the Gaussian(R) 09 system (copyright 2009, Gaussian, Inc.),
 the Gaussian(R) 03 system (copyright 2003, Gaussian, Inc.),
 the Gaussian(R) 98 system (copyright 1998, Gaussian, Inc.),
 the Gaussian(R) 94 system (copyright 1995, Gaussian, Inc.),
 the Gaussian 92(TM) system (copyright 1992, Gaussian, Inc.),
 the Gaussian 90(TM) system (copyright 1990, Gaussian, Inc.),
 the Gaussian 88(TM) system (copyright 1988, Gaussian, Inc.),
 the Gaussian 86(TM) system (copyright 1986, Carnegie Mellon
 University), and the Gaussian 82(TM) system (copyright 1983,
 Carnegie Mellon University). Gaussian is a federally registered
 trademark of Gaussian, Inc.
  
 This software contains proprietary and confidential information,
 including trade secrets, belonging to Gaussian, Inc.
  
 This software is provided under written license and may be
 used, copied, transmitted, or stored only in accord with that
 written license.
  
 The following legend is applicable only to US Government
 contracts under FAR:
  
                    RESTRICTED RIGHTS LEGEND
  
 Use, reproduction and disclosure by the US Government is
 subject to restrictions as set forth in subparagraphs (a)
 and (c) of the Commercial Computer Software - Restricted
 Rights clause in FAR 52.227-19.
  
 Gaussian, Inc.
 340 Quinnipiac St., Bldg. 40, Wallingford CT 06492
  
  
 ---------------------------------------------------------------
 Warning -- This program may not be used in any manner that
 competes with the business of Gaussian, Inc. or will provide
 assistance to any competitor of Gaussian, Inc.  The licensee
 of this program is prohibited from giving any competitor of
 Gaussian, Inc. access to this program.  By using this program,
 the user acknowledges that Gaussian, Inc. is engaged in the
 business of creating and licensing software in the field of
 computational chemistry and represents and warrants to the
 licensee that it is not a competitor of Gaussian, Inc. and that
 it will not use this program in any manner prohibited above.
 ---------------------------------------------------------------
  

 Cite this work as:
 Gaussian 16, Revision C.01,
 M. J. Frisch, G. W. Trucks, H. B. Schlegel, G. E. Scuseria, 
 M. A. Robb, J. R. Cheeseman, G. Scalmani, V. Barone, 
 G. A. Petersson, H. Nakatsuji, X. Li, M. Caricato, A. V. Marenich, 
 J. Bloino, B. G. Janesko, R. Gomperts, B. Mennucci, H. P. Hratchian, 
 J. V. Ortiz, A. F. Izmaylov, J. L. Sonnenberg, D. Williams-Young, 
 F. Ding, F. Lipparini, F. Egidi, J. Goings, B. Peng, A. Petrone, 
 T. Henderson, D. Ranasinghe, V. G. Zakrzewski, J. Gao, N. Rega, 
 G. Zheng, W. Liang, M. Hada, M. Ehara, K. Toyota, R. Fukuda, 
 J. Hasegawa, M. Ishida, T. Nakajima, Y. Honda, O. Kitao, H. Nakai, 
 T. Vreven, K. Throssell, J. A. Montgomery, Jr., J. E. Peralta, 
 F. Ogliaro, M. J. Bearpark, J. J. Heyd, E. N. Brothers, K. N. Kudin, 
 V. N. Staroverov, T. A. Keith, R. Kobayashi, J. Normand, 
 K. Raghavachari, A. P. Rendell, J. C. Burant, S. S. Iyengar, 
 J. Tomasi, M. Cossi, J. M. Millam, M. Klene, C. Adamo, R. Cammi, 
 J. W. Ochterski, R. L. Martin, K. Morokuma, O. Farkas, 
 J. B. Foresman, and D. J. Fox, Gaussian, Inc., Wallingford CT, 2019.
 
 ******************************************
 Gaussian 16:  ES64L-G16RevC.01  3-Jul-2019
                31-May-2022 
 ******************************************
 %mem=8gb
 %nproc=4
 Will use up to    4 processors via shared memory.
 %chk=conf-448.chk
 ----------------------------------------------------------------------
 # B3LYP/6-31G* empiricaldispersion=gd3 guess=read geom=check nosymm in
 tegral(ultrafinegrid)
 ----------------------------------------------------------------------
 1/29=2,38=1,172=1/1;
 2/12=2,15=1,40=1/2;
 3/5=1,6=6,7=1,11=2,14=-4,25=1,30=1,74=-5,75=-5,116=-2,124=31/1,2,3;
 4/5=1/1;
 5/5=2,38=6/2;
 6/7=2,8=2,9=2,10=2,28=1/1;
 99/5=1,9=1/99;
 ------------------------------------------------------
 Candidate Structure: Conf:448 Charge calc in gas phase
 ------------------------------------------------------
 Structure from the checkpoint file:  "conf-448.chk"
 Charge =  1 Multiplicity = 1
 Redundant internal coordinates found in file.  (old form).
 N,0,-4.2092879343,2.6993469755,3.3890047176
 H,0,-4.5101004129,1.7343575005,3.1298706592
 H,0,-3.6334195433,2.6073859534,4.2810423236
 H,0,-5.0135623099,3.3161933463,3.5132729455
 C,0,-3.2708393918,3.122934528,2.2855999761
 H,0,-3.6963989619,3.9854607171,1.7669517352
 C,0,-3.1707235933,1.896141383,1.3455441712
 C,0,-1.8766364207,3.4705332399,2.8635464687
 H,0,-1.164947864,3.5772416165,2.0428951134
 H,0,-1.9336487615,4.4213259269,3.4030472991
 O,0,-3.6338733987,0.8217537008,1.7250381039
 C,0,-1.4343420145,2.4118622644,3.8748774156
 N,0,-0.3283023294,1.7162346084,3.5987833847
 H,0,-0.0593018118,0.985564773,4.2466575661
 H,0,0.0792593823,1.7309061995,2.6638625359
 O,0,-2.1232482718,2.2453626183,4.8983601897
 N,0,-2.5378510569,2.1123157901,0.1804310898
 H,0,-2.1024808144,3.0173445681,0.0451555838
 C,0,-1.8983078545,1.0338098248,-0.568444818
 H,0,-2.4560700537,0.1156469967,-0.3661417675
 C,0,-0.4542608654,0.8825888088,-0.0335948811
 C,0,-1.9554533509,1.3593322445,-2.0885900904
 H,0,-3.0168957612,1.4875818142,-2.331920579
 H,0,-1.4608333772,2.3201982889,-2.2731901866
 O,0,0.0219447862,1.7416452687,0.7443008075
 C,0,-1.3350349641,0.2785097105,-2.946394934
 C,0,-0.0683536418,0.4583162819,-3.5161757505
 H,0,0.4389495243,1.4127379423,-3.4122538714
 C,0,-1.9709366452,-0.9643230543,-3.0811254505
 H,0,-2.9542526908,-1.1177546671,-2.6405731818
 C,0,0.559929216,-0.5884889164,-4.1932374165
 H,0,1.5545933819,-0.4356883636,-4.5991748937
 C,0,-1.3438477994,-2.0127740457,-3.754345035
 H,0,-1.8409802868,-2.9745117464,-3.8375039626
 C,0,-0.0741810971,-1.8271863833,-4.3086869604
 H,0,0.416355277,-2.6455479496,-4.828229348
 N,0,0.2168388248,-0.1707531333,-0.4906232286
 H,0,-0.2868961586,-0.8978231294,-0.9987368779
 C,0,1.6395824783,-0.4520856327,-0.2570097143
 H,0,1.8429618469,-0.3424020657,0.8151637275
 C,0,2.4940131452,0.5733672186,-1.0657154092
 C,0,1.9795612436,-1.869175331,-0.7443676344
 H,0,3.0117635446,-2.0880037513,-0.4568337657
 H,0,1.9491630628,-1.8567816065,-1.8391257412
 O,0,2.9926582155,0.2844619868,-2.1432256664
 C,0,0.9965381642,-2.9353669696,-0.2771415141
 N,0,1.5154885064,-3.9761383686,0.4220937568
 H,0,0.9016573581,-4.7480075348,0.6473342589
 H,0,2.509320117,-4.1136700901,0.5284878742
 O,0,-0.2050939791,-2.8507830925,-0.5335168991
 N,0,2.5830755955,1.7941388371,-0.4690624543
 H,0,1.9390424101,1.9577331559,0.3000842369
 C,0,2.9774268679,2.9869007278,-1.2222669069
 H,0,3.4156432773,2.6334829882,-2.1586953536
 C,0,4.0575380722,3.705577513,-0.4131729826
 C,0,1.7624935328,3.885951795,-1.4732226843
 H,0,0.9596725404,3.2768040431,-1.8993088428
 H,0,1.4196674936,4.2793652123,-0.5076332495
 O,0,3.854685826,4.6748452582,0.285424103
 C,0,2.0377038439,5.0445004197,-2.4341900242
 H,0,2.8490351799,5.6684583515,-2.0419474698
 H,0,2.381210865,4.6344751145,-3.3916820608
 C,0,0.7690179229,5.9080253486,-2.682238487
 H,0,-0.0726269217,5.5099757546,-2.1079368459
 H,0,0.9296221253,6.9375031405,-2.3473944927
 N,0,0.3290763868,5.9779766925,-4.0712322309
 H,0,0.9397701403,6.5132925304,-4.6772825027
 N,0,-0.3646257644,5.0103393266,-6.0510939537
 H,0,-0.9073608672,4.2874151288,-6.5056115248
 H,0,-0.6343600635,5.9385622146,-6.35710611
 N,0,-0.4912545187,3.7983771038,-3.9837195238
 H,0,-0.9742947028,3.1117144902,-4.5645762194
 C,0,-0.2086698396,4.8540598393,-4.6735995098
 O,0,5.2572571842,3.103335676,-0.5301423914
 H,0,5.8786941856,3.5875191528,0.0468678148
 Recover connectivity data from disk.
                           ----------------------------
                           !    Current Parameters    !
                           ! (Angstroms and Degrees)  !
 --------------------------                            --------------------------
 ! Name  Definition              Value                                          !
 --------------------------------------------------------------------------------
 ! R1    R(1,2)                  1.0435                                         !
 ! R2    R(1,3)                  1.0657                                         !
 ! R3    R(1,4)                  1.0212                                         !
 ! R4    R(1,5)                  1.5092                                         !
 ! R5    R(5,6)                  1.0927                                         !
 ! R6    R(5,7)                  1.5488                                         !
 ! R7    R(5,8)                  1.5488                                         !
 ! R8    R(7,11)                 1.23                                           !
 ! R9    R(7,17)                 1.3434                                         !
 ! R10   R(8,9)                  1.0915                                         !
 ! R11   R(8,10)                 1.0947                                         !
 ! R12   R(8,12)                 1.5294                                         !
 ! R13   R(12,13)                1.3355                                         !
 ! R14   R(12,16)                1.2449                                         !
 ! R15   R(13,14)                1.0129                                         !
 ! R16   R(13,15)                1.02                                           !
 ! R17   R(17,18)                1.0134                                         !
 ! R18   R(17,19)                1.4605                                         !
 ! R19   R(19,20)                1.0932                                         !
 ! R20   R(19,21)                1.5473                                         !
 ! R21   R(19,22)                1.5557                                         !
 ! R22   R(21,25)                1.2529                                         !
 ! R23   R(21,37)                1.33                                           !
 ! R24   R(22,23)                1.0965                                         !
 ! R25   R(22,24)                1.0964                                         !
 ! R26   R(22,26)                1.5129                                         !
 ! R27   R(26,27)                1.4005                                         !
 ! R28   R(26,29)                1.4026                                         !
 ! R29   R(27,28)                1.0859                                         !
 ! R30   R(27,31)                1.396                                          !
 ! R31   R(29,30)                1.0884                                         !
 ! R32   R(29,33)                1.3949                                         !
 ! R33   R(31,32)                1.0851                                         !
 ! R34   R(31,35)                1.3964                                         !
 ! R35   R(33,34)                1.0858                                         !
 ! R36   R(33,35)                1.3978                                         !
 ! R37   R(35,36)                1.0864                                         !
 ! R38   R(37,38)                1.0201                                         !
 ! R39   R(37,39)                1.469                                          !
 ! R40   R(39,40)                1.0968                                         !
 ! R41   R(39,41)                1.5606                                         !
 ! R42   R(39,42)                1.5366                                         !
 ! R43   R(41,45)                1.2219                                         !
 ! R44   R(41,51)                1.3617                                         !
 ! R45   R(42,43)                1.0936                                         !
 ! R46   R(42,44)                1.0953                                         !
 ! R47   R(42,46)                1.5236                                         !
 ! R48   R(46,47)                1.357                                          !
 ! R49   R(46,50)                1.2316                                         !
 ! R50   R(47,48)                1.0116                                         !
 ! R51   R(47,49)                1.0089                                         !
 ! R52   R(51,52)                1.0164                                         !
 ! R53   R(51,53)                1.4648                                         !
 ! R54   R(53,54)                1.0926                                         !
 ! R55   R(53,55)                1.529                                          !
 ! R56   R(53,56)                1.5321                                         !
 ! R57   R(55,59)                1.2119                                         !
 ! R58   R(55,74)                1.3475                                         !
 ! R59   R(56,57)                1.0941                                         !
 ! R60   R(56,58)                1.0976                                         !
 ! R61   R(56,60)                1.5302                                         !
 ! R62   R(60,61)                1.0961                                         !
 ! R63   R(60,62)                1.0968                                         !
 ! R64   R(60,63)                1.5546                                         !
 ! R65   R(63,64)                1.0939                                         !
 ! R66   R(63,65)                1.0944                                         !
 ! R67   R(63,66)                1.4587                                         !
 ! R68   R(66,67)                1.0133                                         !
 ! R69   R(66,73)                1.3839                                         !
 ! R70   R(68,69)                1.0118                                         !
 ! R71   R(68,70)                1.0139                                         !
 ! R72   R(68,73)                1.3951                                         !
 ! R73   R(71,72)                1.0209                                         !
 ! R74   R(71,73)                1.2924                                         !
 ! R75   R(74,75)                0.9765                                         !
 ! A1    A(2,1,3)              106.4891                                         !
 ! A2    A(2,1,4)              111.2103                                         !
 ! A3    A(2,1,5)              104.9073                                         !
 ! A4    A(3,1,4)              112.0762                                         !
 ! A5    A(3,1,5)              107.4684                                         !
 ! A6    A(4,1,5)              114.1533                                         !
 ! A7    A(1,5,6)              109.0503                                         !
 ! A8    A(1,5,7)              105.1675                                         !
 ! A9    A(1,5,8)              110.4833                                         !
 ! A10   A(6,5,7)              111.2426                                         !
 ! A11   A(6,5,8)              110.5208                                         !
 ! A12   A(7,5,8)              110.248                                          !
 ! A13   A(5,7,11)             118.7043                                         !
 ! A14   A(5,7,17)             115.4294                                         !
 ! A15   A(11,7,17)            125.8413                                         !
 ! A16   A(5,8,9)              109.1678                                         !
 ! A17   A(5,8,10)             109.3881                                         !
 ! A18   A(5,8,12)             110.593                                          !
 ! A19   A(9,8,10)             108.6383                                         !
 ! A20   A(9,8,12)             112.1031                                         !
 ! A21   A(10,8,12)            106.8811                                         !
 ! A22   A(8,12,13)            117.604                                          !
 ! A23   A(8,12,16)            118.4356                                         !
 ! A24   A(13,12,16)           123.9598                                         !
 ! A25   A(12,13,14)           117.6108                                         !
 ! A26   A(12,13,15)           120.8594                                         !
 ! A27   A(14,13,15)           119.3753                                         !
 ! A28   A(7,17,18)            117.5084                                         !
 ! A29   A(7,17,19)            122.1522                                         !
 ! A30   A(18,17,19)           113.7613                                         !
 ! A31   A(17,19,20)           107.5727                                         !
 ! A32   A(17,19,21)           107.674                                          !
 ! A33   A(17,19,22)           109.2958                                         !
 ! A34   A(20,19,21)           109.2756                                         !
 ! A35   A(20,19,22)           109.7454                                         !
 ! A36   A(21,19,22)           113.1104                                         !
 ! A37   A(19,21,25)           120.1523                                         !
 ! A38   A(19,21,37)           115.4386                                         !
 ! A39   A(25,21,37)           124.3742                                         !
 ! A40   A(19,22,23)           106.0743                                         !
 ! A41   A(19,22,24)           109.3508                                         !
 ! A42   A(19,22,26)           112.9229                                         !
 ! A43   A(23,22,24)           107.2686                                         !
 ! A44   A(23,22,26)           110.7752                                         !
 ! A45   A(24,22,26)           110.2206                                         !
 ! A46   A(22,26,27)           120.6534                                         !
 ! A47   A(22,26,29)           120.1046                                         !
 ! A48   A(27,26,29)           118.9957                                         !
 ! A49   A(26,27,28)           119.7658                                         !
 ! A50   A(26,27,31)           120.5357                                         !
 ! A51   A(28,27,31)           119.6851                                         !
 ! A52   A(26,29,30)           119.7136                                         !
 ! A53   A(26,29,33)           120.5692                                         !
 ! A54   A(30,29,33)           119.7074                                         !
 ! A55   A(27,31,32)           119.2335                                         !
 ! A56   A(27,31,35)           120.0595                                         !
 ! A57   A(32,31,35)           120.6804                                         !
 ! A58   A(29,33,34)           119.7939                                         !
 ! A59   A(29,33,35)           119.9978                                         !
 ! A60   A(34,33,35)           120.2057                                         !
 ! A61   A(31,35,33)           119.8341                                         !
 ! A62   A(31,35,36)           120.1803                                         !
 ! A63   A(33,35,36)           119.9856                                         !
 ! A64   A(21,37,38)           119.1111                                         !
 ! A65   A(21,37,39)           125.8561                                         !
 ! A66   A(38,37,39)           114.8968                                         !
 ! A67   A(37,39,40)           108.4153                                         !
 ! A68   A(37,39,41)           108.7842                                         !
 ! A69   A(37,39,42)           109.905                                          !
 ! A70   A(40,39,41)           109.8358                                         !
 ! A71   A(40,39,42)           111.1763                                         !
 ! A72   A(41,39,42)           108.6916                                         !
 ! A73   A(39,41,45)           121.6684                                         !
 ! A74   A(39,41,51)           113.4423                                         !
 ! A75   A(45,41,51)           124.8654                                         !
 ! A76   A(39,42,43)           108.0571                                         !
 ! A77   A(39,42,44)           107.4841                                         !
 ! A78   A(39,42,46)           113.9119                                         !
 ! A79   A(43,42,44)           106.9335                                         !
 ! A80   A(43,42,46)           112.8494                                         !
 ! A81   A(44,42,46)           107.2493                                         !
 ! A82   A(42,46,47)           116.6143                                         !
 ! A83   A(42,46,50)           121.1717                                         !
 ! A84   A(47,46,50)           122.2126                                         !
 ! A85   A(46,47,48)           117.8977                                         !
 ! A86   A(46,47,49)           122.3839                                         !
 ! A87   A(48,47,49)           118.0492                                         !
 ! A88   A(41,51,52)           115.7484                                         !
 ! A89   A(41,51,53)           121.4886                                         !
 ! A90   A(52,51,53)           115.3814                                         !
 ! A91   A(51,53,54)           106.5763                                         !
 ! A92   A(51,53,55)           107.5077                                         !
 ! A93   A(51,53,56)           110.4004                                         !
 ! A94   A(54,53,55)           108.7982                                         !
 ! A95   A(54,53,56)           111.5593                                         !
 ! A96   A(55,53,56)           111.7799                                         !
 ! A97   A(53,55,59)           124.2452                                         !
 ! A98   A(53,55,74)           111.8976                                         !
 ! A99   A(59,55,74)           123.8164                                         !
 ! A100  A(53,56,57)           108.5988                                         !
 ! A101  A(53,56,58)           108.2958                                         !
 ! A102  A(53,56,60)           113.8622                                         !
 ! A103  A(57,56,58)           108.2383                                         !
 ! A104  A(57,56,60)           107.9948                                         !
 ! A105  A(58,56,60)           109.7115                                         !
 ! A106  A(56,60,61)           109.84                                           !
 ! A107  A(56,60,62)           108.7559                                         !
 ! A108  A(56,60,63)           111.9619                                         !
 ! A109  A(61,60,62)           107.0612                                         !
 ! A110  A(61,60,63)           110.1796                                         !
 ! A111  A(62,60,63)           108.9026                                         !
 ! A112  A(60,63,64)           109.9989                                         !
 ! A113  A(60,63,65)           110.7279                                         !
 ! A114  A(60,63,66)           115.1321                                         !
 ! A115  A(64,63,65)           107.1317                                         !
 ! A116  A(64,63,66)           106.5779                                         !
 ! A117  A(65,63,66)           106.8874                                         !
 ! A118  A(63,66,67)           114.3986                                         !
 ! A119  A(63,66,73)           119.5194                                         !
 ! A120  A(67,66,73)           113.7588                                         !
 ! A121  A(69,68,70)           112.0754                                         !
 ! A122  A(69,68,73)           115.0542                                         !
 ! A123  A(70,68,73)           115.4872                                         !
 ! A124  A(72,71,73)           110.4359                                         !
 ! A125  A(66,73,68)           112.4726                                         !
 ! A126  A(66,73,71)           121.0647                                         !
 ! A127  A(68,73,71)           126.4513                                         !
 ! A128  A(55,74,75)           107.0799                                         !
 ! D1    D(2,1,5,6)            117.0826                                         !
 ! D2    D(2,1,5,7)             -2.3076                                         !
 ! D3    D(2,1,5,8)           -121.2573                                         !
 ! D4    D(3,1,5,6)           -129.8574                                         !
 ! D5    D(3,1,5,7)            110.7524                                         !
 ! D6    D(3,1,5,8)             -8.1973                                         !
 ! D7    D(4,1,5,6)             -4.9024                                         !
 ! D8    D(4,1,5,7)           -124.2926                                         !
 ! D9    D(4,1,5,8)            116.7578                                         !
 ! D10   D(1,5,7,11)           -11.1529                                         !
 ! D11   D(1,5,7,17)           170.5601                                         !
 ! D12   D(6,5,7,11)          -129.0711                                         !
 ! D13   D(6,5,7,17)            52.6418                                         !
 ! D14   D(8,5,7,11)           107.9541                                         !
 ! D15   D(8,5,7,17)           -70.3329                                         !
 ! D16   D(1,5,8,9)            168.7057                                         !
 ! D17   D(1,5,8,10)           -72.5421                                         !
 ! D18   D(1,5,8,12)            44.9151                                         !
 ! D19   D(6,5,8,9)            -70.5068                                         !
 ! D20   D(6,5,8,10)            48.2453                                         !
 ! D21   D(6,5,8,12)           165.7026                                         !
 ! D22   D(7,5,8,9)             52.889                                          !
 ! D23   D(7,5,8,10)           171.6412                                         !
 ! D24   D(7,5,8,12)           -70.9016                                         !
 ! D25   D(5,7,17,18)            5.7753                                         !
 ! D26   D(5,7,17,19)          155.5333                                         !
 ! D27   D(11,7,17,18)        -172.3713                                         !
 ! D28   D(11,7,17,19)         -22.6132                                         !
 ! D29   D(5,8,12,13)          117.928                                          !
 ! D30   D(5,8,12,16)          -61.8101                                         !
 ! D31   D(9,8,12,13)           -4.1561                                         !
 ! D32   D(9,8,12,16)          176.1058                                         !
 ! D33   D(10,8,12,13)        -123.0846                                         !
 ! D34   D(10,8,12,16)          57.1772                                         !
 ! D35   D(8,12,13,14)        -177.1994                                         !
 ! D36   D(8,12,13,15)         -13.9858                                         !
 ! D37   D(16,12,13,14)          2.5229                                         !
 ! D38   D(16,12,13,15)        165.7366                                         !
 ! D39   D(7,17,19,20)          30.3267                                         !
 ! D40   D(7,17,19,21)         -87.3407                                         !
 ! D41   D(7,17,19,22)         149.4276                                         !
 ! D42   D(18,17,19,20)       -178.8881                                         !
 ! D43   D(18,17,19,21)         63.4445                                         !
 ! D44   D(18,17,19,22)        -59.7872                                         !
 ! D45   D(17,19,21,25)        -10.2522                                         !
 ! D46   D(17,19,21,37)        171.8029                                         !
 ! D47   D(20,19,21,25)       -126.8116                                         !
 ! D48   D(20,19,21,37)         55.2435                                         !
 ! D49   D(22,19,21,25)        110.6153                                         !
 ! D50   D(22,19,21,37)        -67.3295                                         !
 ! D51   D(17,19,22,23)        -57.4487                                         !
 ! D52   D(17,19,22,24)         57.9314                                         !
 ! D53   D(17,19,22,26)       -178.9581                                         !
 ! D54   D(20,19,22,23)         60.2965                                         !
 ! D55   D(20,19,22,24)        175.6767                                         !
 ! D56   D(20,19,22,26)        -61.2129                                         !
 ! D57   D(21,19,22,23)       -177.3923                                         !
 ! D58   D(21,19,22,24)        -62.0122                                         !
 ! D59   D(21,19,22,26)         61.0983                                         !
 ! D60   D(19,21,37,38)        -11.7797                                         !
 ! D61   D(19,21,37,39)        172.6883                                         !
 ! D62   D(25,21,37,38)        170.3734                                         !
 ! D63   D(25,21,37,39)         -5.1586                                         !
 ! D64   D(19,22,26,27)       -104.0691                                         !
 ! D65   D(19,22,26,29)         70.1728                                         !
 ! D66   D(23,22,26,27)        137.1175                                         !
 ! D67   D(23,22,26,29)        -48.6407                                         !
 ! D68   D(24,22,26,27)         18.5571                                         !
 ! D69   D(24,22,26,29)       -167.201                                          !
 ! D70   D(22,26,27,28)         -5.18                                           !
 ! D71   D(22,26,27,31)        173.4839                                         !
 ! D72   D(29,26,27,28)       -179.4849                                         !
 ! D73   D(29,26,27,31)         -0.821                                          !
 ! D74   D(22,26,29,30)          5.4936                                         !
 ! D75   D(22,26,29,33)       -173.3591                                         !
 ! D76   D(27,26,29,30)        179.8305                                         !
 ! D77   D(27,26,29,33)          0.9778                                         !
 ! D78   D(26,27,31,32)       -178.0632                                         !
 ! D79   D(26,27,31,35)          0.0742                                         !
 ! D80   D(28,27,31,32)          0.6018                                         !
 ! D81   D(28,27,31,35)        178.7392                                         !
 ! D82   D(26,29,33,34)        179.0255                                         !
 ! D83   D(26,29,33,35)         -0.387                                          !
 ! D84   D(30,29,33,34)          0.1727                                         !
 ! D85   D(30,29,33,35)       -179.2398                                         !
 ! D86   D(27,31,35,33)          0.5285                                         !
 ! D87   D(27,31,35,36)       -179.5074                                         !
 ! D88   D(32,31,35,33)        178.6386                                         !
 ! D89   D(32,31,35,36)         -1.3972                                         !
 ! D90   D(29,33,35,31)         -0.3727                                         !
 ! D91   D(29,33,35,36)        179.6631                                         !
 ! D92   D(34,33,35,31)       -179.7828                                         !
 ! D93   D(34,33,35,36)          0.253                                          !
 ! D94   D(21,37,39,40)         48.7919                                         !
 ! D95   D(21,37,39,41)        -70.6147                                         !
 ! D96   D(21,37,39,42)        170.4929                                         !
 ! D97   D(38,37,39,40)       -126.9048                                         !
 ! D98   D(38,37,39,41)        113.6885                                         !
 ! D99   D(38,37,39,42)         -5.2039                                         !
 ! D100  D(37,39,41,45)        -99.3726                                         !
 ! D101  D(37,39,41,51)         78.9307                                         !
 ! D102  D(40,39,41,45)        142.1109                                         !
 ! D103  D(40,39,41,51)        -39.5858                                         !
 ! D104  D(42,39,41,45)         20.2778                                         !
 ! D105  D(42,39,41,51)       -161.4189                                         !
 ! D106  D(37,39,42,43)       -173.8065                                         !
 ! D107  D(37,39,42,44)         71.1135                                         !
 ! D108  D(37,39,42,46)        -47.5553                                         !
 ! D109  D(40,39,42,43)        -53.7682                                         !
 ! D110  D(40,39,42,44)       -168.8482                                         !
 ! D111  D(40,39,42,46)         72.483                                          !
 ! D112  D(41,39,42,43)         67.2442                                         !
 ! D113  D(41,39,42,44)        -47.8358                                         !
 ! D114  D(41,39,42,46)       -166.5046                                         !
 ! D115  D(39,41,51,52)        -12.7198                                         !
 ! D116  D(39,41,51,53)       -161.3141                                         !
 ! D117  D(45,41,51,52)        165.5202                                         !
 ! D118  D(45,41,51,53)         16.9259                                         !
 ! D119  D(39,42,46,47)       -123.1477                                         !
 ! D120  D(39,42,46,50)         57.2638                                         !
 ! D121  D(43,42,46,47)          0.5473                                         !
 ! D122  D(43,42,46,50)       -179.0412                                         !
 ! D123  D(44,42,46,47)        118.0496                                         !
 ! D124  D(44,42,46,50)        -61.539                                          !
 ! D125  D(42,46,47,48)       -172.9263                                         !
 ! D126  D(42,46,47,49)         -7.9492                                         !
 ! D127  D(50,46,47,48)          6.6576                                         !
 ! D128  D(50,46,47,49)        171.6347                                         !
 ! D129  D(41,51,53,54)        -15.3111                                         !
 ! D130  D(41,51,53,55)       -131.8264                                         !
 ! D131  D(41,51,53,56)        106.0048                                         !
 ! D132  D(52,51,53,54)       -164.0124                                         !
 ! D133  D(52,51,53,55)         79.4724                                         !
 ! D134  D(52,51,53,56)        -42.6964                                         !
 ! D135  D(51,53,55,59)       -100.2666                                         !
 ! D136  D(51,53,55,74)         77.4815                                         !
 ! D137  D(54,53,55,59)        144.6851                                         !
 ! D138  D(54,53,55,74)        -37.5667                                         !
 ! D139  D(56,53,55,59)         21.042                                          !
 ! D140  D(56,53,55,74)       -161.2099                                         !
 ! D141  D(51,53,56,57)        -50.7687                                         !
 ! D142  D(51,53,56,58)         66.5578                                         !
 ! D143  D(51,53,56,60)       -171.1185                                         !
 ! D144  D(54,53,56,57)         67.54                                           !
 ! D145  D(54,53,56,58)       -175.1335                                         !
 ! D146  D(54,53,56,60)        -52.8097                                         !
 ! D147  D(55,53,56,57)       -170.3882                                         !
 ! D148  D(55,53,56,58)        -53.0617                                         !
 ! D149  D(55,53,56,60)         69.2621                                         !
 ! D150  D(53,55,74,75)       -177.0731                                         !
 ! D151  D(59,55,74,75)          0.6864                                         !
 ! D152  D(53,56,60,61)        -58.5497                                         !
 ! D153  D(53,56,60,62)         58.3172                                         !
 ! D154  D(53,56,60,63)        178.7037                                         !
 ! D155  D(57,56,60,61)       -179.2383                                         !
 ! D156  D(57,56,60,62)        -62.3714                                         !
 ! D157  D(57,56,60,63)         58.0151                                         !
 ! D158  D(58,56,60,61)         62.9917                                         !
 ! D159  D(58,56,60,62)        179.8585                                         !
 ! D160  D(58,56,60,63)        -59.7549                                         !
 ! D161  D(56,60,63,64)          0.2932                                         !
 ! D162  D(56,60,63,65)        118.5155                                         !
 ! D163  D(56,60,63,66)       -120.112                                          !
 ! D164  D(61,60,63,64)       -122.2603                                         !
 ! D165  D(61,60,63,65)         -4.0381                                         !
 ! D166  D(61,60,63,66)        117.3345                                         !
 ! D167  D(62,60,63,64)        120.5943                                         !
 ! D168  D(62,60,63,65)       -121.1834                                         !
 ! D169  D(62,60,63,66)          0.1891                                         !
 ! D170  D(60,63,66,67)        -70.2654                                         !
 ! D171  D(60,63,66,73)         69.6615                                         !
 ! D172  D(64,63,66,67)        167.472                                          !
 ! D173  D(64,63,66,73)        -52.6012                                         !
 ! D174  D(65,63,66,67)         53.1685                                         !
 ! D175  D(65,63,66,73)       -166.9046                                         !
 ! D176  D(63,66,73,68)       -169.6312                                         !
 ! D177  D(63,66,73,71)          9.2135                                         !
 ! D178  D(67,66,73,68)        -29.4649                                         !
 ! D179  D(67,66,73,71)        149.3799                                         !
 ! D180  D(69,68,73,66)       -169.2187                                         !
 ! D181  D(69,68,73,71)         12.0115                                         !
 ! D182  D(70,68,73,66)        -36.1852                                         !
 ! D183  D(70,68,73,71)        145.0451                                         !
 ! D184  D(72,71,73,66)        173.5431                                         !
 ! D185  D(72,71,73,68)         -7.7841                                         !
 --------------------------------------------------------------------------------
 Symmetry turned off by external request.
 Stoichiometry    C23H36N9O7(1+)
 Framework group  C1[X(C23H36N9O7)]
 Deg. of freedom   219
 Full point group                 C1      NOp   1
                          Input orientation:                          
 ---------------------------------------------------------------------
 Center     Atomic      Atomic             Coordinates (Angstroms)
 Number     Number       Type             X           Y           Z
 ---------------------------------------------------------------------
      1          7           0       -4.209288    2.699347    3.389005
      2          1           0       -4.510100    1.734358    3.129871
      3          1           0       -3.633420    2.607386    4.281042
      4          1           0       -5.013562    3.316193    3.513273
      5          6           0       -3.270839    3.122935    2.285600
      6          1           0       -3.696399    3.985461    1.766952
      7          6           0       -3.170724    1.896141    1.345544
      8          6           0       -1.876636    3.470533    2.863546
      9          1           0       -1.164948    3.577242    2.042895
     10          1           0       -1.933649    4.421326    3.403047
     11          8           0       -3.633873    0.821754    1.725038
     12          6           0       -1.434342    2.411862    3.874877
     13          7           0       -0.328302    1.716235    3.598783
     14          1           0       -0.059302    0.985565    4.246658
     15          1           0        0.079259    1.730906    2.663863
     16          8           0       -2.123248    2.245363    4.898360
     17          7           0       -2.537851    2.112316    0.180431
     18          1           0       -2.102481    3.017345    0.045156
     19          6           0       -1.898308    1.033810   -0.568445
     20          1           0       -2.456070    0.115647   -0.366142
     21          6           0       -0.454261    0.882589   -0.033595
     22          6           0       -1.955453    1.359332   -2.088590
     23          1           0       -3.016896    1.487582   -2.331921
     24          1           0       -1.460833    2.320198   -2.273190
     25          8           0        0.021945    1.741645    0.744301
     26          6           0       -1.335035    0.278510   -2.946395
     27          6           0       -0.068354    0.458316   -3.516176
     28          1           0        0.438950    1.412738   -3.412254
     29          6           0       -1.970937   -0.964323   -3.081125
     30          1           0       -2.954253   -1.117755   -2.640573
     31          6           0        0.559929   -0.588489   -4.193237
     32          1           0        1.554593   -0.435688   -4.599175
     33          6           0       -1.343848   -2.012774   -3.754345
     34          1           0       -1.840980   -2.974512   -3.837504
     35          6           0       -0.074181   -1.827186   -4.308687
     36          1           0        0.416355   -2.645548   -4.828229
     37          7           0        0.216839   -0.170753   -0.490623
     38          1           0       -0.286896   -0.897823   -0.998737
     39          6           0        1.639582   -0.452086   -0.257010
     40          1           0        1.842962   -0.342402    0.815164
     41          6           0        2.494013    0.573367   -1.065715
     42          6           0        1.979561   -1.869175   -0.744368
     43          1           0        3.011764   -2.088004   -0.456834
     44          1           0        1.949163   -1.856782   -1.839126
     45          8           0        2.992658    0.284462   -2.143226
     46          6           0        0.996538   -2.935367   -0.277142
     47          7           0        1.515489   -3.976138    0.422094
     48          1           0        0.901657   -4.748008    0.647334
     49          1           0        2.509320   -4.113670    0.528488
     50          8           0       -0.205094   -2.850783   -0.533517
     51          7           0        2.583076    1.794139   -0.469062
     52          1           0        1.939042    1.957733    0.300084
     53          6           0        2.977427    2.986901   -1.222267
     54          1           0        3.415643    2.633483   -2.158695
     55          6           0        4.057538    3.705578   -0.413173
     56          6           0        1.762494    3.885952   -1.473223
     57          1           0        0.959673    3.276804   -1.899309
     58          1           0        1.419667    4.279365   -0.507633
     59          8           0        3.854686    4.674845    0.285424
     60          6           0        2.037704    5.044500   -2.434190
     61          1           0        2.849035    5.668458   -2.041947
     62          1           0        2.381211    4.634475   -3.391682
     63          6           0        0.769018    5.908025   -2.682238
     64          1           0       -0.072627    5.509976   -2.107937
     65          1           0        0.929622    6.937503   -2.347394
     66          7           0        0.329076    5.977977   -4.071232
     67          1           0        0.939770    6.513293   -4.677283
     68          7           0       -0.364626    5.010339   -6.051094
     69          1           0       -0.907361    4.287415   -6.505612
     70          1           0       -0.634360    5.938562   -6.357106
     71          7           0       -0.491255    3.798377   -3.983720
     72          1           0       -0.974295    3.111714   -4.564576
     73          6           0       -0.208670    4.854060   -4.673600
     74          8           0        5.257257    3.103336   -0.530142
     75          1           0        5.878694    3.587519    0.046868
 ---------------------------------------------------------------------
 Rotational constants (GHZ):           0.0880555           0.0758596           0.0647311
 Standard basis: 6-31G(d) (6D, 7F)
   657 basis functions,  1236 primitive gaussians,   657 cartesian basis functions
   146 alpha electrons      146 beta electrons
       nuclear repulsion energy      4913.7776768168 Hartrees.
 NAtoms=   75 NActive=   75 NUniq=   75 SFac= 1.00D+00 NAtFMM=   60 NAOKFM=T Big=T
 Integral buffers will be    131072 words long.
 Raffenetti 2 integral format.
 Two-electron integral symmetry is turned off.
 Nuclear repulsion after empirical dispersion term =     4913.6712697003 Hartrees.
 One-electron integrals computed using PRISM.
 NBasis=   657 RedAO= T EigKep=  4.54D-04  NBF=   657
 NBsUse=   657 1.00D-06 EigRej= -1.00D+00 NBFU=   657
 Initial guess from the checkpoint file:  "conf-448.chk"
 B after Tr=     0.000000    0.000000    0.000000
         Rot=    1.000000    0.000000    0.000000    0.000000 Ang=   0.00 deg.
 Requested convergence on RMS density matrix=1.00D-08 within 128 cycles.
 Requested convergence on MAX density matrix=1.00D-06.
 Requested convergence on             energy=1.00D-06.
 No special actions if energy rises.
 SCF Done:  E(RB3LYP) =  -1917.46081280     A.U. after    1 cycles
            NFock=  1  Conv=0.69D-08     -V/T= 2.0093

 **********************************************************************

            Population analysis using the SCF Density.

 **********************************************************************

 Alpha  occ. eigenvalues --  -19.26797 -19.26795 -19.25173 -19.24107 -19.21307
 Alpha  occ. eigenvalues --  -19.20405 -19.20213 -14.57468 -14.49729 -14.47883
 Alpha  occ. eigenvalues --  -14.46838 -14.44802 -14.43999 -14.41969 -14.41744
 Alpha  occ. eigenvalues --  -14.36024 -10.43627 -10.42628 -10.40964 -10.40486
 Alpha  occ. eigenvalues --  -10.39191 -10.38243 -10.37333 -10.35553 -10.35055
 Alpha  occ. eigenvalues --  -10.34593 -10.34065 -10.30880 -10.28841 -10.28764
 Alpha  occ. eigenvalues --  -10.28662 -10.27452 -10.26395 -10.26230 -10.26021
 Alpha  occ. eigenvalues --  -10.25888 -10.25802 -10.25554 -10.25100  -1.19120
 Alpha  occ. eigenvalues --   -1.17746  -1.16822  -1.15265  -1.12283  -1.12028
 Alpha  occ. eigenvalues --   -1.11964  -1.08830  -1.06568  -1.04838  -1.03790
 Alpha  occ. eigenvalues --   -1.03215  -1.00878  -0.99428  -0.95826  -0.93916
 Alpha  occ. eigenvalues --   -0.92979  -0.91329  -0.89634  -0.87462  -0.86460
 Alpha  occ. eigenvalues --   -0.83495  -0.81566  -0.81510  -0.81060  -0.77405
 Alpha  occ. eigenvalues --   -0.74968  -0.74587  -0.73460  -0.73113  -0.72512
 Alpha  occ. eigenvalues --   -0.70862  -0.69517  -0.69276  -0.68172  -0.67709
 Alpha  occ. eigenvalues --   -0.66523  -0.66288  -0.65790  -0.65707  -0.65577
 Alpha  occ. eigenvalues --   -0.65168  -0.63172  -0.62819  -0.61398  -0.61008
 Alpha  occ. eigenvalues --   -0.60881  -0.59999  -0.59434  -0.59209  -0.59082
 Alpha  occ. eigenvalues --   -0.58338  -0.57745  -0.57384  -0.56345  -0.55213
 Alpha  occ. eigenvalues --   -0.55184  -0.54582  -0.54193  -0.53903  -0.53458
 Alpha  occ. eigenvalues --   -0.53239  -0.52697  -0.52368  -0.52158  -0.51950
 Alpha  occ. eigenvalues --   -0.51525  -0.50955  -0.50747  -0.50065  -0.49828
 Alpha  occ. eigenvalues --   -0.49596  -0.49261  -0.48875  -0.48541  -0.48193
 Alpha  occ. eigenvalues --   -0.47988  -0.47753  -0.46847  -0.46485  -0.45899
 Alpha  occ. eigenvalues --   -0.44995  -0.44748  -0.44574  -0.43217  -0.42871
 Alpha  occ. eigenvalues --   -0.41671  -0.41486  -0.41135  -0.40926  -0.40439
 Alpha  occ. eigenvalues --   -0.40056  -0.39569  -0.39083  -0.38943  -0.38294
 Alpha  occ. eigenvalues --   -0.37918  -0.35818  -0.35627  -0.34513  -0.34175
 Alpha  occ. eigenvalues --   -0.33629  -0.32881  -0.32499  -0.31989  -0.31702
 Alpha  occ. eigenvalues --   -0.29879
 Alpha virt. eigenvalues --   -0.12692  -0.11484  -0.10165  -0.08524  -0.07803
 Alpha virt. eigenvalues --   -0.07727  -0.07519  -0.06165  -0.05763  -0.05050
 Alpha virt. eigenvalues --   -0.03154  -0.02208  -0.01200  -0.00915  -0.00450
 Alpha virt. eigenvalues --   -0.00109   0.00928   0.01352   0.01381   0.01594
 Alpha virt. eigenvalues --    0.02116   0.02897   0.03376   0.03545   0.03635
 Alpha virt. eigenvalues --    0.04128   0.04485   0.04697   0.05593   0.05851
 Alpha virt. eigenvalues --    0.06104   0.06408   0.06673   0.06920   0.07793
 Alpha virt. eigenvalues --    0.08078   0.08505   0.08735   0.08836   0.09181
 Alpha virt. eigenvalues --    0.09509   0.09755   0.10086   0.10198   0.10761
 Alpha virt. eigenvalues --    0.11106   0.11699   0.12189   0.12649   0.12659
 Alpha virt. eigenvalues --    0.13387   0.13926   0.14930   0.15710   0.15875
 Alpha virt. eigenvalues --    0.16456   0.17266   0.17481   0.18092   0.18951
 Alpha virt. eigenvalues --    0.19198   0.19973   0.20413   0.20655   0.21153
 Alpha virt. eigenvalues --    0.22149   0.22886   0.23629   0.24026   0.24617
 Alpha virt. eigenvalues --    0.25281   0.25641   0.26631   0.27551   0.28088
 Alpha virt. eigenvalues --    0.28855   0.29305   0.29653   0.30409   0.30632
 Alpha virt. eigenvalues --    0.32642   0.33135   0.35515   0.36797   0.37629
 Alpha virt. eigenvalues --    0.38735   0.39400   0.39684   0.40974   0.41549
 Alpha virt. eigenvalues --    0.43209   0.43296   0.43536   0.45033   0.45236
 Alpha virt. eigenvalues --    0.45512   0.46046   0.46798   0.47144   0.47241
 Alpha virt. eigenvalues --    0.47800   0.48030   0.48508   0.48880   0.49292
 Alpha virt. eigenvalues --    0.49694   0.49804   0.50140   0.50566   0.51170
 Alpha virt. eigenvalues --    0.51463   0.51899   0.51998   0.52642   0.52996
 Alpha virt. eigenvalues --    0.53491   0.53587   0.53841   0.54064   0.54345
 Alpha virt. eigenvalues --    0.54839   0.54921   0.55678   0.55870   0.56274
 Alpha virt. eigenvalues --    0.56521   0.57095   0.57319   0.57586   0.58542
 Alpha virt. eigenvalues --    0.58852   0.59165   0.59225   0.59665   0.60308
 Alpha virt. eigenvalues --    0.60485   0.60674   0.61448   0.61767   0.62198
 Alpha virt. eigenvalues --    0.62531   0.63013   0.63956   0.64546   0.65337
 Alpha virt. eigenvalues --    0.65798   0.66209   0.66536   0.66773   0.67103
 Alpha virt. eigenvalues --    0.67776   0.68151   0.68977   0.69861   0.70112
 Alpha virt. eigenvalues --    0.71108   0.71653   0.71930   0.72389   0.72917
 Alpha virt. eigenvalues --    0.73357   0.73960   0.74965   0.75355   0.75443
 Alpha virt. eigenvalues --    0.75721   0.76015   0.76138   0.76445   0.76730
 Alpha virt. eigenvalues --    0.77186   0.77679   0.77942   0.78330   0.78530
 Alpha virt. eigenvalues --    0.78776   0.79227   0.79541   0.79606   0.80485
 Alpha virt. eigenvalues --    0.80926   0.81264   0.81658   0.81793   0.81917
 Alpha virt. eigenvalues --    0.82166   0.82623   0.82750   0.83256   0.83395
 Alpha virt. eigenvalues --    0.83910   0.84216   0.85030   0.85490   0.85802
 Alpha virt. eigenvalues --    0.86261   0.86454   0.87131   0.87634   0.87954
 Alpha virt. eigenvalues --    0.88593   0.88917   0.90257   0.91113   0.91522
 Alpha virt. eigenvalues --    0.92158   0.93390   0.93779   0.93997   0.94524
 Alpha virt. eigenvalues --    0.94812   0.95532   0.95631   0.96092   0.97020
 Alpha virt. eigenvalues --    0.97696   0.98959   0.99793   1.00101   1.00302
 Alpha virt. eigenvalues --    1.01071   1.01535   1.02931   1.03253   1.03669
 Alpha virt. eigenvalues --    1.04631   1.05899   1.06494   1.06802   1.07791
 Alpha virt. eigenvalues --    1.08394   1.08971   1.09600   1.10425   1.11586
 Alpha virt. eigenvalues --    1.12077   1.13658   1.14224   1.15374   1.15714
 Alpha virt. eigenvalues --    1.16329   1.17225   1.17537   1.18411   1.18964
 Alpha virt. eigenvalues --    1.19955   1.20545   1.21230   1.22498   1.24014
 Alpha virt. eigenvalues --    1.24869   1.25493   1.26169   1.27246   1.27925
 Alpha virt. eigenvalues --    1.28504   1.28767   1.29541   1.30609   1.31227
 Alpha virt. eigenvalues --    1.32062   1.33249   1.33488   1.34623   1.34805
 Alpha virt. eigenvalues --    1.35580   1.35945   1.36685   1.36777   1.38059
 Alpha virt. eigenvalues --    1.38714   1.39619   1.40930   1.41572   1.41628
 Alpha virt. eigenvalues --    1.42558   1.43659   1.43986   1.44957   1.45372
 Alpha virt. eigenvalues --    1.46068   1.46586   1.48454   1.49463   1.50412
 Alpha virt. eigenvalues --    1.51974   1.53958   1.54545   1.54952   1.55513
 Alpha virt. eigenvalues --    1.56619   1.57326   1.58416   1.59519   1.59753
 Alpha virt. eigenvalues --    1.60192   1.61369   1.62229   1.62672   1.63021
 Alpha virt. eigenvalues --    1.63621   1.64494   1.64607   1.66264   1.67240
 Alpha virt. eigenvalues --    1.67943   1.68230   1.68390   1.68818   1.69570
 Alpha virt. eigenvalues --    1.70407   1.71124   1.71481   1.71827   1.72374
 Alpha virt. eigenvalues --    1.72938   1.73443   1.73865   1.74233   1.74717
 Alpha virt. eigenvalues --    1.74919   1.75431   1.76781   1.77148   1.77742
 Alpha virt. eigenvalues --    1.78523   1.79666   1.80202   1.80899   1.81291
 Alpha virt. eigenvalues --    1.81739   1.82335   1.82950   1.83351   1.84476
 Alpha virt. eigenvalues --    1.84551   1.85474   1.85688   1.85862   1.86317
 Alpha virt. eigenvalues --    1.86867   1.87431   1.88179   1.88668   1.89479
 Alpha virt. eigenvalues --    1.89684   1.90564   1.91138   1.91279   1.91714
 Alpha virt. eigenvalues --    1.92511   1.93292   1.93792   1.94474   1.95117
 Alpha virt. eigenvalues --    1.95444   1.96404   1.96811   1.97218   1.97402
 Alpha virt. eigenvalues --    1.98302   1.98585   1.99953   2.00641   2.00962
 Alpha virt. eigenvalues --    2.01851   2.02638   2.02833   2.03953   2.05469
 Alpha virt. eigenvalues --    2.06823   2.06900   2.08470   2.09057   2.09602
 Alpha virt. eigenvalues --    2.10255   2.10609   2.10960   2.11899   2.13828
 Alpha virt. eigenvalues --    2.15519   2.16543   2.16896   2.17963   2.19260
 Alpha virt. eigenvalues --    2.19938   2.20604   2.21114   2.21175   2.21749
 Alpha virt. eigenvalues --    2.24082   2.24118   2.24703   2.25437   2.27490
 Alpha virt. eigenvalues --    2.27774   2.28473   2.29249   2.30027   2.30422
 Alpha virt. eigenvalues --    2.31817   2.32507   2.33531   2.34405   2.34803
 Alpha virt. eigenvalues --    2.35104   2.36269   2.37265   2.38747   2.38878
 Alpha virt. eigenvalues --    2.39209   2.40643   2.42378   2.43611   2.44117
 Alpha virt. eigenvalues --    2.44456   2.45884   2.46411   2.47679   2.48745
 Alpha virt. eigenvalues --    2.49770   2.50236   2.51213   2.51987   2.52163
 Alpha virt. eigenvalues --    2.52941   2.53962   2.54464   2.54883   2.55812
 Alpha virt. eigenvalues --    2.57022   2.57555   2.57609   2.58866   2.59078
 Alpha virt. eigenvalues --    2.60531   2.61915   2.62275   2.64358   2.65366
 Alpha virt. eigenvalues --    2.66422   2.66716   2.67767   2.68533   2.68983
 Alpha virt. eigenvalues --    2.70940   2.72067   2.73082   2.74456   2.76732
 Alpha virt. eigenvalues --    2.78318   2.80387   2.81449   2.83114   2.84779
 Alpha virt. eigenvalues --    2.85995   2.88096   2.88974   2.91420   2.91739
 Alpha virt. eigenvalues --    2.92572   2.93470   2.95653   2.96202   2.98686
 Alpha virt. eigenvalues --    2.99050   3.00295   3.01922   3.04307   3.06181
 Alpha virt. eigenvalues --    3.11442   3.33966   3.68560   3.72493   3.73565
 Alpha virt. eigenvalues --    3.74420   3.79947   3.86113   3.87202   3.89164
 Alpha virt. eigenvalues --    3.93179   3.96503   3.97679   4.03059   4.03804
 Alpha virt. eigenvalues --    4.05303   4.07588   4.09270   4.10543   4.13466
 Alpha virt. eigenvalues --    4.15512   4.18119   4.19323   4.20674   4.23611
 Alpha virt. eigenvalues --    4.25519   4.28892   4.29265   4.32791   4.34308
 Alpha virt. eigenvalues --    4.37462   4.40408   4.42186   4.43182   4.45227
 Alpha virt. eigenvalues --    4.47045   4.48989   4.55490   4.57263   4.63092
 Alpha virt. eigenvalues --    4.65505
          Condensed to atoms (all electrons):
 Mulliken charges:
               1
     1  N   -0.772234
     2  H    0.425112
     3  H    0.443065
     4  H    0.405589
     5  C   -0.123027
     6  H    0.217910
     7  C    0.635558
     8  C   -0.384494
     9  H    0.215410
    10  H    0.217347
    11  O   -0.508543
    12  C    0.609412
    13  N   -0.741708
    14  H    0.365904
    15  H    0.406009
    16  O   -0.540045
    17  N   -0.563154
    18  H    0.352987
    19  C   -0.107708
    20  H    0.219937
    21  C    0.641441
    22  C   -0.384658
    23  H    0.171979
    24  H    0.204636
    25  O   -0.607110
    26  C    0.115562
    27  C   -0.201032
    28  H    0.175908
    29  C   -0.191386
    30  H    0.131968
    31  C   -0.128617
    32  H    0.161741
    33  C   -0.107980
    34  H    0.149154
    35  C   -0.141826
    36  H    0.146571
    37  N   -0.589345
    38  H    0.407553
    39  C   -0.058496
    40  H    0.168580
    41  C    0.636903
    42  C   -0.406997
    43  H    0.169753
    44  H    0.230616
    45  O   -0.506904
    46  C    0.611744
    47  N   -0.741468
    48  H    0.357335
    49  H    0.352461
    50  O   -0.521541
    51  N   -0.619463
    52  H    0.361514
    53  C   -0.048370
    54  H    0.203319
    55  C    0.587415
    56  C   -0.289818
    57  H    0.182478
    58  H    0.137201
    59  O   -0.462631
    60  C   -0.275367
    61  H    0.158275
    62  H    0.153444
    63  C   -0.132811
    64  H    0.153568
    65  H    0.154269
    66  N   -0.588283
    67  H    0.326795
    68  N   -0.755277
    69  H    0.331745
    70  H    0.334495
    71  N   -0.692206
    72  H    0.277180
    73  C    0.619676
    74  O   -0.554548
    75  H    0.417526
 Sum of Mulliken charges =   1.00000
 Mulliken charges with hydrogens summed into heavy atoms:
               1
     1  N    0.501533
     5  C    0.094883
     7  C    0.635558
     8  C    0.048263
    11  O   -0.508543
    12  C    0.609412
    13  N    0.030205
    16  O   -0.540045
    17  N   -0.210167
    19  C    0.112230
    21  C    0.641441
    22  C   -0.008043
    25  O   -0.607110
    26  C    0.115562
    27  C   -0.025125
    29  C   -0.059419
    31  C    0.033124
    33  C    0.041174
    35  C    0.004745
    37  N   -0.181793
    39  C    0.110084
    41  C    0.636903
    42  C   -0.006628
    45  O   -0.506904
    46  C    0.611744
    47  N   -0.031672
    50  O   -0.521541
    51  N   -0.257949
    53  C    0.154950
    55  C    0.587415
    56  C    0.029861
    59  O   -0.462631
    60  C    0.036352
    63  C    0.175027
    66  N   -0.261488
    68  N   -0.089037
    71  N   -0.415026
    73  C    0.619676
    74  O   -0.137022
 Electronic spatial extent (au):  <R**2>=          23191.1034
 Charge=              1.0000 electrons
 Dipole moment (field-independent basis, Debye):
    X=             -7.7332    Y=             10.3316    Z=              3.2234  Tot=             13.3017
 Quadrupole moment (field-independent basis, Debye-Ang):
   XX=           -160.0076   YY=           -140.4487   ZZ=           -168.9249
   XY=            -48.0524   XZ=            -18.0634   YZ=             -6.7251
 Traceless Quadrupole moment (field-independent basis, Debye-Ang):
   XX=             -3.5472   YY=             16.0117   ZZ=            -12.4645
   XY=            -48.0524   XZ=            -18.0634   YZ=             -6.7251
 Octapole moment (field-independent basis, Debye-Ang**2):
  XXX=           -187.3694  YYY=           -863.6319  ZZZ=            382.9815  XYY=            -84.5729
  XXY=           -160.1883  XXZ=            360.9161  XZZ=           -146.7335  YZZ=           -120.0735
  YYZ=             74.5282  XYZ=           -116.3300
 Hexadecapole moment (field-independent basis, Debye-Ang**3):
 XXXX=          -5065.3024 YYYY=         -10086.4671 ZZZZ=          -8880.2471 XXXY=           -717.3682
 XXXZ=            441.5948 YYYX=           -847.4289 YYYZ=             34.1899 ZZZX=           1166.7121
 ZZZY=             49.8396 XXYY=          -2328.9734 XXZZ=          -2312.0872 YYZZ=          -2241.9627
 XXYZ=            841.0240 YYXZ=            -84.6261 ZZXY=           -578.5332
 N-N= 4.913671269700D+03 E-N=-1.427064780853D+04  KE= 1.899763527567D+03
 Unable to Open any file for archive entry.
 1\1\GINC-LAC-250\SP\RB3LYP\6-31G(d)\C23H36N9O7(1+)\KENGMITH\31-May-202
 2\0\\# B3LYP/6-31G* empiricaldispersion=gd3 guess=read geom=check nosy
 mm integral(ultrafinegrid)\\Candidate Structure: Conf:448 Charge calc 
 in gas phase\\1,1\N,0,-4.2092879343,2.6993469755,3.3890047176\H,0,-4.5
 101004129,1.7343575005,3.1298706592\H,0,-3.6334195433,2.6073859534,4.2
 810423236\H,0,-5.0135623099,3.3161933463,3.5132729455\C,0,-3.270839391
 8,3.122934528,2.2855999761\H,0,-3.6963989619,3.9854607171,1.7669517352
 \C,0,-3.1707235933,1.896141383,1.3455441712\C,0,-1.8766364207,3.470533
 2399,2.8635464687\H,0,-1.164947864,3.5772416165,2.0428951134\H,0,-1.93
 36487615,4.4213259269,3.4030472991\O,0,-3.6338733987,0.8217537008,1.72
 50381039\C,0,-1.4343420145,2.4118622644,3.8748774156\N,0,-0.3283023294
 ,1.7162346084,3.5987833847\H,0,-0.0593018118,0.985564773,4.2466575661\
 H,0,0.0792593823,1.7309061995,2.6638625359\O,0,-2.1232482718,2.2453626
 183,4.8983601897\N,0,-2.5378510569,2.1123157901,0.1804310898\H,0,-2.10
 24808144,3.0173445681,0.0451555838\C,0,-1.8983078545,1.0338098248,-0.5
 68444818\H,0,-2.4560700537,0.1156469967,-0.3661417675\C,0,-0.454260865
 4,0.8825888088,-0.0335948811\C,0,-1.9554533509,1.3593322445,-2.0885900
 904\H,0,-3.0168957612,1.4875818142,-2.331920579\H,0,-1.4608333772,2.32
 01982889,-2.2731901866\O,0,0.0219447862,1.7416452687,0.7443008075\C,0,
 -1.3350349641,0.2785097105,-2.946394934\C,0,-0.0683536418,0.4583162819
 ,-3.5161757505\H,0,0.4389495243,1.4127379423,-3.4122538714\C,0,-1.9709
 366452,-0.9643230543,-3.0811254505\H,0,-2.9542526908,-1.1177546671,-2.
 6405731818\C,0,0.559929216,-0.5884889164,-4.1932374165\H,0,1.554593381
 9,-0.4356883636,-4.5991748937\C,0,-1.3438477994,-2.0127740457,-3.75434
 5035\H,0,-1.8409802868,-2.9745117464,-3.8375039626\C,0,-0.0741810971,-
 1.8271863833,-4.3086869604\H,0,0.416355277,-2.6455479496,-4.828229348\
 N,0,0.2168388248,-0.1707531333,-0.4906232286\H,0,-0.2868961586,-0.8978
 231294,-0.9987368779\C,0,1.6395824783,-0.4520856327,-0.2570097143\H,0,
 1.8429618469,-0.3424020657,0.8151637275\C,0,2.4940131452,0.5733672186,
 -1.0657154092\C,0,1.9795612436,-1.869175331,-0.7443676344\H,0,3.011763
 5446,-2.0880037513,-0.4568337657\H,0,1.9491630628,-1.8567816065,-1.839
 1257412\O,0,2.9926582155,0.2844619868,-2.1432256664\C,0,0.9965381642,-
 2.9353669696,-0.2771415141\N,0,1.5154885064,-3.9761383686,0.4220937568
 \H,0,0.9016573581,-4.7480075348,0.6473342589\H,0,2.509320117,-4.113670
 0901,0.5284878742\O,0,-0.2050939791,-2.8507830925,-0.5335168991\N,0,2.
 5830755955,1.7941388371,-0.4690624543\H,0,1.9390424101,1.9577331559,0.
 3000842369\C,0,2.9774268679,2.9869007278,-1.2222669069\H,0,3.415643277
 3,2.6334829882,-2.1586953536\C,0,4.0575380722,3.705577513,-0.413172982
 6\C,0,1.7624935328,3.885951795,-1.4732226843\H,0,0.9596725404,3.276804
 0431,-1.8993088428\H,0,1.4196674936,4.2793652123,-0.5076332495\O,0,3.8
 54685826,4.6748452582,0.285424103\C,0,2.0377038439,5.0445004197,-2.434
 1900242\H,0,2.8490351799,5.6684583515,-2.0419474698\H,0,2.381210865,4.
 6344751145,-3.3916820608\C,0,0.7690179229,5.9080253486,-2.682238487\H,
 0,-0.0726269217,5.5099757546,-2.1079368459\H,0,0.9296221253,6.93750314
 05,-2.3473944927\N,0,0.3290763868,5.9779766925,-4.0712322309\H,0,0.939
 7701403,6.5132925304,-4.6772825027\N,0,-0.3646257644,5.0103393266,-6.0
 510939537\H,0,-0.9073608672,4.2874151288,-6.5056115248\H,0,-0.63436006
 35,5.9385622146,-6.35710611\N,0,-0.4912545187,3.7983771038,-3.98371952
 38\H,0,-0.9742947028,3.1117144902,-4.5645762194\C,0,-0.2086698396,4.85
 40598393,-4.6735995098\O,0,5.2572571842,3.103335676,-0.5301423914\H,0,
 5.8786941856,3.5875191528,0.0468678148\\Version=ES64L-G16RevC.01\HF=-1
 917.4608128\RMSD=6.946e-09\Dipole=-3.1990764,1.0459301,2.7493497\Quadr
 upole=-2.6372532,11.9043132,-9.26706,-35.7257679,-13.4296856,-4.999962
 9\PG=C01 [X(C23H36N9O7)]\\@
 The archive entry for this job was punched.


 HE THAT WALD REACHE THE SWEITE ROSE
 SULD NOW AND THEN BE SCRATCHED WT THE SCHARPE BREERES.
 -- PROVERBS AND REASONS OF THE YEAR 1585
           AS REPRINTED IN PAISLEY MAGAZINE 1828.
 Job cpu time:       0 days  0 hours  2 minutes 25.6 seconds.
 Elapsed time:       0 days  0 hours  0 minutes 37.0 seconds.
 File lengths (MBytes):  RWF=    344 Int=      0 D2E=      0 Chk=     48 Scr=     16
 Normal termination of Gaussian 16 at Tue May 31 13:04:22 2022.
