 Entering Gaussian System, Link 0=/opt/software/Gaussian/g16-AVX2-C.01/g16/g16
 Input=charge-conf-950.com
 Output=charge-conf-950.log
 Initial command:
 /opt/software/Gaussian/g16-AVX2-C.01/g16/l1.exe "/mnt/gs18/scratch/users/kengmith/Gau-107470.inp" -scrdir="/mnt/gs18/scratch/users/kengmith/"
 Entering Link 1 = /opt/software/Gaussian/g16-AVX2-C.01/g16/l1.exe PID=    107480.
  
 Copyright (c) 1988-2019, Gaussian, Inc.  All Rights Reserved.
  
 This is part of the Gaussian(R) 16 program.  It is based on
 the Gaussian(R) 09 system (copyright 2009, Gaussian, Inc.),
 the Gaussian(R) 03 system (copyright 2003, Gaussian, Inc.),
 the Gaussian(R) 98 system (copyright 1998, Gaussian, Inc.),
 the Gaussian(R) 94 system (copyright 1995, Gaussian, Inc.),
 the Gaussian 92(TM) system (copyright 1992, Gaussian, Inc.),
 the Gaussian 90(TM) system (copyright 1990, Gaussian, Inc.),
 the Gaussian 88(TM) system (copyright 1988, Gaussian, Inc.),
 the Gaussian 86(TM) system (copyright 1986, Carnegie Mellon
 University), and the Gaussian 82(TM) system (copyright 1983,
 Carnegie Mellon University). Gaussian is a federally registered
 trademark of Gaussian, Inc.
  
 This software contains proprietary and confidential information,
 including trade secrets, belonging to Gaussian, Inc.
  
 This software is provided under written license and may be
 used, copied, transmitted, or stored only in accord with that
 written license.
  
 The following legend is applicable only to US Government
 contracts under FAR:
  
                    RESTRICTED RIGHTS LEGEND
  
 Use, reproduction and disclosure by the US Government is
 subject to restrictions as set forth in subparagraphs (a)
 and (c) of the Commercial Computer Software - Restricted
 Rights clause in FAR 52.227-19.
  
 Gaussian, Inc.
 340 Quinnipiac St., Bldg. 40, Wallingford CT 06492
  
  
 ---------------------------------------------------------------
 Warning -- This program may not be used in any manner that
 competes with the business of Gaussian, Inc. or will provide
 assistance to any competitor of Gaussian, Inc.  The licensee
 of this program is prohibited from giving any competitor of
 Gaussian, Inc. access to this program.  By using this program,
 the user acknowledges that Gaussian, Inc. is engaged in the
 business of creating and licensing software in the field of
 computational chemistry and represents and warrants to the
 licensee that it is not a competitor of Gaussian, Inc. and that
 it will not use this program in any manner prohibited above.
 ---------------------------------------------------------------
  

 Cite this work as:
 Gaussian 16, Revision C.01,
 M. J. Frisch, G. W. Trucks, H. B. Schlegel, G. E. Scuseria, 
 M. A. Robb, J. R. Cheeseman, G. Scalmani, V. Barone, 
 G. A. Petersson, H. Nakatsuji, X. Li, M. Caricato, A. V. Marenich, 
 J. Bloino, B. G. Janesko, R. Gomperts, B. Mennucci, H. P. Hratchian, 
 J. V. Ortiz, A. F. Izmaylov, J. L. Sonnenberg, D. Williams-Young, 
 F. Ding, F. Lipparini, F. Egidi, J. Goings, B. Peng, A. Petrone, 
 T. Henderson, D. Ranasinghe, V. G. Zakrzewski, J. Gao, N. Rega, 
 G. Zheng, W. Liang, M. Hada, M. Ehara, K. Toyota, R. Fukuda, 
 J. Hasegawa, M. Ishida, T. Nakajima, Y. Honda, O. Kitao, H. Nakai, 
 T. Vreven, K. Throssell, J. A. Montgomery, Jr., J. E. Peralta, 
 F. Ogliaro, M. J. Bearpark, J. J. Heyd, E. N. Brothers, K. N. Kudin, 
 V. N. Staroverov, T. A. Keith, R. Kobayashi, J. Normand, 
 K. Raghavachari, A. P. Rendell, J. C. Burant, S. S. Iyengar, 
 J. Tomasi, M. Cossi, J. M. Millam, M. Klene, C. Adamo, R. Cammi, 
 J. W. Ochterski, R. L. Martin, K. Morokuma, O. Farkas, 
 J. B. Foresman, and D. J. Fox, Gaussian, Inc., Wallingford CT, 2019.
 
 ******************************************
 Gaussian 16:  ES64L-G16RevC.01  3-Jul-2019
                31-May-2022 
 ******************************************
 %mem=8gb
 %nproc=4
 Will use up to    4 processors via shared memory.
 %chk=conf-950.chk
 ----------------------------------------------------------------------
 # B3LYP/6-31G* empiricaldispersion=gd3 guess=read geom=check nosymm in
 tegral(ultrafinegrid)
 ----------------------------------------------------------------------
 1/29=2,38=1,172=1/1;
 2/12=2,15=1,40=1/2;
 3/5=1,6=6,7=1,11=2,14=-4,25=1,30=1,74=-5,75=-5,116=-2,124=31/1,2,3;
 4/5=1/1;
 5/5=2,38=6/2;
 6/7=2,8=2,9=2,10=2,28=1/1;
 99/5=1,9=1/99;
 ------------------------------------------------------
 Candidate Structure: Conf:950 Charge calc in gas phase
 ------------------------------------------------------
 Structure from the checkpoint file:  "conf-950.chk"
 Charge =  1 Multiplicity = 1
 Redundant internal coordinates found in file.  (old form).
 N,0,-4.2132504584,-1.231629185,3.9278909153
 H,0,-5.0686098062,-1.4433330275,3.4166184308
 H,0,-3.5103908031,-1.9324942636,3.6471576502
 C,0,-3.6962128489,0.0856938545,3.5174320038
 H,0,-4.4706230422,0.8397748318,3.705808767
 C,0,-3.3205663785,0.077944903,2.0133478418
 C,0,-2.4407463425,0.4007191481,4.3740411183
 H,0,-1.666961402,-0.3444088087,4.1232748443
 H,0,-2.0309797768,1.3917780376,4.169776346
 O,0,-3.4659877026,-0.9607863139,1.3734652205
 C,0,-2.6637153005,0.2908534416,5.8503137519
 N,0,-3.567404218,-0.5140404841,6.3199713598
 H,0,-4.1003728358,-1.0404157426,5.5123345143
 H,0,-3.7298823515,-0.6506250196,7.3131517789
 O,0,-1.8614978319,1.0331293526,6.5859720958
 N,0,-2.778922012,1.2100371695,1.5040665996
 H,0,-2.6508936699,2.0175542432,2.1004026639
 C,0,-2.0337097849,1.2009861211,0.2312810253
 H,0,-2.4943454811,0.4395576604,-0.4013119257
 C,0,-0.5908780779,0.7129533243,0.486288891
 C,0,-2.0867955815,2.5464872238,-0.4897178947
 H,0,-1.7955489373,3.3562139427,0.1924439884
 H,0,-1.315106872,2.5152933994,-1.2653212902
 O,0,0.4126723586,1.3707532714,0.2310941324
 C,0,-3.4462122098,2.7965511348,-1.1035588197
 C,0,-3.8667441564,2.0071732883,-2.1857434479
 H,0,-3.2014825272,1.240003951,-2.5800457557
 C,0,-4.3070868973,3.7790189248,-0.6061196959
 H,0,-3.9853384501,4.4039250823,0.2252337433
 C,0,-5.1264417802,2.2013002722,-2.7502099707
 H,0,-5.4406857018,1.5848920458,-3.5882998565
 C,0,-5.5689242406,3.976174643,-1.1732833579
 H,0,-6.2248846631,4.7483423584,-0.779618954
 C,0,-5.9819767499,3.1856107083,-2.2458912663
 H,0,-6.9621687448,3.3372238223,-2.6898587272
 N,0,-0.5661510335,-0.5311648076,1.0538305156
 H,0,-1.3971728409,-1.0790908983,0.8432781885
 C,0,0.654918609,-1.3230231593,1.1491431137
 H,0,1.4769817219,-0.6270802262,1.3365285764
 C,0,0.8654444873,-2.0162749094,-0.2229543973
 C,0,0.5398998403,-2.3170067826,2.3306638516
 H,0,0.8636392279,-1.8294734809,3.2519540706
 H,0,1.1871986634,-3.1784216319,2.1389114642
 O,0,0.5355996659,-3.1919130264,-0.400962109
 C,0,-0.9000211027,-2.7792697061,2.5664764896
 N,0,-1.4124986154,-3.5712912888,1.6104843318
 H,0,-2.4036192342,-3.7734437293,1.6230644906
 H,0,-0.8639379897,-3.7320868385,0.7611972753
 O,0,-1.548686796,-2.3953247029,3.5567832537
 N,0,1.3944270015,-1.1989259437,-1.1751403755
 H,0,1.4785314624,-0.23723906,-0.8562470505
 C,0,1.0183064242,-1.2677502193,-2.5959786053
 H,0,1.6857507933,-0.5640281471,-3.1097780814
 C,0,-0.4396828145,-0.7230570774,-2.7827836063
 C,0,1.2666489772,-2.6693361472,-3.2001900706
 H,0,2.1838099197,-3.0493191856,-2.742764319
 H,0,0.4753981386,-3.3562585631,-2.8841424362
 O,0,-0.7290047668,-0.2642111251,-3.9339090034
 C,0,1.4537595597,-2.6866027386,-4.7295656076
 H,0,2.0440004413,-1.8112625019,-5.0299364058
 H,0,2.0433489665,-3.5664247888,-5.0138970411
 C,0,0.143024589,-2.6991355547,-5.5378376924
 H,0,-0.2595731021,-3.7114990208,-5.6210195022
 H,0,-0.6238977095,-2.0849031416,-5.0649455985
 N,0,0.3381493603,-2.2065805224,-6.9139154074
 H,0,0.6598316688,-2.8724061469,-7.6035555928
 N,0,0.3966644058,0.0223596192,-6.2642527295
 H,0,0.434220841,0.9929126568,-6.5467156879
 H,0,0.0358446358,-0.1502903244,-5.2529010449
 N,0,0.8978739957,-0.5750074741,-8.4656580866
 H,0,0.8652539029,0.3942140026,-8.7474063302
 H,0,0.744405484,-1.2377711586,-9.2125580218
 C,0,0.5267977923,-0.9054552609,-7.1970554254
 O,0,-1.2038884696,-0.7649392809,-1.8054590103
 H,0,-1.972233633,0.8925888713,7.5452942572
 Recover connectivity data from disk.
                           ----------------------------
                           !    Current Parameters    !
                           ! (Angstroms and Degrees)  !
 --------------------------                            --------------------------
 ! Name  Definition              Value                                          !
 --------------------------------------------------------------------------------
 ! R1    R(1,2)                  1.0188                                         !
 ! R2    R(1,3)                  1.0315                                         !
 ! R3    R(1,4)                  1.4735                                         !
 ! R4    R(4,5)                  1.0972                                         !
 ! R5    R(4,6)                  1.5503                                         !
 ! R6    R(4,7)                  1.5522                                         !
 ! R7    R(6,10)                 1.2286                                         !
 ! R8    R(6,16)                 1.3544                                         !
 ! R9    R(7,8)                  1.1031                                         !
 ! R10   R(7,9)                  1.0917                                         !
 ! R11   R(7,11)                 1.4971                                         !
 ! R12   R(11,12)                1.2981                                         !
 ! R13   R(11,15)                1.3175                                         !
 ! R14   R(12,13)                1.1015                                         !
 ! R15   R(12,14)                1.0156                                         !
 ! R16   R(15,75)                0.9759                                         !
 ! R17   R(16,17)                1.012                                          !
 ! R18   R(16,18)                1.4749                                         !
 ! R19   R(18,19)                1.0918                                         !
 ! R20   R(18,20)                1.5443                                         !
 ! R21   R(18,21)                1.5274                                         !
 ! R22   R(20,24)                1.2268                                         !
 ! R23   R(20,36)                1.3677                                         !
 ! R24   R(21,22)                1.0981                                         !
 ! R25   R(21,23)                1.0945                                         !
 ! R26   R(21,25)                1.5124                                         !
 ! R27   R(25,26)                1.404                                          !
 ! R28   R(25,28)                1.3978                                         !
 ! R29   R(26,27)                1.0893                                         !
 ! R30   R(26,30)                1.394                                          !
 ! R31   R(28,29)                1.0887                                         !
 ! R32   R(28,32)                1.3974                                         !
 ! R33   R(30,31)                1.0868                                         !
 ! R34   R(30,34)                1.3983                                         !
 ! R35   R(32,33)                1.087                                          !
 ! R36   R(32,34)                1.395                                          !
 ! R37   R(34,35)                1.0867                                         !
 ! R38   R(36,37)                1.0174                                         !
 ! R39   R(36,38)                1.4585                                         !
 ! R40   R(38,39)                1.0933                                         !
 ! R41   R(38,40)                1.5516                                         !
 ! R42   R(38,41)                1.5483                                         !
 ! R43   R(40,44)                1.2339                                         !
 ! R44   R(40,50)                1.3618                                         !
 ! R45   R(41,42)                1.0915                                         !
 ! R46   R(41,43)                1.0944                                         !
 ! R47   R(41,45)                1.5306                                         !
 ! R48   R(45,46)                1.3431                                         !
 ! R49   R(45,49)                1.2445                                         !
 ! R50   R(46,47)                1.0116                                         !
 ! R51   R(46,48)                1.0237                                         !
 ! R52   R(50,51)                1.0167                                         !
 ! R53   R(50,52)                1.4714                                         !
 ! R54   R(52,53)                1.0976                                         !
 ! R55   R(52,54)                1.5676                                         !
 ! R56   R(52,55)                1.5463                                         !
 ! R57   R(54,58)                1.2725                                         !
 ! R58   R(54,74)                1.2413                                         !
 ! R59   R(55,56)                1.0931                                         !
 ! R60   R(55,57)                1.0945                                         !
 ! R61   R(55,59)                1.5409                                         !
 ! R62   R(59,60)                1.0976                                         !
 ! R63   R(59,61)                1.0966                                         !
 ! R64   R(59,62)                1.54                                           !
 ! R65   R(62,63)                1.0926                                         !
 ! R66   R(62,64)                1.0904                                         !
 ! R67   R(62,65)                1.4745                                         !
 ! R68   R(65,66)                1.0111                                         !
 ! R69   R(65,73)                1.3449                                         !
 ! R70   R(67,68)                1.0115                                         !
 ! R71   R(67,69)                1.0876                                         !
 ! R72   R(67,73)                1.3221                                         !
 ! R73   R(70,71)                1.0099                                         !
 ! R74   R(70,72)                1.0103                                         !
 ! R75   R(70,73)                1.3624                                         !
 ! A1    A(2,1,3)              107.1168                                         !
 ! A2    A(2,1,4)              109.9134                                         !
 ! A3    A(3,1,4)              107.0098                                         !
 ! A4    A(1,4,5)              108.5996                                         !
 ! A5    A(1,4,6)              110.5371                                         !
 ! A6    A(1,4,7)              108.1519                                         !
 ! A7    A(5,4,6)              109.9395                                         !
 ! A8    A(5,4,7)              109.673                                          !
 ! A9    A(6,4,7)              109.9045                                         !
 ! A10   A(4,6,10)             118.7393                                         !
 ! A11   A(4,6,16)             117.2282                                         !
 ! A12   A(10,6,16)            123.9292                                         !
 ! A13   A(4,7,8)              107.7475                                         !
 ! A14   A(4,7,9)              112.6179                                         !
 ! A15   A(4,7,11)             114.133                                          !
 ! A16   A(8,7,9)              107.9015                                         !
 ! A17   A(8,7,11)             106.205                                          !
 ! A18   A(9,7,11)             107.8805                                         !
 ! A19   A(7,11,12)            120.3957                                         !
 ! A20   A(7,11,15)            114.7462                                         !
 ! A21   A(12,11,15)           124.835                                          !
 ! A22   A(11,12,13)           111.5832                                         !
 ! A23   A(11,12,14)           123.2691                                         !
 ! A24   A(13,12,14)           125.1224                                         !
 ! A25   A(11,15,75)           113.4961                                         !
 ! A26   A(6,16,17)            119.7359                                         !
 ! A27   A(6,16,18)            121.4274                                         !
 ! A28   A(17,16,18)           116.7112                                         !
 ! A29   A(16,18,19)           106.9234                                         !
 ! A30   A(16,18,20)           109.3593                                         !
 ! A31   A(16,18,21)           112.605                                          !
 ! A32   A(19,18,20)           105.6313                                         !
 ! A33   A(19,18,21)           109.0362                                         !
 ! A34   A(20,18,21)           112.8793                                         !
 ! A35   A(18,20,24)           124.0892                                         !
 ! A36   A(18,20,36)           111.8932                                         !
 ! A37   A(24,20,36)           124.0074                                         !
 ! A38   A(18,21,22)           110.3104                                         !
 ! A39   A(18,21,23)           106.5516                                         !
 ! A40   A(18,21,25)           111.6216                                         !
 ! A41   A(22,21,23)           105.9156                                         !
 ! A42   A(22,21,25)           111.6301                                         !
 ! A43   A(23,21,25)           110.5377                                         !
 ! A44   A(21,25,26)           119.2829                                         !
 ! A45   A(21,25,28)           121.6927                                         !
 ! A46   A(26,25,28)           119.0145                                         !
 ! A47   A(25,26,27)           119.4762                                         !
 ! A48   A(25,26,30)           120.2989                                         !
 ! A49   A(27,26,30)           120.2249                                         !
 ! A50   A(25,28,29)           119.5514                                         !
 ! A51   A(25,28,32)           120.7211                                         !
 ! A52   A(29,28,32)           119.7241                                         !
 ! A53   A(26,30,31)           119.6422                                         !
 ! A54   A(26,30,34)           120.3249                                         !
 ! A55   A(31,30,34)           120.0326                                         !
 ! A56   A(28,32,33)           119.8784                                         !
 ! A57   A(28,32,34)           119.965                                          !
 ! A58   A(33,32,34)           120.1562                                         !
 ! A59   A(30,34,32)           119.6752                                         !
 ! A60   A(30,34,35)           120.1826                                         !
 ! A61   A(32,34,35)           120.1416                                         !
 ! A62   A(20,36,37)           112.9076                                         !
 ! A63   A(20,36,38)           122.4214                                         !
 ! A64   A(37,36,38)           113.8891                                         !
 ! A65   A(36,38,39)           107.1647                                         !
 ! A66   A(36,38,40)           107.3605                                         !
 ! A67   A(36,38,41)           109.6475                                         !
 ! A68   A(39,38,40)           109.5091                                         !
 ! A69   A(39,38,41)           109.4954                                         !
 ! A70   A(40,38,41)           113.4569                                         !
 ! A71   A(38,40,44)           121.1297                                         !
 ! A72   A(38,40,50)           113.7562                                         !
 ! A73   A(44,40,50)           125.0856                                         !
 ! A74   A(38,41,42)           109.5931                                         !
 ! A75   A(38,41,43)           109.1266                                         !
 ! A76   A(38,41,45)           112.4173                                         !
 ! A77   A(42,41,43)           108.9072                                         !
 ! A78   A(42,41,45)           106.4933                                         !
 ! A79   A(43,41,45)           110.224                                          !
 ! A80   A(41,45,46)           115.3032                                         !
 ! A81   A(41,45,49)           121.316                                          !
 ! A82   A(46,45,49)           123.3284                                         !
 ! A83   A(45,46,47)           118.8707                                         !
 ! A84   A(45,46,48)           118.5977                                         !
 ! A85   A(47,46,48)           120.2593                                         !
 ! A86   A(40,50,51)           112.3679                                         !
 ! A87   A(40,50,52)           123.2172                                         !
 ! A88   A(51,50,52)           111.6097                                         !
 ! A89   A(50,52,53)           105.4621                                         !
 ! A90   A(50,52,54)           109.6681                                         !
 ! A91   A(50,52,55)           112.2503                                         !
 ! A92   A(53,52,54)           106.6796                                         !
 ! A93   A(53,52,55)           107.4914                                         !
 ! A94   A(54,52,55)           114.6928                                         !
 ! A95   A(52,54,58)           116.3948                                         !
 ! A96   A(52,54,74)           117.8425                                         !
 ! A97   A(58,54,74)           125.7604                                         !
 ! A98   A(52,55,56)           106.6381                                         !
 ! A99   A(52,55,57)           109.8734                                         !
 ! A100  A(52,55,59)           114.6754                                         !
 ! A101  A(56,55,57)           105.5206                                         !
 ! A102  A(56,55,59)           108.0333                                         !
 ! A103  A(57,55,59)           111.5538                                         !
 ! A104  A(55,59,60)           109.1455                                         !
 ! A105  A(55,59,61)           109.3675                                         !
 ! A106  A(55,59,62)           114.6884                                         !
 ! A107  A(60,59,61)           106.2457                                         !
 ! A108  A(60,59,62)           108.6962                                         !
 ! A109  A(61,59,62)           108.3608                                         !
 ! A110  A(59,62,63)           111.1684                                         !
 ! A111  A(59,62,64)           111.4949                                         !
 ! A112  A(59,62,65)           111.9913                                         !
 ! A113  A(63,62,64)           107.2036                                         !
 ! A114  A(63,62,65)           106.6909                                         !
 ! A115  A(64,62,65)           108.0362                                         !
 ! A116  A(62,65,66)           117.299                                          !
 ! A117  A(62,65,73)           122.5618                                         !
 ! A118  A(66,65,73)           116.67                                           !
 ! A119  A(68,67,69)           115.107                                          !
 ! A120  A(68,67,73)           118.2087                                         !
 ! A121  A(69,67,73)           125.2646                                         !
 ! A122  A(71,70,72)           114.7365                                         !
 ! A123  A(71,70,73)           118.9312                                         !
 ! A124  A(72,70,73)           119.2023                                         !
 ! A125  A(65,73,67)           121.1048                                         !
 ! A126  A(65,73,70)           117.9622                                         !
 ! A127  A(67,73,70)           120.9012                                         !
 ! D1    D(2,1,4,5)             57.9966                                         !
 ! D2    D(2,1,4,6)            -62.6881                                         !
 ! D3    D(2,1,4,7)            176.9526                                         !
 ! D4    D(3,1,4,5)            173.9844                                         !
 ! D5    D(3,1,4,6)             53.2997                                         !
 ! D6    D(3,1,4,7)            -67.0596                                         !
 ! D7    D(1,4,6,10)            -0.9902                                         !
 ! D8    D(1,4,6,16)          -177.441                                          !
 ! D9    D(5,4,6,10)          -120.8727                                         !
 ! D10   D(5,4,6,16)            62.6765                                         !
 ! D11   D(7,4,6,10)           118.315                                          !
 ! D12   D(7,4,6,16)           -58.1358                                         !
 ! D13   D(1,4,7,8)             64.5157                                         !
 ! D14   D(1,4,7,9)           -176.6044                                         !
 ! D15   D(1,4,7,11)           -53.1603                                         !
 ! D16   D(5,4,7,8)           -177.2111                                         !
 ! D17   D(5,4,7,9)            -58.3312                                         !
 ! D18   D(5,4,7,11)            65.1129                                         !
 ! D19   D(6,4,7,8)            -56.2384                                         !
 ! D20   D(6,4,7,9)             62.6415                                         !
 ! D21   D(6,4,7,11)          -173.9143                                         !
 ! D22   D(4,6,16,17)           -1.0048                                         !
 ! D23   D(4,6,16,18)          161.8779                                         !
 ! D24   D(10,6,16,17)        -177.2539                                         !
 ! D25   D(10,6,16,18)         -14.3712                                         !
 ! D26   D(4,7,11,12)           27.8283                                         !
 ! D27   D(4,7,11,15)         -153.8371                                         !
 ! D28   D(8,7,11,12)          -90.729                                          !
 ! D29   D(8,7,11,15)           87.6056                                         !
 ! D30   D(9,7,11,12)          153.7968                                         !
 ! D31   D(9,7,11,15)          -27.8687                                         !
 ! D32   D(7,11,12,13)          -0.7823                                         !
 ! D33   D(7,11,12,14)         177.4685                                         !
 ! D34   D(15,11,12,13)       -178.9395                                         !
 ! D35   D(15,11,12,14)         -0.6887                                         !
 ! D36   D(7,11,15,75)        -175.2258                                         !
 ! D37   D(12,11,15,75)          3.024                                          !
 ! D38   D(6,16,18,19)          32.8828                                         !
 ! D39   D(6,16,18,20)         -81.0352                                         !
 ! D40   D(6,16,18,21)         152.6177                                         !
 ! D41   D(17,16,18,19)       -163.7421                                         !
 ! D42   D(17,16,18,20)         82.3399                                         !
 ! D43   D(17,16,18,21)        -44.0072                                         !
 ! D44   D(16,18,20,24)       -121.114                                          !
 ! D45   D(16,18,20,36)         57.7617                                         !
 ! D46   D(19,18,20,24)        124.1338                                         !
 ! D47   D(19,18,20,36)        -56.9906                                         !
 ! D48   D(21,18,20,24)          5.0765                                         !
 ! D49   D(21,18,20,36)       -176.0478                                         !
 ! D50   D(16,18,21,22)         51.4105                                         !
 ! D51   D(16,18,21,23)        165.9322                                         !
 ! D52   D(16,18,21,25)        -73.305                                          !
 ! D53   D(19,18,21,22)        169.9144                                         !
 ! D54   D(19,18,21,23)        -75.564                                          !
 ! D55   D(19,18,21,25)         45.1989                                         !
 ! D56   D(20,18,21,22)        -73.0223                                         !
 ! D57   D(20,18,21,23)         41.4993                                         !
 ! D58   D(20,18,21,25)        162.2622                                         !
 ! D59   D(18,20,36,37)         25.3768                                         !
 ! D60   D(18,20,36,38)        167.489                                          !
 ! D61   D(24,20,36,37)       -155.7465                                         !
 ! D62   D(24,20,36,38)        -13.6342                                         !
 ! D63   D(18,21,25,26)        -68.1899                                         !
 ! D64   D(18,21,25,28)        110.653                                          !
 ! D65   D(22,21,25,26)        167.8349                                         !
 ! D66   D(22,21,25,28)        -13.3222                                         !
 ! D67   D(23,21,25,26)         50.2171                                         !
 ! D68   D(23,21,25,28)       -130.94                                           !
 ! D69   D(21,25,26,27)         -1.1874                                         !
 ! D70   D(21,25,26,30)        178.6961                                         !
 ! D71   D(28,25,26,27)        179.9384                                         !
 ! D72   D(28,25,26,30)         -0.1781                                         !
 ! D73   D(21,25,28,29)          1.8668                                         !
 ! D74   D(21,25,28,32)       -178.8056                                         !
 ! D75   D(26,25,28,29)       -179.2873                                         !
 ! D76   D(26,25,28,32)          0.0403                                         !
 ! D77   D(25,26,30,31)        179.9362                                         !
 ! D78   D(25,26,30,34)          0.129                                          !
 ! D79   D(27,26,30,31)         -0.1812                                         !
 ! D80   D(27,26,30,34)       -179.9883                                         !
 ! D81   D(25,28,32,33)       -179.615                                          !
 ! D82   D(25,28,32,34)          0.1473                                         !
 ! D83   D(29,28,32,33)         -0.2886                                         !
 ! D84   D(29,28,32,34)        179.4738                                         !
 ! D85   D(26,30,34,32)          0.0598                                         !
 ! D86   D(26,30,34,35)        179.7925                                         !
 ! D87   D(31,30,34,32)       -179.7466                                         !
 ! D88   D(31,30,34,35)         -0.0139                                         !
 ! D89   D(28,32,34,30)         -0.197                                          !
 ! D90   D(28,32,34,35)       -179.9298                                         !
 ! D91   D(33,32,34,30)        179.5647                                         !
 ! D92   D(33,32,34,35)         -0.1681                                         !
 ! D93   D(20,36,38,39)         35.9915                                         !
 ! D94   D(20,36,38,40)        -81.5744                                         !
 ! D95   D(20,36,38,41)        154.7525                                         !
 ! D96   D(37,36,38,39)        177.7713                                         !
 ! D97   D(37,36,38,40)         60.2053                                         !
 ! D98   D(37,36,38,41)        -63.4678                                         !
 ! D99   D(36,38,40,44)        -99.1415                                         !
 ! D100  D(36,38,40,50)         79.009                                          !
 ! D101  D(39,38,40,44)        144.8311                                         !
 ! D102  D(39,38,40,50)        -37.0183                                         !
 ! D103  D(41,38,40,44)         22.1686                                         !
 ! D104  D(41,38,40,50)       -159.6809                                         !
 ! D105  D(36,38,41,42)        -86.6544                                         !
 ! D106  D(36,38,41,43)        154.1696                                         !
 ! D107  D(36,38,41,45)         31.5633                                         !
 ! D108  D(39,38,41,42)         30.6564                                         !
 ! D109  D(39,38,41,43)        -88.5196                                         !
 ! D110  D(39,38,41,45)        148.8741                                         !
 ! D111  D(40,38,41,42)        153.3265                                         !
 ! D112  D(40,38,41,43)         34.1506                                         !
 ! D113  D(40,38,41,45)        -88.4558                                         !
 ! D114  D(38,40,50,51)         -5.7944                                         !
 ! D115  D(38,40,50,52)       -143.9958                                         !
 ! D116  D(44,40,50,51)        172.2709                                         !
 ! D117  D(44,40,50,52)         34.0695                                         !
 ! D118  D(38,41,45,46)         69.0193                                         !
 ! D119  D(38,41,45,49)       -108.4299                                         !
 ! D120  D(42,41,45,46)       -170.9502                                         !
 ! D121  D(42,41,45,49)         11.6005                                         !
 ! D122  D(43,41,45,46)        -52.9662                                         !
 ! D123  D(43,41,45,49)        129.5845                                         !
 ! D124  D(41,45,46,47)       -169.1809                                         !
 ! D125  D(41,45,46,48)         -6.2453                                         !
 ! D126  D(49,45,46,47)          8.211                                          !
 ! D127  D(49,45,46,48)        171.1466                                         !
 ! D128  D(40,50,52,53)       -174.2665                                         !
 ! D129  D(40,50,52,54)         71.2069                                         !
 ! D130  D(40,50,52,55)        -57.5161                                         !
 ! D131  D(51,50,52,53)         47.2596                                         !
 ! D132  D(51,50,52,54)        -67.267                                          !
 ! D133  D(51,50,52,55)        164.01                                           !
 ! D134  D(50,52,54,58)        155.1097                                         !
 ! D135  D(50,52,54,74)        -24.3611                                         !
 ! D136  D(53,52,54,58)         41.366                                          !
 ! D137  D(53,52,54,74)       -138.1048                                         !
 ! D138  D(55,52,54,58)        -77.5226                                         !
 ! D139  D(55,52,54,74)        103.0066                                         !
 ! D140  D(50,52,55,56)        -36.7284                                         !
 ! D141  D(50,52,55,57)         77.1617                                         !
 ! D142  D(50,52,55,59)       -156.257                                          !
 ! D143  D(53,52,55,56)         78.7988                                         !
 ! D144  D(53,52,55,57)       -167.3111                                         !
 ! D145  D(53,52,55,59)        -40.7298                                         !
 ! D146  D(54,52,55,56)       -162.7691                                         !
 ! D147  D(54,52,55,57)        -48.879                                          !
 ! D148  D(54,52,55,59)         77.7023                                         !
 ! D149  D(52,55,59,60)         39.0712                                         !
 ! D150  D(52,55,59,61)        154.9161                                         !
 ! D151  D(52,55,59,62)        -83.1406                                         !
 ! D152  D(56,55,59,60)        -79.6761                                         !
 ! D153  D(56,55,59,61)         36.1688                                         !
 ! D154  D(56,55,59,62)        158.1121                                         !
 ! D155  D(57,55,59,60)        164.7826                                         !
 ! D156  D(57,55,59,61)        -79.3725                                         !
 ! D157  D(57,55,59,62)         42.5707                                         !
 ! D158  D(55,59,62,63)        -82.5657                                         !
 ! D159  D(55,59,62,64)         36.9971                                         !
 ! D160  D(55,59,62,65)        158.1893                                         !
 ! D161  D(60,59,62,63)        154.9792                                         !
 ! D162  D(60,59,62,64)        -85.4581                                         !
 ! D163  D(60,59,62,65)         35.7342                                         !
 ! D164  D(61,59,62,63)         39.9234                                         !
 ! D165  D(61,59,62,64)        159.4862                                         !
 ! D166  D(61,59,62,65)        -79.3215                                         !
 ! D167  D(59,62,65,66)         84.4851                                         !
 ! D168  D(59,62,65,73)        -73.7788                                         !
 ! D169  D(63,62,65,66)        -37.3628                                         !
 ! D170  D(63,62,65,73)        164.3732                                         !
 ! D171  D(64,62,65,66)       -152.347                                          !
 ! D172  D(64,62,65,73)         49.389                                          !
 ! D173  D(62,65,73,67)         -7.7245                                         !
 ! D174  D(62,65,73,70)        170.2411                                         !
 ! D175  D(66,65,73,67)       -166.1157                                         !
 ! D176  D(66,65,73,70)         11.8499                                         !
 ! D177  D(68,67,73,65)       -172.512                                          !
 ! D178  D(68,67,73,70)          9.5822                                         !
 ! D179  D(69,67,73,65)         -6.8155                                         !
 ! D180  D(69,67,73,70)        175.2787                                         !
 ! D181  D(71,70,73,65)        167.9188                                         !
 ! D182  D(71,70,73,67)        -14.1113                                         !
 ! D183  D(72,70,73,65)         18.9734                                         !
 ! D184  D(72,70,73,67)       -163.0567                                         !
 --------------------------------------------------------------------------------
 Symmetry turned off by external request.
 Stoichiometry    C23H36N9O7(1+)
 Framework group  C1[X(C23H36N9O7)]
 Deg. of freedom   219
 Full point group                 C1      NOp   1
                          Input orientation:                          
 ---------------------------------------------------------------------
 Center     Atomic      Atomic             Coordinates (Angstroms)
 Number     Number       Type             X           Y           Z
 ---------------------------------------------------------------------
      1          7           0       -4.213250   -1.231629    3.927891
      2          1           0       -5.068610   -1.443333    3.416618
      3          1           0       -3.510391   -1.932494    3.647158
      4          6           0       -3.696213    0.085694    3.517432
      5          1           0       -4.470623    0.839775    3.705809
      6          6           0       -3.320566    0.077945    2.013348
      7          6           0       -2.440746    0.400719    4.374041
      8          1           0       -1.666961   -0.344409    4.123275
      9          1           0       -2.030980    1.391778    4.169776
     10          8           0       -3.465988   -0.960786    1.373465
     11          6           0       -2.663715    0.290853    5.850314
     12          7           0       -3.567404   -0.514040    6.319971
     13          1           0       -4.100373   -1.040416    5.512335
     14          1           0       -3.729882   -0.650625    7.313152
     15          8           0       -1.861498    1.033129    6.585972
     16          7           0       -2.778922    1.210037    1.504067
     17          1           0       -2.650894    2.017554    2.100403
     18          6           0       -2.033710    1.200986    0.231281
     19          1           0       -2.494345    0.439558   -0.401312
     20          6           0       -0.590878    0.712953    0.486289
     21          6           0       -2.086796    2.546487   -0.489718
     22          1           0       -1.795549    3.356214    0.192444
     23          1           0       -1.315107    2.515293   -1.265321
     24          8           0        0.412672    1.370753    0.231094
     25          6           0       -3.446212    2.796551   -1.103559
     26          6           0       -3.866744    2.007173   -2.185743
     27          1           0       -3.201483    1.240004   -2.580046
     28          6           0       -4.307087    3.779019   -0.606120
     29          1           0       -3.985338    4.403925    0.225234
     30          6           0       -5.126442    2.201300   -2.750210
     31          1           0       -5.440686    1.584892   -3.588300
     32          6           0       -5.568924    3.976175   -1.173283
     33          1           0       -6.224885    4.748342   -0.779619
     34          6           0       -5.981977    3.185611   -2.245891
     35          1           0       -6.962169    3.337224   -2.689859
     36          7           0       -0.566151   -0.531165    1.053831
     37          1           0       -1.397173   -1.079091    0.843278
     38          6           0        0.654919   -1.323023    1.149143
     39          1           0        1.476982   -0.627080    1.336529
     40          6           0        0.865444   -2.016275   -0.222954
     41          6           0        0.539900   -2.317007    2.330664
     42          1           0        0.863639   -1.829473    3.251954
     43          1           0        1.187199   -3.178422    2.138911
     44          8           0        0.535600   -3.191913   -0.400962
     45          6           0       -0.900021   -2.779270    2.566476
     46          7           0       -1.412499   -3.571291    1.610484
     47          1           0       -2.403619   -3.773444    1.623064
     48          1           0       -0.863938   -3.732087    0.761197
     49          8           0       -1.548687   -2.395325    3.556783
     50          7           0        1.394427   -1.198926   -1.175140
     51          1           0        1.478531   -0.237239   -0.856247
     52          6           0        1.018306   -1.267750   -2.595979
     53          1           0        1.685751   -0.564028   -3.109778
     54          6           0       -0.439683   -0.723057   -2.782784
     55          6           0        1.266649   -2.669336   -3.200190
     56          1           0        2.183810   -3.049319   -2.742764
     57          1           0        0.475398   -3.356259   -2.884142
     58          8           0       -0.729005   -0.264211   -3.933909
     59          6           0        1.453760   -2.686603   -4.729566
     60          1           0        2.044000   -1.811263   -5.029936
     61          1           0        2.043349   -3.566425   -5.013897
     62          6           0        0.143025   -2.699136   -5.537838
     63          1           0       -0.259573   -3.711499   -5.621020
     64          1           0       -0.623898   -2.084903   -5.064946
     65          7           0        0.338149   -2.206581   -6.913915
     66          1           0        0.659832   -2.872406   -7.603556
     67          7           0        0.396664    0.022360   -6.264253
     68          1           0        0.434221    0.992913   -6.546716
     69          1           0        0.035845   -0.150290   -5.252901
     70          7           0        0.897874   -0.575007   -8.465658
     71          1           0        0.865254    0.394214   -8.747406
     72          1           0        0.744405   -1.237771   -9.212558
     73          6           0        0.526798   -0.905455   -7.197055
     74          8           0       -1.203888   -0.764939   -1.805459
     75          1           0       -1.972234    0.892589    7.545294
 ---------------------------------------------------------------------
 Rotational constants (GHZ):           0.1289497           0.0563742           0.0434926
 Standard basis: 6-31G(d) (6D, 7F)
   657 basis functions,  1236 primitive gaussians,   657 cartesian basis functions
   146 alpha electrons      146 beta electrons
       nuclear repulsion energy      4814.5465456789 Hartrees.
 NAtoms=   75 NActive=   75 NUniq=   75 SFac= 1.00D+00 NAtFMM=   60 NAOKFM=T Big=T
 Integral buffers will be    131072 words long.
 Raffenetti 2 integral format.
 Two-electron integral symmetry is turned off.
 Nuclear repulsion after empirical dispersion term =     4814.4404130971 Hartrees.
 One-electron integrals computed using PRISM.
 NBasis=   657 RedAO= T EigKep=  4.60D-04  NBF=   657
 NBsUse=   657 1.00D-06 EigRej= -1.00D+00 NBFU=   657
 Initial guess from the checkpoint file:  "conf-950.chk"
 B after Tr=     0.000000    0.000000    0.000000
         Rot=    1.000000    0.000000    0.000000    0.000000 Ang=   0.00 deg.
 Requested convergence on RMS density matrix=1.00D-08 within 128 cycles.
 Requested convergence on MAX density matrix=1.00D-06.
 Requested convergence on             energy=1.00D-06.
 No special actions if energy rises.
 SCF Done:  E(RB3LYP) =  -1917.45001174     A.U. after    1 cycles
            NFock=  1  Conv=0.27D-08     -V/T= 2.0094

 **********************************************************************

            Population analysis using the SCF Density.

 **********************************************************************

 Alpha  occ. eigenvalues --  -19.36949 -19.21083 -19.20002 -19.19174 -19.18683
 Alpha  occ. eigenvalues --  -19.15013 -19.13991 -14.52155 -14.48020 -14.47517
 Alpha  occ. eigenvalues --  -14.45490 -14.44989 -14.44710 -14.42326 -14.42189
 Alpha  occ. eigenvalues --  -14.41294 -10.48122 -10.43371 -10.38379 -10.36992
 Alpha  occ. eigenvalues --  -10.35651 -10.35359 -10.35296 -10.33357 -10.32362
 Alpha  occ. eigenvalues --  -10.30870 -10.30283 -10.29683 -10.28131 -10.27036
 Alpha  occ. eigenvalues --  -10.26097 -10.25002 -10.24718 -10.24451 -10.23765
 Alpha  occ. eigenvalues --  -10.23672 -10.23472 -10.23418 -10.23009  -1.26530
 Alpha  occ. eigenvalues --   -1.13255  -1.11894  -1.11082  -1.10727  -1.09844
 Alpha  occ. eigenvalues --   -1.09561  -1.07775  -1.01680  -1.01511  -1.01283
 Alpha  occ. eigenvalues --   -0.99989  -0.99581  -0.98730  -0.97977  -0.97286
 Alpha  occ. eigenvalues --   -0.91234  -0.90248  -0.86704  -0.85989  -0.84408
 Alpha  occ. eigenvalues --   -0.81659  -0.80939  -0.78968  -0.78702  -0.76349
 Alpha  occ. eigenvalues --   -0.75480  -0.74125  -0.74049  -0.72363  -0.70427
 Alpha  occ. eigenvalues --   -0.69223  -0.68968  -0.68217  -0.67513  -0.66212
 Alpha  occ. eigenvalues --   -0.65714  -0.65033  -0.64735  -0.63848  -0.63201
 Alpha  occ. eigenvalues --   -0.62612  -0.61353  -0.61017  -0.60900  -0.60747
 Alpha  occ. eigenvalues --   -0.59508  -0.59175  -0.58067  -0.57587  -0.56901
 Alpha  occ. eigenvalues --   -0.56117  -0.55806  -0.55399  -0.55214  -0.54761
 Alpha  occ. eigenvalues --   -0.54104  -0.53950  -0.53620  -0.52659  -0.52073
 Alpha  occ. eigenvalues --   -0.51311  -0.51020  -0.50561  -0.50082  -0.49677
 Alpha  occ. eigenvalues --   -0.49410  -0.49079  -0.48934  -0.48292  -0.48029
 Alpha  occ. eigenvalues --   -0.47118  -0.46719  -0.46655  -0.46422  -0.46243
 Alpha  occ. eigenvalues --   -0.45735  -0.45604  -0.45241  -0.44833  -0.44227
 Alpha  occ. eigenvalues --   -0.43510  -0.43309  -0.43233  -0.42240  -0.42046
 Alpha  occ. eigenvalues --   -0.41220  -0.40230  -0.39359  -0.39133  -0.38650
 Alpha  occ. eigenvalues --   -0.38465  -0.38011  -0.36336  -0.35773  -0.35102
 Alpha  occ. eigenvalues --   -0.34897  -0.34704  -0.33790  -0.33721  -0.31811
 Alpha  occ. eigenvalues --   -0.30567  -0.30099  -0.29557  -0.28828  -0.28712
 Alpha  occ. eigenvalues --   -0.27976
 Alpha virt. eigenvalues --   -0.15778  -0.09350  -0.08203  -0.07535  -0.06037
 Alpha virt. eigenvalues --   -0.05789  -0.05072  -0.04970  -0.04536  -0.04095
 Alpha virt. eigenvalues --   -0.03739  -0.01885  -0.00735  -0.00229  -0.00044
 Alpha virt. eigenvalues --    0.00231   0.01805   0.03339   0.03786   0.04204
 Alpha virt. eigenvalues --    0.04367   0.04550   0.04706   0.05307   0.05948
 Alpha virt. eigenvalues --    0.06530   0.06575   0.07659   0.07843   0.08157
 Alpha virt. eigenvalues --    0.08336   0.08693   0.09025   0.09161   0.09279
 Alpha virt. eigenvalues --    0.09811   0.10494   0.10970   0.11245   0.11528
 Alpha virt. eigenvalues --    0.11807   0.11993   0.12213   0.12425   0.13521
 Alpha virt. eigenvalues --    0.13967   0.14248   0.14529   0.14708   0.15149
 Alpha virt. eigenvalues --    0.15385   0.15657   0.16349   0.16591   0.17347
 Alpha virt. eigenvalues --    0.17647   0.18884   0.18956   0.19289   0.19464
 Alpha virt. eigenvalues --    0.20156   0.20609   0.21309   0.21687   0.23343
 Alpha virt. eigenvalues --    0.24312   0.25356   0.26107   0.26554   0.27469
 Alpha virt. eigenvalues --    0.28092   0.28804   0.29124   0.30170   0.30415
 Alpha virt. eigenvalues --    0.30508   0.32200   0.32289   0.33361   0.34085
 Alpha virt. eigenvalues --    0.35505   0.36148   0.37840   0.38531   0.39627
 Alpha virt. eigenvalues --    0.39986   0.41071   0.41763   0.42964   0.43417
 Alpha virt. eigenvalues --    0.44031   0.44168   0.44727   0.45623   0.46431
 Alpha virt. eigenvalues --    0.46624   0.46812   0.47361   0.47825   0.48004
 Alpha virt. eigenvalues --    0.48583   0.48995   0.49424   0.49878   0.50367
 Alpha virt. eigenvalues --    0.50628   0.50955   0.51597   0.51958   0.52311
 Alpha virt. eigenvalues --    0.52898   0.53258   0.53453   0.54141   0.54660
 Alpha virt. eigenvalues --    0.54787   0.54955   0.55328   0.55422   0.55741
 Alpha virt. eigenvalues --    0.55869   0.56090   0.56536   0.56985   0.57092
 Alpha virt. eigenvalues --    0.57291   0.57751   0.57886   0.58741   0.58826
 Alpha virt. eigenvalues --    0.59257   0.59638   0.60174   0.60454   0.60582
 Alpha virt. eigenvalues --    0.61055   0.61247   0.61917   0.62131   0.62544
 Alpha virt. eigenvalues --    0.63094   0.63479   0.64660   0.65451   0.65787
 Alpha virt. eigenvalues --    0.66696   0.67191   0.67485   0.68117   0.68374
 Alpha virt. eigenvalues --    0.69000   0.70082   0.70492   0.71479   0.72007
 Alpha virt. eigenvalues --    0.72926   0.73188   0.73846   0.74149   0.74585
 Alpha virt. eigenvalues --    0.74894   0.75355   0.75617   0.76136   0.76633
 Alpha virt. eigenvalues --    0.77138   0.77200   0.77904   0.78108   0.78420
 Alpha virt. eigenvalues --    0.78486   0.79232   0.79459   0.79945   0.80275
 Alpha virt. eigenvalues --    0.80734   0.80818   0.81064   0.81486   0.81929
 Alpha virt. eigenvalues --    0.82162   0.82560   0.82836   0.83476   0.83746
 Alpha virt. eigenvalues --    0.84399   0.84608   0.85120   0.85700   0.85969
 Alpha virt. eigenvalues --    0.86008   0.86709   0.87392   0.88439   0.88633
 Alpha virt. eigenvalues --    0.88859   0.89290   0.89758   0.89989   0.90929
 Alpha virt. eigenvalues --    0.91379   0.91468   0.92485   0.92784   0.92908
 Alpha virt. eigenvalues --    0.94400   0.94716   0.95272   0.96129   0.96696
 Alpha virt. eigenvalues --    0.96853   0.97688   0.98226   0.99298   0.99802
 Alpha virt. eigenvalues --    1.00423   1.01890   1.02382   1.04374   1.04452
 Alpha virt. eigenvalues --    1.05344   1.06281   1.06895   1.07489   1.07876
 Alpha virt. eigenvalues --    1.08617   1.09123   1.10814   1.11722   1.11894
 Alpha virt. eigenvalues --    1.13100   1.13788   1.14729   1.15505   1.16535
 Alpha virt. eigenvalues --    1.17201   1.17697   1.18169   1.19090   1.19549
 Alpha virt. eigenvalues --    1.20511   1.20868   1.21393   1.21991   1.22870
 Alpha virt. eigenvalues --    1.23317   1.24457   1.25012   1.25370   1.26148
 Alpha virt. eigenvalues --    1.26675   1.27996   1.29128   1.29257   1.30239
 Alpha virt. eigenvalues --    1.30917   1.31887   1.32577   1.33637   1.34334
 Alpha virt. eigenvalues --    1.35150   1.35510   1.36686   1.37028   1.38185
 Alpha virt. eigenvalues --    1.38297   1.39034   1.40123   1.40683   1.42146
 Alpha virt. eigenvalues --    1.42669   1.43018   1.43516   1.43739   1.44757
 Alpha virt. eigenvalues --    1.45798   1.46214   1.46918   1.47510   1.47930
 Alpha virt. eigenvalues --    1.48424   1.49140   1.49846   1.51311   1.52268
 Alpha virt. eigenvalues --    1.54377   1.54563   1.55245   1.55952   1.56361
 Alpha virt. eigenvalues --    1.57298   1.58344   1.58909   1.59652   1.60896
 Alpha virt. eigenvalues --    1.60941   1.62182   1.63214   1.63813   1.64268
 Alpha virt. eigenvalues --    1.65526   1.65735   1.66456   1.67513   1.68645
 Alpha virt. eigenvalues --    1.69034   1.69762   1.70350   1.71229   1.71342
 Alpha virt. eigenvalues --    1.72029   1.72509   1.73813   1.73947   1.74637
 Alpha virt. eigenvalues --    1.75404   1.75737   1.75878   1.77005   1.77578
 Alpha virt. eigenvalues --    1.78443   1.78921   1.79207   1.79317   1.79645
 Alpha virt. eigenvalues --    1.80234   1.81397   1.82192   1.82562   1.83012
 Alpha virt. eigenvalues --    1.83183   1.84239   1.84675   1.85563   1.85993
 Alpha virt. eigenvalues --    1.86583   1.87310   1.87552   1.87712   1.87980
 Alpha virt. eigenvalues --    1.88615   1.88935   1.89949   1.90361   1.90877
 Alpha virt. eigenvalues --    1.92111   1.92781   1.93150   1.93444   1.94656
 Alpha virt. eigenvalues --    1.95313   1.96082   1.96603   1.97475   1.98510
 Alpha virt. eigenvalues --    1.98943   1.99648   2.00353   2.00544   2.01104
 Alpha virt. eigenvalues --    2.01171   2.02533   2.03212   2.03432   2.04690
 Alpha virt. eigenvalues --    2.05112   2.05701   2.06233   2.07143   2.07764
 Alpha virt. eigenvalues --    2.09006   2.09584   2.10204   2.10720   2.11511
 Alpha virt. eigenvalues --    2.11831   2.12435   2.14133   2.16140   2.16248
 Alpha virt. eigenvalues --    2.17159   2.17883   2.19619   2.19929   2.20335
 Alpha virt. eigenvalues --    2.22092   2.22694   2.22945   2.24087   2.24496
 Alpha virt. eigenvalues --    2.25566   2.26388   2.26834   2.27122   2.27627
 Alpha virt. eigenvalues --    2.29038   2.29613   2.30251   2.31885   2.32689
 Alpha virt. eigenvalues --    2.32991   2.33466   2.34454   2.35225   2.36551
 Alpha virt. eigenvalues --    2.37386   2.37996   2.38429   2.39191   2.40152
 Alpha virt. eigenvalues --    2.41181   2.41545   2.42250   2.43831   2.45394
 Alpha virt. eigenvalues --    2.45776   2.46599   2.46869   2.48554   2.49105
 Alpha virt. eigenvalues --    2.51437   2.51745   2.52311   2.52396   2.53047
 Alpha virt. eigenvalues --    2.54160   2.54522   2.55365   2.56617   2.57069
 Alpha virt. eigenvalues --    2.57676   2.60442   2.60646   2.61053   2.61969
 Alpha virt. eigenvalues --    2.62874   2.63515   2.63691   2.65693   2.67549
 Alpha virt. eigenvalues --    2.68242   2.69375   2.70003   2.70620   2.71995
 Alpha virt. eigenvalues --    2.72589   2.72717   2.74716   2.75589   2.77276
 Alpha virt. eigenvalues --    2.79633   2.81160   2.83932   2.86219   2.88098
 Alpha virt. eigenvalues --    2.90187   2.90486   2.92314   2.93325   2.94690
 Alpha virt. eigenvalues --    2.94969   2.96518   2.99638   3.00273   3.01041
 Alpha virt. eigenvalues --    3.01449   3.02316   3.07491   3.08127   3.09897
 Alpha virt. eigenvalues --    3.12563   3.36411   3.69117   3.70040   3.79466
 Alpha virt. eigenvalues --    3.82015   3.83107   3.83536   3.89371   3.93167
 Alpha virt. eigenvalues --    3.95331   4.00237   4.03675   4.04648   4.06074
 Alpha virt. eigenvalues --    4.07871   4.09376   4.09969   4.10894   4.12044
 Alpha virt. eigenvalues --    4.14520   4.16129   4.17904   4.23011   4.24326
 Alpha virt. eigenvalues --    4.28878   4.29325   4.33967   4.35193   4.36994
 Alpha virt. eigenvalues --    4.39018   4.42682   4.46038   4.48901   4.50090
 Alpha virt. eigenvalues --    4.54819   4.57191   4.60007   4.62502   4.64798
 Alpha virt. eigenvalues --    4.66872
          Condensed to atoms (all electrons):
 Mulliken charges:
               1
     1  N   -0.793798
     2  H    0.352498
     3  H    0.383127
     4  C   -0.097661
     5  H    0.183834
     6  C    0.640763
     7  C   -0.382088
     8  H    0.278852
     9  H    0.199358
    10  O   -0.523830
    11  C    0.622794
    12  N   -0.701028
    13  H    0.445845
    14  H    0.366865
    15  O   -0.522365
    16  N   -0.591802
    17  H    0.327426
    18  C   -0.096259
    19  H    0.258229
    20  C    0.643879
    21  C   -0.377654
    22  H    0.138823
    23  H    0.195090
    24  O   -0.536778
    25  C    0.170792
    26  C   -0.195920
    27  H    0.177347
    28  C   -0.192426
    29  H    0.108528
    30  C   -0.134360
    31  H    0.134216
    32  C   -0.130837
    33  H    0.130352
    34  C   -0.129551
    35  H    0.133146
    36  N   -0.622715
    37  H    0.388092
    38  C   -0.095414
    39  H    0.187730
    40  C    0.644835
    41  C   -0.349640
    42  H    0.163905
    43  H    0.193167
    44  O   -0.548343
    45  C    0.566600
    46  N   -0.725698
    47  H    0.347090
    48  H    0.400925
    49  O   -0.563113
    50  N   -0.593700
    51  H    0.359104
    52  C   -0.070128
    53  H    0.140311
    54  C    0.611268
    55  C   -0.269809
    56  H    0.162772
    57  H    0.176161
    58  O   -0.621915
    59  C   -0.279779
    60  H    0.148045
    61  H    0.147979
    62  C   -0.196119
    63  H    0.172184
    64  H    0.227875
    65  N   -0.590478
    66  H    0.347218
    67  N   -0.785061
    68  H    0.348065
    69  H    0.455127
    70  N   -0.764352
    71  H    0.365011
    72  H    0.363867
    73  C    0.789392
    74  O   -0.560874
    75  H    0.445007
 Sum of Mulliken charges =   1.00000
 Mulliken charges with hydrogens summed into heavy atoms:
               1
     1  N   -0.058173
     4  C    0.086173
     6  C    0.640763
     7  C    0.096121
    10  O   -0.523830
    11  C    0.622794
    12  N    0.111683
    15  O   -0.077358
    16  N   -0.264375
    18  C    0.161970
    20  C    0.643879
    21  C   -0.043741
    24  O   -0.536778
    25  C    0.170792
    26  C   -0.018573
    28  C   -0.083899
    30  C   -0.000144
    32  C   -0.000485
    34  C    0.003595
    36  N   -0.234623
    38  C    0.092316
    40  C    0.644835
    41  C    0.007433
    44  O   -0.548343
    45  C    0.566600
    46  N    0.022317
    49  O   -0.563113
    50  N   -0.234596
    52  C    0.070183
    54  C    0.611268
    55  C    0.069124
    58  O   -0.621915
    59  C    0.016245
    62  C    0.203940
    65  N   -0.243260
    67  N    0.018131
    70  N   -0.035475
    73  C    0.789392
    74  O   -0.560874
 Electronic spatial extent (au):  <R**2>=          26490.9543
 Charge=              1.0000 electrons
 Dipole moment (field-independent basis, Debye):
    X=             -7.4769    Y=             -1.7640    Z=              2.1933  Tot=              7.9891
 Quadrupole moment (field-independent basis, Debye-Ang):
   XX=           -183.3906   YY=           -207.3179   ZZ=             78.4073
   XY=             -6.2144   XZ=            -81.6826   YZ=             27.8431
 Traceless Quadrupole moment (field-independent basis, Debye-Ang):
   XX=            -79.2902   YY=           -103.2175   ZZ=            182.5077
   XY=             -6.2144   XZ=            -81.6826   YZ=             27.8431
 Octapole moment (field-independent basis, Debye-Ang**2):
  XXX=            781.0225  YYY=            144.2332  ZZZ=           -158.3359  XYY=            288.9583
  XXY=             66.9691  XXZ=            331.0483  XZZ=             34.7125  YZZ=            -80.2612
  YYZ=             25.6683  XYZ=              9.4281
 Hexadecapole moment (field-independent basis, Debye-Ang**3):
 XXXX=          -8225.0383 YYYY=          -5551.6706 ZZZZ=            830.9536 XXXY=           1570.2949
 XXXZ=           1022.4907 YYYX=           1681.6793 YYYZ=            -41.6157 ZZZX=          -2145.0808
 ZZZY=           1182.9027 XXYY=          -2250.1919 XXZZ=          -3364.5870 YYZZ=          -3358.8749
 XXYZ=           -259.8472 YYXZ=            385.1529 ZZXY=            447.0640
 N-N= 4.814440413097D+03 E-N=-1.407686391751D+04  KE= 1.899648910745D+03
 Unable to Open any file for archive entry.
 1\1\GINC-AMR-064\SP\RB3LYP\6-31G(d)\C23H36N9O7(1+)\KENGMITH\31-May-202
 2\0\\# B3LYP/6-31G* empiricaldispersion=gd3 guess=read geom=check nosy
 mm integral(ultrafinegrid)\\Candidate Structure: Conf:950 Charge calc 
 in gas phase\\1,1\N,0,-4.2132504584,-1.231629185,3.9278909153\H,0,-5.0
 686098062,-1.4433330275,3.4166184308\H,0,-3.5103908031,-1.9324942636,3
 .6471576502\C,0,-3.6962128489,0.0856938545,3.5174320038\H,0,-4.4706230
 422,0.8397748318,3.705808767\C,0,-3.3205663785,0.077944903,2.013347841
 8\C,0,-2.4407463425,0.4007191481,4.3740411183\H,0,-1.666961402,-0.3444
 088087,4.1232748443\H,0,-2.0309797768,1.3917780376,4.169776346\O,0,-3.
 4659877026,-0.9607863139,1.3734652205\C,0,-2.6637153005,0.2908534416,5
 .8503137519\N,0,-3.567404218,-0.5140404841,6.3199713598\H,0,-4.1003728
 358,-1.0404157426,5.5123345143\H,0,-3.7298823515,-0.6506250196,7.31315
 17789\O,0,-1.8614978319,1.0331293526,6.5859720958\N,0,-2.778922012,1.2
 100371695,1.5040665996\H,0,-2.6508936699,2.0175542432,2.1004026639\C,0
 ,-2.0337097849,1.2009861211,0.2312810253\H,0,-2.4943454811,0.439557660
 4,-0.4013119257\C,0,-0.5908780779,0.7129533243,0.486288891\C,0,-2.0867
 955815,2.5464872238,-0.4897178947\H,0,-1.7955489373,3.3562139427,0.192
 4439884\H,0,-1.315106872,2.5152933994,-1.2653212902\O,0,0.4126723586,1
 .3707532714,0.2310941324\C,0,-3.4462122098,2.7965511348,-1.1035588197\
 C,0,-3.8667441564,2.0071732883,-2.1857434479\H,0,-3.2014825272,1.24000
 3951,-2.5800457557\C,0,-4.3070868973,3.7790189248,-0.6061196959\H,0,-3
 .9853384501,4.4039250823,0.2252337433\C,0,-5.1264417802,2.2013002722,-
 2.7502099707\H,0,-5.4406857018,1.5848920458,-3.5882998565\C,0,-5.56892
 42406,3.976174643,-1.1732833579\H,0,-6.2248846631,4.7483423584,-0.7796
 18954\C,0,-5.9819767499,3.1856107083,-2.2458912663\H,0,-6.9621687448,3
 .3372238223,-2.6898587272\N,0,-0.5661510335,-0.5311648076,1.0538305156
 \H,0,-1.3971728409,-1.0790908983,0.8432781885\C,0,0.654918609,-1.32302
 31593,1.1491431137\H,0,1.4769817219,-0.6270802262,1.3365285764\C,0,0.8
 654444873,-2.0162749094,-0.2229543973\C,0,0.5398998403,-2.3170067826,2
 .3306638516\H,0,0.8636392279,-1.8294734809,3.2519540706\H,0,1.18719866
 34,-3.1784216319,2.1389114642\O,0,0.5355996659,-3.1919130264,-0.400962
 109\C,0,-0.9000211027,-2.7792697061,2.5664764896\N,0,-1.4124986154,-3.
 5712912888,1.6104843318\H,0,-2.4036192342,-3.7734437293,1.6230644906\H
 ,0,-0.8639379897,-3.7320868385,0.7611972753\O,0,-1.548686796,-2.395324
 7029,3.5567832537\N,0,1.3944270015,-1.1989259437,-1.1751403755\H,0,1.4
 785314624,-0.23723906,-0.8562470505\C,0,1.0183064242,-1.2677502193,-2.
 5959786053\H,0,1.6857507933,-0.5640281471,-3.1097780814\C,0,-0.4396828
 145,-0.7230570774,-2.7827836063\C,0,1.2666489772,-2.6693361472,-3.2001
 900706\H,0,2.1838099197,-3.0493191856,-2.742764319\H,0,0.4753981386,-3
 .3562585631,-2.8841424362\O,0,-0.7290047668,-0.2642111251,-3.933909003
 4\C,0,1.4537595597,-2.6866027386,-4.7295656076\H,0,2.0440004413,-1.811
 2625019,-5.0299364058\H,0,2.0433489665,-3.5664247888,-5.0138970411\C,0
 ,0.143024589,-2.6991355547,-5.5378376924\H,0,-0.2595731021,-3.71149902
 08,-5.6210195022\H,0,-0.6238977095,-2.0849031416,-5.0649455985\N,0,0.3
 381493603,-2.2065805224,-6.9139154074\H,0,0.6598316688,-2.8724061469,-
 7.6035555928\N,0,0.3966644058,0.0223596192,-6.2642527295\H,0,0.4342208
 41,0.9929126568,-6.5467156879\H,0,0.0358446358,-0.1502903244,-5.252901
 0449\N,0,0.8978739957,-0.5750074741,-8.4656580866\H,0,0.8652539029,0.3
 942140026,-8.7474063302\H,0,0.744405484,-1.2377711586,-9.2125580218\C,
 0,0.5267977923,-0.9054552609,-7.1970554254\O,0,-1.2038884696,-0.764939
 2809,-1.8054590103\H,0,-1.972233633,0.8925888713,7.5452942572\\Version
 =ES64L-G16RevC.01\HF=-1917.4500117\RMSD=2.709e-09\Dipole=-0.2362798,-0
 .09786,1.6810868\Quadrupole=-58.950337,-76.7396613,135.6899983,-4.6202
 805,-60.7290075,20.7006735\PG=C01 [X(C23H36N9O7)]\\@
 The archive entry for this job was punched.


 "PERFECTION IS NOT AN ACCIDENT"
         --  EAGLE ELECTRIC MANUFACTURING CO.,INC. NY
 Job cpu time:       0 days  0 hours  1 minutes 32.5 seconds.
 Elapsed time:       0 days  0 hours  0 minutes 23.7 seconds.
 File lengths (MBytes):  RWF=    344 Int=      0 D2E=      0 Chk=     48 Scr=     16
 Normal termination of Gaussian 16 at Tue May 31 12:47:28 2022.
