 Entering Gaussian System, Link 0=/opt/software/Gaussian/g16-AVX2-C.01/g16/g16
 Input=charge-conf-304.com
 Output=charge-conf-304.log
 Initial command:
 /opt/software/Gaussian/g16-AVX2-C.01/g16/l1.exe "/mnt/gs18/scratch/users/kengmith/Gau-98548.inp" -scrdir="/mnt/gs18/scratch/users/kengmith/"
 Entering Link 1 = /opt/software/Gaussian/g16-AVX2-C.01/g16/l1.exe PID=     98559.
  
 Copyright (c) 1988-2019, Gaussian, Inc.  All Rights Reserved.
  
 This is part of the Gaussian(R) 16 program.  It is based on
 the Gaussian(R) 09 system (copyright 2009, Gaussian, Inc.),
 the Gaussian(R) 03 system (copyright 2003, Gaussian, Inc.),
 the Gaussian(R) 98 system (copyright 1998, Gaussian, Inc.),
 the Gaussian(R) 94 system (copyright 1995, Gaussian, Inc.),
 the Gaussian 92(TM) system (copyright 1992, Gaussian, Inc.),
 the Gaussian 90(TM) system (copyright 1990, Gaussian, Inc.),
 the Gaussian 88(TM) system (copyright 1988, Gaussian, Inc.),
 the Gaussian 86(TM) system (copyright 1986, Carnegie Mellon
 University), and the Gaussian 82(TM) system (copyright 1983,
 Carnegie Mellon University). Gaussian is a federally registered
 trademark of Gaussian, Inc.
  
 This software contains proprietary and confidential information,
 including trade secrets, belonging to Gaussian, Inc.
  
 This software is provided under written license and may be
 used, copied, transmitted, or stored only in accord with that
 written license.
  
 The following legend is applicable only to US Government
 contracts under FAR:
  
                    RESTRICTED RIGHTS LEGEND
  
 Use, reproduction and disclosure by the US Government is
 subject to restrictions as set forth in subparagraphs (a)
 and (c) of the Commercial Computer Software - Restricted
 Rights clause in FAR 52.227-19.
  
 Gaussian, Inc.
 340 Quinnipiac St., Bldg. 40, Wallingford CT 06492
  
  
 ---------------------------------------------------------------
 Warning -- This program may not be used in any manner that
 competes with the business of Gaussian, Inc. or will provide
 assistance to any competitor of Gaussian, Inc.  The licensee
 of this program is prohibited from giving any competitor of
 Gaussian, Inc. access to this program.  By using this program,
 the user acknowledges that Gaussian, Inc. is engaged in the
 business of creating and licensing software in the field of
 computational chemistry and represents and warrants to the
 licensee that it is not a competitor of Gaussian, Inc. and that
 it will not use this program in any manner prohibited above.
 ---------------------------------------------------------------
  

 Cite this work as:
 Gaussian 16, Revision C.01,
 M. J. Frisch, G. W. Trucks, H. B. Schlegel, G. E. Scuseria, 
 M. A. Robb, J. R. Cheeseman, G. Scalmani, V. Barone, 
 G. A. Petersson, H. Nakatsuji, X. Li, M. Caricato, A. V. Marenich, 
 J. Bloino, B. G. Janesko, R. Gomperts, B. Mennucci, H. P. Hratchian, 
 J. V. Ortiz, A. F. Izmaylov, J. L. Sonnenberg, D. Williams-Young, 
 F. Ding, F. Lipparini, F. Egidi, J. Goings, B. Peng, A. Petrone, 
 T. Henderson, D. Ranasinghe, V. G. Zakrzewski, J. Gao, N. Rega, 
 G. Zheng, W. Liang, M. Hada, M. Ehara, K. Toyota, R. Fukuda, 
 J. Hasegawa, M. Ishida, T. Nakajima, Y. Honda, O. Kitao, H. Nakai, 
 T. Vreven, K. Throssell, J. A. Montgomery, Jr., J. E. Peralta, 
 F. Ogliaro, M. J. Bearpark, J. J. Heyd, E. N. Brothers, K. N. Kudin, 
 V. N. Staroverov, T. A. Keith, R. Kobayashi, J. Normand, 
 K. Raghavachari, A. P. Rendell, J. C. Burant, S. S. Iyengar, 
 J. Tomasi, M. Cossi, J. M. Millam, M. Klene, C. Adamo, R. Cammi, 
 J. W. Ochterski, R. L. Martin, K. Morokuma, O. Farkas, 
 J. B. Foresman, and D. J. Fox, Gaussian, Inc., Wallingford CT, 2019.
 
 ******************************************
 Gaussian 16:  ES64L-G16RevC.01  3-Jul-2019
                31-May-2022 
 ******************************************
 %mem=8gb
 %nproc=4
 Will use up to    4 processors via shared memory.
 %chk=conf-304.chk
 ----------------------------------------------------------------------
 # B3LYP/6-31G* empiricaldispersion=gd3 guess=read geom=check nosymm in
 tegral(ultrafinegrid)
 ----------------------------------------------------------------------
 1/29=2,38=1,172=1/1;
 2/12=2,15=1,40=1/2;
 3/5=1,6=6,7=1,11=2,14=-4,25=1,30=1,74=-5,75=-5,116=-2,124=31/1,2,3;
 4/5=1/1;
 5/5=2,38=6/2;
 6/7=2,8=2,9=2,10=2,28=1/1;
 99/5=1,9=1/99;
 ------------------------------------------------------
 Candidate Structure: Conf:304 Charge calc in gas phase
 ------------------------------------------------------
 Structure from the checkpoint file:  "conf-304.chk"
 Charge =  1 Multiplicity = 1
 Redundant internal coordinates found in file.  (old form).
 N,0,-4.0572231103,-1.0000582591,4.5630380605
 H,0,-4.2002772915,-1.6334531644,3.7445480556
 H,0,-3.1464990039,-1.2741905935,5.0349157373
 H,0,-4.8412211252,-1.0463495103,5.216234909
 C,0,-3.8386245151,0.3654517803,3.9609293922
 H,0,-4.762970354,0.9418722344,4.0531559215
 C,0,-3.5414492659,0.0760449912,2.4617556639
 C,0,-2.6670682102,1.076736808,4.6708524497
 H,0,-2.4971322179,2.0589542895,4.2247880192
 H,0,-2.9199237211,1.2433048451,5.7233347519
 O,0,-3.6726235721,-1.0729273646,2.0419133166
 C,0,-1.4257434443,0.1840828736,4.6325023718
 N,0,-0.3485353867,0.6388408166,3.9838888882
 H,0,0.4542435822,0.0227815358,3.930712427
 H,0,-0.3944859532,1.4266059261,3.3350233532
 O,0,-1.4858806346,-0.9272410241,5.1880556728
 N,0,-3.1285531812,1.1336723741,1.7544246209
 H,0,-2.9171249331,1.9987236666,2.2363053972
 C,0,-2.4944296879,1.0402354205,0.4466736744
 H,0,-2.3523045791,-0.0226689046,0.2295799692
 C,0,-1.1222354067,1.7381647954,0.5886325759
 C,0,-3.3812351869,1.6737390046,-0.6563850251
 H,0,-3.4476777554,2.7534097758,-0.4766304986
 H,0,-2.8803200705,1.5443919662,-1.6226735776
 O,0,-0.8098960812,2.3157128093,1.6460085031
 C,0,-4.757945831,1.0495017297,-0.6790250461
 C,0,-4.9542196472,-0.2118976911,-1.2550566551
 H,0,-4.1192653124,-0.7225775151,-1.7304071233
 C,0,-5.8442214276,1.6931577453,-0.0750996131
 H,0,-5.706299102,2.6784438753,0.3652585368
 C,0,-6.2101660875,-0.8169859817,-1.2304897254
 H,0,-6.3487089547,-1.7921775962,-1.6884144941
 C,0,-7.1041154297,1.091718357,-0.0503003201
 H,0,-7.9420319361,1.6103860279,0.4077064556
 C,0,-7.2888725595,-0.1661232314,-0.6267375655
 H,0,-8.2697261279,-0.6328285594,-0.6154332949
 N,0,-0.3361748569,1.6961076172,-0.4873906161
 H,0,-0.6161077234,1.2380239603,-1.3538295818
 C,0,0.9523938448,2.3644160401,-0.5858274355
 H,0,0.8968938235,3.3481005016,-0.1125854723
 C,0,1.2542779666,2.4632592485,-2.0930863902
 C,0,2.065920072,1.5415402867,0.1079147692
 H,0,2.1653425387,0.5723679784,-0.3898372701
 H,0,1.7486053895,1.3659760697,1.1428720956
 O,0,0.6872869686,1.7217318657,-2.8931946485
 C,0,3.4078124341,2.2820640771,0.157752519
 N,0,4.5115118098,1.4999842044,0.1808536214
 H,0,5.4182157749,1.9614964959,0.0615636318
 H,0,4.4444314162,0.583060144,-0.2408411331
 O,0,3.4517090354,3.5146176002,0.2279813266
 N,0,2.2358433365,3.3371313711,-2.4092288521
 H,0,2.6680101499,3.8035104495,-1.6149368078
 C,0,3.110424538,3.1229336705,-3.5590484648
 H,0,2.6100989305,3.3962082558,-4.4915698511
 C,0,3.5096176236,1.6428028673,-3.6329434487
 C,0,4.3708693547,3.9820464523,-3.3101251904
 H,0,4.0633636511,5.0359585523,-3.31519144
 H,0,4.6879387502,3.7476619107,-2.2871019178
 O,0,3.6794307113,0.9219604843,-2.671409239
 C,0,5.5588031529,3.7590957494,-4.2483645552
 H,0,5.7252416052,2.6935843545,-4.4128247866
 H,0,5.3765238822,4.216346859,-5.2283699344
 C,0,6.8615678726,4.3378355527,-3.6590495528
 H,0,7.702098617,4.0349475145,-4.2892025145
 H,0,6.8325803353,5.432866161,-3.6446425073
 N,0,7.1535995056,3.91495743,-2.2876501871
 H,0,6.6995374426,4.4550694053,-1.5623429833
 N,0,7.3960197251,2.3550792605,-0.577486433
 H,0,7.8502947983,1.4742419819,-0.3545103913
 H,0,7.8623101426,3.1035354505,-0.0686505153
 N,0,7.4471838358,1.692643351,-2.8998740521
 H,0,7.6934897335,0.7806272339,-2.5146217027
 C,0,7.3534460902,2.5833131738,-1.9825750633
 O,0,3.7095486873,1.2538145518,-4.9014124253
 H,0,4.039616736,0.3352757035,-4.8767018041
 Recover connectivity data from disk.
                           ----------------------------
                           !    Current Parameters    !
                           ! (Angstroms and Degrees)  !
 --------------------------                            --------------------------
 ! Name  Definition              Value                                          !
 --------------------------------------------------------------------------------
 ! R1    R(1,2)                  1.0448                                         !
 ! R2    R(1,3)                  1.0617                                         !
 ! R3    R(1,4)                  1.0215                                         !
 ! R4    R(1,5)                  1.5083                                         !
 ! R5    R(5,6)                  1.0932                                         !
 ! R6    R(5,7)                  1.5555                                         !
 ! R7    R(5,8)                  1.5435                                         !
 ! R8    R(7,11)                 1.2303                                         !
 ! R9    R(7,17)                 1.3377                                         !
 ! R10   R(8,9)                  1.0921                                         !
 ! R11   R(8,10)                 1.0952                                         !
 ! R12   R(8,12)                 1.5294                                         !
 ! R13   R(12,13)                1.3371                                         !
 ! R14   R(12,16)                1.2439                                         !
 ! R15   R(13,14)                1.0133                                         !
 ! R16   R(13,15)                1.0216                                         !
 ! R17   R(17,18)                1.0125                                         !
 ! R18   R(17,19)                1.4564                                         !
 ! R19   R(19,20)                1.0941                                         !
 ! R20   R(19,21)                1.546                                          !
 ! R21   R(19,22)                1.5506                                         !
 ! R22   R(21,25)                1.2447                                         !
 ! R23   R(21,37)                1.3332                                         !
 ! R24   R(22,23)                1.0965                                         !
 ! R25   R(22,24)                1.0961                                         !
 ! R26   R(22,26)                1.5118                                         !
 ! R27   R(26,27)                1.4005                                         !
 ! R28   R(26,29)                1.3996                                         !
 ! R29   R(27,28)                1.0881                                         !
 ! R30   R(27,31)                1.3943                                         !
 ! R31   R(29,30)                1.088                                          !
 ! R32   R(29,33)                1.3963                                         !
 ! R33   R(31,32)                1.0862                                         !
 ! R34   R(31,35)                1.397                                          !
 ! R35   R(33,34)                1.0867                                         !
 ! R36   R(33,35)                1.3959                                         !
 ! R37   R(35,36)                1.0863                                         !
 ! R38   R(37,38)                1.0193                                         !
 ! R39   R(37,39)                1.4549                                         !
 ! R40   R(39,40)                1.093                                          !
 ! R41   R(39,41)                1.5404                                         !
 ! R42   R(39,42)                1.5487                                         !
 ! R43   R(41,45)                1.2294                                         !
 ! R44   R(41,51)                1.3517                                         !
 ! R45   R(42,43)                1.094                                          !
 ! R46   R(42,44)                1.0967                                         !
 ! R47   R(42,46)                1.5335                                         !
 ! R48   R(46,47)                1.3529                                         !
 ! R49   R(46,50)                1.2353                                         !
 ! R50   R(47,48)                1.0244                                         !
 ! R51   R(47,49)                1.0115                                         !
 ! R52   R(51,52)                1.0174                                         !
 ! R53   R(51,53)                1.4604                                         !
 ! R54   R(53,54)                1.093                                          !
 ! R55   R(53,55)                1.5348                                         !
 ! R56   R(53,56)                1.5456                                         !
 ! R57   R(55,59)                1.2137                                         !
 ! R58   R(55,74)                1.3418                                         !
 ! R59   R(56,57)                1.0979                                         !
 ! R60   R(56,58)                1.0964                                         !
 ! R61   R(56,60)                1.5301                                         !
 ! R62   R(60,61)                1.0909                                         !
 ! R63   R(60,62)                1.0967                                         !
 ! R64   R(60,63)                1.5425                                         !
 ! R65   R(63,64)                1.0933                                         !
 ! R66   R(63,65)                1.0955                                         !
 ! R67   R(63,66)                1.4645                                         !
 ! R68   R(66,67)                1.0119                                         !
 ! R69   R(66,73)                1.3807                                         !
 ! R70   R(68,69)                1.0159                                         !
 ! R71   R(68,70)                1.0181                                         !
 ! R72   R(68,73)                1.4241                                         !
 ! R73   R(71,72)                1.0202                                         !
 ! R74   R(71,73)                1.282                                          !
 ! R75   R(74,75)                0.9764                                         !
 ! A1    A(2,1,3)              108.0051                                         !
 ! A2    A(2,1,4)              111.6161                                         !
 ! A3    A(2,1,5)              104.8307                                         !
 ! A4    A(3,1,4)              111.2505                                         !
 ! A5    A(3,1,5)              106.67                                           !
 ! A6    A(4,1,5)              114.0497                                         !
 ! A7    A(1,5,6)              108.7312                                         !
 ! A8    A(1,5,7)              104.1222                                         !
 ! A9    A(1,5,8)              110.0961                                         !
 ! A10   A(6,5,7)              109.9339                                         !
 ! A11   A(6,5,8)              111.0991                                         !
 ! A12   A(7,5,8)              112.5823                                         !
 ! A13   A(5,7,11)             118.8346                                         !
 ! A14   A(5,7,17)             114.929                                          !
 ! A15   A(11,7,17)            126.2174                                         !
 ! A16   A(5,8,9)              110.1642                                         !
 ! A17   A(5,8,10)             109.6853                                         !
 ! A18   A(5,8,12)             109.6056                                         !
 ! A19   A(9,8,10)             106.9581                                         !
 ! A20   A(9,8,12)             112.8551                                         !
 ! A21   A(10,8,12)            107.4729                                         !
 ! A22   A(8,12,13)            117.8734                                         !
 ! A23   A(8,12,16)            118.0994                                         !
 ! A24   A(13,12,16)           124.0178                                         !
 ! A25   A(12,13,14)           117.1886                                         !
 ! A26   A(12,13,15)           122.2835                                         !
 ! A27   A(14,13,15)           118.1056                                         !
 ! A28   A(7,17,18)            119.2278                                         !
 ! A29   A(7,17,19)            123.9509                                         !
 ! A30   A(18,17,19)           113.0316                                         !
 ! A31   A(17,19,20)           107.2808                                         !
 ! A32   A(17,19,21)           105.9644                                         !
 ! A33   A(17,19,22)           111.3176                                         !
 ! A34   A(20,19,21)           109.9672                                         !
 ! A35   A(20,19,22)           109.2706                                         !
 ! A36   A(21,19,22)           112.8601                                         !
 ! A37   A(19,21,25)           120.678                                          !
 ! A38   A(19,21,37)           115.7824                                         !
 ! A39   A(25,21,37)           123.5269                                         !
 ! A40   A(19,22,23)           108.6809                                         !
 ! A41   A(19,22,24)           108.5151                                         !
 ! A42   A(19,22,26)           111.2696                                         !
 ! A43   A(23,22,24)           106.7624                                         !
 ! A44   A(23,22,26)           110.722                                          !
 ! A45   A(24,22,26)           110.7473                                         !
 ! A46   A(22,26,27)           120.3762                                         !
 ! A47   A(22,26,29)           120.6913                                         !
 ! A48   A(27,26,29)           118.8743                                         !
 ! A49   A(26,27,28)           119.6608                                         !
 ! A50   A(26,27,31)           120.6535                                         !
 ! A51   A(28,27,31)           119.6851                                         !
 ! A52   A(26,29,30)           119.5191                                         !
 ! A53   A(26,29,33)           120.6548                                         !
 ! A54   A(30,29,33)           119.8195                                         !
 ! A55   A(27,31,32)           119.806                                          !
 ! A56   A(27,31,35)           120.0622                                         !
 ! A57   A(32,31,35)           120.1303                                         !
 ! A58   A(29,33,34)           119.8441                                         !
 ! A59   A(29,33,35)           120.0146                                         !
 ! A60   A(34,33,35)           120.1371                                         !
 ! A61   A(31,35,33)           119.74                                           !
 ! A62   A(31,35,36)           120.1012                                         !
 ! A63   A(33,35,36)           120.1556                                         !
 ! A64   A(21,37,38)           122.5691                                         !
 ! A65   A(21,37,39)           124.2153                                         !
 ! A66   A(38,37,39)           113.0895                                         !
 ! A67   A(37,39,40)           109.8244                                         !
 ! A68   A(37,39,41)           105.62                                           !
 ! A69   A(37,39,42)           111.2501                                         !
 ! A70   A(40,39,41)           112.0778                                         !
 ! A71   A(40,39,42)           108.7086                                         !
 ! A72   A(41,39,42)           109.3607                                         !
 ! A73   A(39,41,45)           120.512                                          !
 ! A74   A(39,41,51)           114.3722                                         !
 ! A75   A(45,41,51)           124.9331                                         !
 ! A76   A(39,42,43)           109.4045                                         !
 ! A77   A(39,42,44)           107.4442                                         !
 ! A78   A(39,42,46)           112.7782                                         !
 ! A79   A(43,42,44)           108.2911                                         !
 ! A80   A(43,42,46)           111.2877                                         !
 ! A81   A(44,42,46)           107.4478                                         !
 ! A82   A(42,46,47)           115.8032                                         !
 ! A83   A(42,46,50)           120.9816                                         !
 ! A84   A(47,46,50)           123.1489                                         !
 ! A85   A(46,47,48)           117.3654                                         !
 ! A86   A(46,47,49)           117.5691                                         !
 ! A87   A(48,47,49)           114.7443                                         !
 ! A88   A(41,51,52)           114.9741                                         !
 ! A89   A(41,51,53)           121.6139                                         !
 ! A90   A(52,51,53)           115.3092                                         !
 ! A91   A(51,53,54)           111.1572                                         !
 ! A92   A(51,53,55)           109.5791                                         !
 ! A93   A(51,53,56)           106.2632                                         !
 ! A94   A(54,53,55)           108.6089                                         !
 ! A95   A(54,53,56)           111.8236                                         !
 ! A96   A(55,53,56)           109.372                                          !
 ! A97   A(53,55,59)           124.822                                          !
 ! A98   A(53,55,74)           111.3373                                         !
 ! A99   A(59,55,74)           123.7758                                         !
 ! A100  A(53,56,57)           107.7242                                         !
 ! A101  A(53,56,58)           105.5035                                         !
 ! A102  A(53,56,60)           116.9623                                         !
 ! A103  A(57,56,58)           106.8896                                         !
 ! A104  A(57,56,60)           110.7631                                         !
 ! A105  A(58,56,60)           108.4506                                         !
 ! A106  A(56,60,61)           110.684                                          !
 ! A107  A(56,60,62)           110.9871                                         !
 ! A108  A(56,60,63)           111.5162                                         !
 ! A109  A(61,60,62)           107.3302                                         !
 ! A110  A(61,60,63)           107.1693                                         !
 ! A111  A(62,60,63)           108.9861                                         !
 ! A112  A(60,63,64)           108.9748                                         !
 ! A113  A(60,63,65)           110.959                                          !
 ! A114  A(60,63,66)           114.6971                                         !
 ! A115  A(64,63,65)           107.7485                                         !
 ! A116  A(64,63,66)           107.844                                          !
 ! A117  A(65,63,66)           106.3547                                         !
 ! A118  A(63,66,67)           115.315                                          !
 ! A119  A(63,66,73)           120.9482                                         !
 ! A120  A(67,66,73)           114.921                                          !
 ! A121  A(69,68,70)           108.8401                                         !
 ! A122  A(69,68,73)           111.6471                                         !
 ! A123  A(70,68,73)           112.891                                          !
 ! A124  A(72,71,73)           111.6246                                         !
 ! A125  A(66,73,68)           112.1417                                         !
 ! A126  A(66,73,71)           121.504                                          !
 ! A127  A(68,73,71)           126.3292                                         !
 ! A128  A(55,74,75)           107.409                                          !
 ! D1    D(2,1,5,6)            101.8355                                         !
 ! D2    D(2,1,5,7)            -15.3282                                         !
 ! D3    D(2,1,5,8)           -136.2388                                         !
 ! D4    D(3,1,5,6)           -143.7666                                         !
 ! D5    D(3,1,5,7)             99.0697                                         !
 ! D6    D(3,1,5,8)            -21.8409                                         !
 ! D7    D(4,1,5,6)            -20.5405                                         !
 ! D8    D(4,1,5,7)           -137.7042                                         !
 ! D9    D(4,1,5,8)            101.3852                                         !
 ! D10   D(1,5,7,11)             7.4364                                         !
 ! D11   D(1,5,7,17)          -171.0776                                         !
 ! D12   D(6,5,7,11)          -108.89                                           !
 ! D13   D(6,5,7,17)            72.596                                          !
 ! D14   D(8,5,7,11)           126.6693                                         !
 ! D15   D(8,5,7,17)           -51.8446                                         !
 ! D16   D(1,5,8,9)            179.0676                                         !
 ! D17   D(1,5,8,10)           -63.4563                                         !
 ! D18   D(1,5,8,12)            54.3154                                         !
 ! D19   D(6,5,8,9)            -60.4224                                         !
 ! D20   D(6,5,8,10)            57.0538                                         !
 ! D21   D(6,5,8,12)           174.8254                                         !
 ! D22   D(7,5,8,9)             63.3747                                         !
 ! D23   D(7,5,8,10)          -179.1491                                         !
 ! D24   D(7,5,8,12)           -61.3774                                         !
 ! D25   D(5,7,17,18)            8.065                                          !
 ! D26   D(5,7,17,19)          164.579                                          !
 ! D27   D(11,7,17,18)        -170.3214                                         !
 ! D28   D(11,7,17,19)         -13.8074                                         !
 ! D29   D(5,8,12,13)          117.7881                                         !
 ! D30   D(5,8,12,16)          -61.1457                                         !
 ! D31   D(9,8,12,13)           -5.3895                                         !
 ! D32   D(9,8,12,16)          175.6767                                         !
 ! D33   D(10,8,12,13)        -123.0681                                         !
 ! D34   D(10,8,12,16)          57.9982                                         !
 ! D35   D(8,12,13,14)        -177.4352                                         !
 ! D36   D(8,12,13,15)         -15.4485                                         !
 ! D37   D(16,12,13,14)          1.43                                           !
 ! D38   D(16,12,13,15)        163.4167                                         !
 ! D39   D(7,17,19,20)          -5.0691                                         !
 ! D40   D(7,17,19,21)        -122.5188                                         !
 ! D41   D(7,17,19,22)         114.4306                                         !
 ! D42   D(18,17,19,20)        152.7265                                         !
 ! D43   D(18,17,19,21)         35.2769                                         !
 ! D44   D(18,17,19,22)        -87.7738                                         !
 ! D45   D(17,19,21,25)         -5.0486                                         !
 ! D46   D(17,19,21,37)        176.2029                                         !
 ! D47   D(20,19,21,25)       -120.6856                                         !
 ! D48   D(20,19,21,37)         60.5658                                         !
 ! D49   D(22,19,21,25)        117.0217                                         !
 ! D50   D(22,19,21,37)        -61.7268                                         !
 ! D51   D(17,19,22,23)         66.4084                                         !
 ! D52   D(17,19,22,24)       -177.8515                                         !
 ! D53   D(17,19,22,26)        -55.7614                                         !
 ! D54   D(20,19,22,23)       -175.2821                                         !
 ! D55   D(20,19,22,24)        -59.542                                          !
 ! D56   D(20,19,22,26)         62.5481                                         !
 ! D57   D(21,19,22,23)        -52.5995                                         !
 ! D58   D(21,19,22,24)         63.1406                                         !
 ! D59   D(21,19,22,26)       -174.7693                                         !
 ! D60   D(19,21,37,38)          0.2306                                         !
 ! D61   D(19,21,37,39)        175.8648                                         !
 ! D62   D(25,21,37,38)       -178.4783                                         !
 ! D63   D(25,21,37,39)         -2.8441                                         !
 ! D64   D(19,22,26,27)        -77.1595                                         !
 ! D65   D(19,22,26,29)        100.0349                                         !
 ! D66   D(23,22,26,27)        161.86                                           !
 ! D67   D(23,22,26,29)        -20.9456                                         !
 ! D68   D(24,22,26,27)         43.6281                                         !
 ! D69   D(24,22,26,29)       -139.1775                                         !
 ! D70   D(22,26,27,28)         -2.9253                                         !
 ! D71   D(22,26,27,31)        177.3561                                         !
 ! D72   D(29,26,27,28)        179.8298                                         !
 ! D73   D(29,26,27,31)          0.1112                                         !
 ! D74   D(22,26,29,30)          3.4818                                         !
 ! D75   D(22,26,29,33)       -177.4557                                         !
 ! D76   D(27,26,29,30)       -179.2822                                         !
 ! D77   D(27,26,29,33)         -0.2197                                         !
 ! D78   D(26,27,31,32)        179.5134                                         !
 ! D79   D(26,27,31,35)         -0.0385                                         !
 ! D80   D(28,27,31,32)         -0.2051                                         !
 ! D81   D(28,27,31,35)       -179.757                                          !
 ! D82   D(26,29,33,34)       -178.9964                                         !
 ! D83   D(26,29,33,35)          0.2557                                         !
 ! D84   D(30,29,33,34)          0.0632                                         !
 ! D85   D(30,29,33,35)        179.3154                                         !
 ! D86   D(27,31,35,33)          0.0717                                         !
 ! D87   D(27,31,35,36)        179.4262                                         !
 ! D88   D(32,31,35,33)       -179.4788                                         !
 ! D89   D(32,31,35,36)         -0.1243                                         !
 ! D90   D(29,33,35,31)         -0.1793                                         !
 ! D91   D(29,33,35,36)       -179.5334                                         !
 ! D92   D(34,33,35,31)        179.0706                                         !
 ! D93   D(34,33,35,36)         -0.2835                                         !
 ! D94   D(21,37,39,40)        -39.7073                                         !
 ! D95   D(21,37,39,41)       -160.7486                                         !
 ! D96   D(21,37,39,42)         80.6923                                         !
 ! D97   D(38,37,39,40)        136.2937                                         !
 ! D98   D(38,37,39,41)         15.2524                                         !
 ! D99   D(38,37,39,42)       -103.3067                                         !
 ! D100  D(37,39,41,45)        -20.2976                                         !
 ! D101  D(37,39,41,51)        164.3783                                         !
 ! D102  D(40,39,41,45)       -139.8624                                         !
 ! D103  D(40,39,41,51)         44.8135                                         !
 ! D104  D(42,39,41,45)         99.5132                                         !
 ! D105  D(42,39,41,51)        -75.8109                                         !
 ! D106  D(37,39,42,43)         61.751                                          !
 ! D107  D(37,39,42,44)        -55.6021                                         !
 ! D108  D(37,39,42,46)       -173.8199                                         !
 ! D109  D(40,39,42,43)       -177.1933                                         !
 ! D110  D(40,39,42,44)         65.4537                                         !
 ! D111  D(40,39,42,46)        -52.7641                                         !
 ! D112  D(41,39,42,43)        -54.5358                                         !
 ! D113  D(41,39,42,44)       -171.8888                                         !
 ! D114  D(41,39,42,46)         69.8934                                         !
 ! D115  D(39,41,51,52)          1.3994                                         !
 ! D116  D(39,41,51,53)        148.5892                                         !
 ! D117  D(45,41,51,52)       -173.6863                                         !
 ! D118  D(45,41,51,53)        -26.4964                                         !
 ! D119  D(39,42,46,47)       -151.9926                                         !
 ! D120  D(39,42,46,50)         30.8776                                         !
 ! D121  D(43,42,46,47)        -28.6024                                         !
 ! D122  D(43,42,46,50)        154.2677                                         !
 ! D123  D(44,42,46,47)         89.7918                                         !
 ! D124  D(44,42,46,50)        -87.3381                                         !
 ! D125  D(42,46,47,48)        170.3573                                         !
 ! D126  D(42,46,47,49)         27.0439                                         !
 ! D127  D(50,46,47,48)        -12.5817                                         !
 ! D128  D(50,46,47,49)       -155.8951                                         !
 ! D129  D(41,51,53,54)         78.3467                                         !
 ! D130  D(41,51,53,55)        -41.7076                                         !
 ! D131  D(41,51,53,56)       -159.7736                                         !
 ! D132  D(52,51,53,54)       -134.565                                          !
 ! D133  D(52,51,53,55)        105.3807                                         !
 ! D134  D(52,51,53,56)        -12.6853                                         !
 ! D135  D(51,53,55,59)        -33.6035                                         !
 ! D136  D(51,53,55,74)        149.2402                                         !
 ! D137  D(54,53,55,59)       -155.2024                                         !
 ! D138  D(54,53,55,74)         27.6413                                         !
 ! D139  D(56,53,55,59)         82.5087                                         !
 ! D140  D(56,53,55,74)        -94.6475                                         !
 ! D141  D(51,53,56,57)        -64.7437                                         !
 ! D142  D(51,53,56,58)         49.1588                                         !
 ! D143  D(51,53,56,60)        169.7959                                         !
 ! D144  D(54,53,56,57)         56.7107                                         !
 ! D145  D(54,53,56,58)        170.6131                                         !
 ! D146  D(54,53,56,60)        -68.7498                                         !
 ! D147  D(55,53,56,57)        177.0534                                         !
 ! D148  D(55,53,56,58)        -69.0442                                         !
 ! D149  D(55,53,56,60)         51.5929                                         !
 ! D150  D(53,55,74,75)        174.7941                                         !
 ! D151  D(59,55,74,75)         -2.3974                                         !
 ! D152  D(53,56,60,61)        -43.6923                                         !
 ! D153  D(53,56,60,62)         75.3762                                         !
 ! D154  D(53,56,60,63)       -162.9024                                         !
 ! D155  D(57,56,60,61)       -167.6201                                         !
 ! D156  D(57,56,60,62)        -48.5516                                         !
 ! D157  D(57,56,60,63)         73.1697                                         !
 ! D158  D(58,56,60,61)         75.3769                                         !
 ! D159  D(58,56,60,62)       -165.5546                                         !
 ! D160  D(58,56,60,63)        -43.8332                                         !
 ! D161  D(56,60,63,64)        172.1014                                         !
 ! D162  D(56,60,63,65)        -69.4155                                         !
 ! D163  D(56,60,63,66)         51.1184                                         !
 ! D164  D(61,60,63,64)         50.8238                                         !
 ! D165  D(61,60,63,65)        169.3068                                         !
 ! D166  D(61,60,63,66)        -70.1593                                         !
 ! D167  D(62,60,63,64)        -65.0258                                         !
 ! D168  D(62,60,63,65)         53.4573                                         !
 ! D169  D(62,60,63,66)        173.9912                                         !
 ! D170  D(60,63,66,67)        -84.1623                                         !
 ! D171  D(60,63,66,73)         61.6443                                         !
 ! D172  D(64,63,66,67)        154.2354                                         !
 ! D173  D(64,63,66,73)        -59.958                                          !
 ! D174  D(65,63,66,67)         38.8809                                         !
 ! D175  D(65,63,66,73)       -175.3125                                         !
 ! D176  D(63,66,73,68)       -169.9899                                         !
 ! D177  D(63,66,73,71)          8.2972                                         !
 ! D178  D(67,66,73,68)        -24.0581                                         !
 ! D179  D(67,66,73,71)        154.229                                          !
 ! D180  D(69,68,73,66)       -160.2898                                         !
 ! D181  D(69,68,73,71)         21.5231                                         !
 ! D182  D(70,68,73,66)        -37.2851                                         !
 ! D183  D(70,68,73,71)        144.5277                                         !
 ! D184  D(72,71,73,66)        173.8218                                         !
 ! D185  D(72,71,73,68)         -8.1477                                         !
 --------------------------------------------------------------------------------
 Symmetry turned off by external request.
 Stoichiometry    C23H36N9O7(1+)
 Framework group  C1[X(C23H36N9O7)]
 Deg. of freedom   219
 Full point group                 C1      NOp   1
                          Input orientation:                          
 ---------------------------------------------------------------------
 Center     Atomic      Atomic             Coordinates (Angstroms)
 Number     Number       Type             X           Y           Z
 ---------------------------------------------------------------------
      1          7           0       -4.057223   -1.000058    4.563038
      2          1           0       -4.200277   -1.633453    3.744548
      3          1           0       -3.146499   -1.274191    5.034916
      4          1           0       -4.841221   -1.046350    5.216235
      5          6           0       -3.838625    0.365452    3.960929
      6          1           0       -4.762970    0.941872    4.053156
      7          6           0       -3.541449    0.076045    2.461756
      8          6           0       -2.667068    1.076737    4.670852
      9          1           0       -2.497132    2.058954    4.224788
     10          1           0       -2.919924    1.243305    5.723335
     11          8           0       -3.672624   -1.072927    2.041913
     12          6           0       -1.425743    0.184083    4.632502
     13          7           0       -0.348535    0.638841    3.983889
     14          1           0        0.454244    0.022782    3.930712
     15          1           0       -0.394486    1.426606    3.335023
     16          8           0       -1.485881   -0.927241    5.188056
     17          7           0       -3.128553    1.133672    1.754425
     18          1           0       -2.917125    1.998724    2.236305
     19          6           0       -2.494430    1.040235    0.446674
     20          1           0       -2.352305   -0.022669    0.229580
     21          6           0       -1.122235    1.738165    0.588633
     22          6           0       -3.381235    1.673739   -0.656385
     23          1           0       -3.447678    2.753410   -0.476630
     24          1           0       -2.880320    1.544392   -1.622674
     25          8           0       -0.809896    2.315713    1.646009
     26          6           0       -4.757946    1.049502   -0.679025
     27          6           0       -4.954220   -0.211898   -1.255057
     28          1           0       -4.119265   -0.722578   -1.730407
     29          6           0       -5.844221    1.693158   -0.075100
     30          1           0       -5.706299    2.678444    0.365259
     31          6           0       -6.210166   -0.816986   -1.230490
     32          1           0       -6.348709   -1.792178   -1.688414
     33          6           0       -7.104115    1.091718   -0.050300
     34          1           0       -7.942032    1.610386    0.407706
     35          6           0       -7.288873   -0.166123   -0.626738
     36          1           0       -8.269726   -0.632829   -0.615433
     37          7           0       -0.336175    1.696108   -0.487391
     38          1           0       -0.616108    1.238024   -1.353830
     39          6           0        0.952394    2.364416   -0.585827
     40          1           0        0.896894    3.348101   -0.112585
     41          6           0        1.254278    2.463259   -2.093086
     42          6           0        2.065920    1.541540    0.107915
     43          1           0        2.165343    0.572368   -0.389837
     44          1           0        1.748605    1.365976    1.142872
     45          8           0        0.687287    1.721732   -2.893195
     46          6           0        3.407812    2.282064    0.157753
     47          7           0        4.511512    1.499984    0.180854
     48          1           0        5.418216    1.961496    0.061564
     49          1           0        4.444431    0.583060   -0.240841
     50          8           0        3.451709    3.514618    0.227981
     51          7           0        2.235843    3.337131   -2.409229
     52          1           0        2.668010    3.803510   -1.614937
     53          6           0        3.110425    3.122934   -3.559048
     54          1           0        2.610099    3.396208   -4.491570
     55          6           0        3.509618    1.642803   -3.632943
     56          6           0        4.370869    3.982046   -3.310125
     57          1           0        4.063364    5.035959   -3.315191
     58          1           0        4.687939    3.747662   -2.287102
     59          8           0        3.679431    0.921960   -2.671409
     60          6           0        5.558803    3.759096   -4.248365
     61          1           0        5.725242    2.693584   -4.412825
     62          1           0        5.376524    4.216347   -5.228370
     63          6           0        6.861568    4.337836   -3.659050
     64          1           0        7.702099    4.034948   -4.289203
     65          1           0        6.832580    5.432866   -3.644643
     66          7           0        7.153600    3.914957   -2.287650
     67          1           0        6.699537    4.455069   -1.562343
     68          7           0        7.396020    2.355079   -0.577486
     69          1           0        7.850295    1.474242   -0.354510
     70          1           0        7.862310    3.103535   -0.068651
     71          7           0        7.447184    1.692643   -2.899874
     72          1           0        7.693490    0.780627   -2.514622
     73          6           0        7.353446    2.583313   -1.982575
     74          8           0        3.709549    1.253815   -4.901412
     75          1           0        4.039617    0.335276   -4.876702
 ---------------------------------------------------------------------
 Rotational constants (GHZ):           0.1658384           0.0388524           0.0335719
 Standard basis: 6-31G(d) (6D, 7F)
   657 basis functions,  1236 primitive gaussians,   657 cartesian basis functions
   146 alpha electrons      146 beta electrons
       nuclear repulsion energy      4609.7849720418 Hartrees.
 NAtoms=   75 NActive=   75 NUniq=   75 SFac= 1.00D+00 NAtFMM=   60 NAOKFM=T Big=T
 Integral buffers will be    131072 words long.
 Raffenetti 2 integral format.
 Two-electron integral symmetry is turned off.
 Nuclear repulsion after empirical dispersion term =     4609.6853157443 Hartrees.
 One-electron integrals computed using PRISM.
 NBasis=   657 RedAO= T EigKep=  4.69D-04  NBF=   657
 NBsUse=   657 1.00D-06 EigRej= -1.00D+00 NBFU=   657
 Initial guess from the checkpoint file:  "conf-304.chk"
 B after Tr=     0.000000    0.000000    0.000000
         Rot=    1.000000    0.000000    0.000000    0.000000 Ang=   0.00 deg.
 Requested convergence on RMS density matrix=1.00D-08 within 128 cycles.
 Requested convergence on MAX density matrix=1.00D-06.
 Requested convergence on             energy=1.00D-06.
 No special actions if energy rises.
 SCF Done:  E(RB3LYP) =  -1917.46432534     A.U. after    2 cycles
            NFock=  2  Conv=0.93D-08     -V/T= 2.0093

 **********************************************************************

            Population analysis using the SCF Density.

 **********************************************************************

 Alpha  occ. eigenvalues --  -19.27094 -19.26619 -19.25575 -19.23808 -19.21587
 Alpha  occ. eigenvalues --  -19.20762 -19.19495 -14.57730 -14.49715 -14.48302
 Alpha  occ. eigenvalues --  -14.47057 -14.43557 -14.42890 -14.42157 -14.41496
 Alpha  occ. eigenvalues --  -14.35377 -10.43646 -10.43093 -10.41149 -10.40687
 Alpha  occ. eigenvalues --  -10.39554 -10.37410 -10.37163 -10.35455 -10.35382
 Alpha  occ. eigenvalues --  -10.35091 -10.33028 -10.31458 -10.29881 -10.28775
 Alpha  occ. eigenvalues --  -10.28215 -10.27887 -10.27238 -10.27057 -10.26994
 Alpha  occ. eigenvalues --  -10.26841 -10.26753 -10.26460 -10.24229  -1.19084
 Alpha  occ. eigenvalues --   -1.18135  -1.17150  -1.15366  -1.12615  -1.12281
 Alpha  occ. eigenvalues --   -1.10999  -1.09085  -1.06758  -1.04570  -1.03806
 Alpha  occ. eigenvalues --   -1.03437  -1.01076  -0.97624  -0.95784  -0.94517
 Alpha  occ. eigenvalues --   -0.93497  -0.91223  -0.89920  -0.87892  -0.85948
 Alpha  occ. eigenvalues --   -0.83988  -0.82431  -0.81855  -0.80926  -0.77629
 Alpha  occ. eigenvalues --   -0.75875  -0.74650  -0.73876  -0.73227  -0.72702
 Alpha  occ. eigenvalues --   -0.71225  -0.69720  -0.69426  -0.68572  -0.67945
 Alpha  occ. eigenvalues --   -0.67013  -0.66384  -0.65871  -0.65759  -0.64895
 Alpha  occ. eigenvalues --   -0.63818  -0.63059  -0.61731  -0.60778  -0.60513
 Alpha  occ. eigenvalues --   -0.60346  -0.59637  -0.59472  -0.59110  -0.58951
 Alpha  occ. eigenvalues --   -0.58626  -0.58020  -0.57693  -0.55902  -0.55462
 Alpha  occ. eigenvalues --   -0.55308  -0.55014  -0.54351  -0.54170  -0.53879
 Alpha  occ. eigenvalues --   -0.53530  -0.53157  -0.52966  -0.52580  -0.52275
 Alpha  occ. eigenvalues --   -0.51831  -0.51765  -0.51091  -0.50777  -0.50048
 Alpha  occ. eigenvalues --   -0.49894  -0.49234  -0.49023  -0.48809  -0.48557
 Alpha  occ. eigenvalues --   -0.47879  -0.47695  -0.47537  -0.46525  -0.45954
 Alpha  occ. eigenvalues --   -0.44790  -0.44254  -0.44019  -0.43858  -0.42590
 Alpha  occ. eigenvalues --   -0.42118  -0.41846  -0.41238  -0.41139  -0.40370
 Alpha  occ. eigenvalues --   -0.40272  -0.39632  -0.39215  -0.38838  -0.37936
 Alpha  occ. eigenvalues --   -0.37073  -0.36274  -0.34642  -0.34588  -0.33906
 Alpha  occ. eigenvalues --   -0.33783  -0.33052  -0.32990  -0.32550  -0.32534
 Alpha  occ. eigenvalues --   -0.29318
 Alpha virt. eigenvalues --   -0.12866  -0.11316  -0.10169  -0.08487  -0.08123
 Alpha virt. eigenvalues --   -0.07947  -0.07452  -0.06436  -0.05582  -0.04581
 Alpha virt. eigenvalues --   -0.03200  -0.01874  -0.01784  -0.01349  -0.00904
 Alpha virt. eigenvalues --   -0.00332   0.00856   0.01035   0.01395   0.01890
 Alpha virt. eigenvalues --    0.02338   0.02856   0.03222   0.03398   0.04046
 Alpha virt. eigenvalues --    0.04584   0.04693   0.05129   0.05387   0.05862
 Alpha virt. eigenvalues --    0.06563   0.06890   0.07364   0.07539   0.07940
 Alpha virt. eigenvalues --    0.08042   0.08241   0.08708   0.08809   0.09118
 Alpha virt. eigenvalues --    0.09353   0.09999   0.10629   0.10765   0.11145
 Alpha virt. eigenvalues --    0.11504   0.11751   0.11960   0.12362   0.12543
 Alpha virt. eigenvalues --    0.12769   0.13210   0.14184   0.14823   0.15317
 Alpha virt. eigenvalues --    0.15604   0.16360   0.16487   0.17008   0.17716
 Alpha virt. eigenvalues --    0.18527   0.19062   0.19542   0.20741   0.21543
 Alpha virt. eigenvalues --    0.22386   0.22735   0.23627   0.23909   0.25000
 Alpha virt. eigenvalues --    0.25150   0.26286   0.26479   0.27076   0.27853
 Alpha virt. eigenvalues --    0.27998   0.28778   0.28993   0.30793   0.31634
 Alpha virt. eigenvalues --    0.32901   0.34274   0.34639   0.36693   0.37223
 Alpha virt. eigenvalues --    0.37459   0.38517   0.40051   0.41055   0.42178
 Alpha virt. eigenvalues --    0.42533   0.43275   0.44020   0.44694   0.44856
 Alpha virt. eigenvalues --    0.45580   0.45875   0.46230   0.46434   0.47060
 Alpha virt. eigenvalues --    0.47188   0.47724   0.48017   0.48788   0.49049
 Alpha virt. eigenvalues --    0.49258   0.50076   0.50318   0.50894   0.51111
 Alpha virt. eigenvalues --    0.51435   0.51635   0.52144   0.52163   0.52579
 Alpha virt. eigenvalues --    0.53272   0.53321   0.53587   0.53811   0.54033
 Alpha virt. eigenvalues --    0.54420   0.54671   0.55195   0.55765   0.55992
 Alpha virt. eigenvalues --    0.56418   0.56728   0.56953   0.57701   0.58099
 Alpha virt. eigenvalues --    0.58515   0.58877   0.59230   0.59789   0.60486
 Alpha virt. eigenvalues --    0.60601   0.61054   0.61619   0.62459   0.63212
 Alpha virt. eigenvalues --    0.63437   0.64196   0.64477   0.65135   0.65412
 Alpha virt. eigenvalues --    0.65730   0.65934   0.66178   0.67559   0.67812
 Alpha virt. eigenvalues --    0.68508   0.69161   0.69392   0.69986   0.70207
 Alpha virt. eigenvalues --    0.71093   0.71259   0.71927   0.72035   0.72410
 Alpha virt. eigenvalues --    0.72676   0.73504   0.73970   0.74502   0.74798
 Alpha virt. eigenvalues --    0.75175   0.75617   0.76063   0.76424   0.76600
 Alpha virt. eigenvalues --    0.76827   0.77130   0.77345   0.77570   0.77757
 Alpha virt. eigenvalues --    0.77853   0.78354   0.79040   0.79175   0.79681
 Alpha virt. eigenvalues --    0.80143   0.80256   0.80990   0.81285   0.81431
 Alpha virt. eigenvalues --    0.82227   0.82987   0.83137   0.83789   0.83933
 Alpha virt. eigenvalues --    0.84150   0.84437   0.84576   0.84932   0.85326
 Alpha virt. eigenvalues --    0.86252   0.86402   0.86866   0.87053   0.87393
 Alpha virt. eigenvalues --    0.87643   0.88143   0.89369   0.89743   0.90087
 Alpha virt. eigenvalues --    0.91125   0.91396   0.91652   0.92223   0.92501
 Alpha virt. eigenvalues --    0.93423   0.94051   0.95146   0.95619   0.95924
 Alpha virt. eigenvalues --    0.96392   0.97905   0.98490   0.99217   1.00326
 Alpha virt. eigenvalues --    1.00657   1.01731   1.02395   1.02853   1.04352
 Alpha virt. eigenvalues --    1.04557   1.04860   1.05842   1.06826   1.07265
 Alpha virt. eigenvalues --    1.08355   1.08728   1.08900   1.09552   1.10336
 Alpha virt. eigenvalues --    1.11060   1.11908   1.12146   1.13789   1.13979
 Alpha virt. eigenvalues --    1.14646   1.15458   1.15674   1.16901   1.17928
 Alpha virt. eigenvalues --    1.18873   1.18941   1.19730   1.20933   1.21650
 Alpha virt. eigenvalues --    1.23017   1.24582   1.25177   1.25961   1.27104
 Alpha virt. eigenvalues --    1.27801   1.29750   1.30750   1.30986   1.32097
 Alpha virt. eigenvalues --    1.32337   1.33385   1.33723   1.34209   1.34398
 Alpha virt. eigenvalues --    1.34987   1.35654   1.36884   1.37436   1.38408
 Alpha virt. eigenvalues --    1.38700   1.38986   1.40204   1.40806   1.40991
 Alpha virt. eigenvalues --    1.41628   1.42254   1.43332   1.43976   1.44839
 Alpha virt. eigenvalues --    1.45388   1.46960   1.47320   1.48112   1.49351
 Alpha virt. eigenvalues --    1.50606   1.51802   1.52939   1.54100   1.55366
 Alpha virt. eigenvalues --    1.56309   1.57166   1.58092   1.59220   1.60263
 Alpha virt. eigenvalues --    1.61235   1.61733   1.62350   1.62839   1.63338
 Alpha virt. eigenvalues --    1.63775   1.64686   1.65348   1.66492   1.66957
 Alpha virt. eigenvalues --    1.67625   1.68164   1.68902   1.68998   1.69918
 Alpha virt. eigenvalues --    1.70279   1.70741   1.71372   1.71923   1.72773
 Alpha virt. eigenvalues --    1.73084   1.73345   1.73776   1.74180   1.74313
 Alpha virt. eigenvalues --    1.74503   1.74855   1.75393   1.75855   1.77158
 Alpha virt. eigenvalues --    1.77553   1.78303   1.78762   1.79445   1.80267
 Alpha virt. eigenvalues --    1.81097   1.81340   1.81687   1.82582   1.83548
 Alpha virt. eigenvalues --    1.83990   1.84360   1.84854   1.85823   1.85987
 Alpha virt. eigenvalues --    1.86174   1.86781   1.87797   1.88839   1.89602
 Alpha virt. eigenvalues --    1.90211   1.90622   1.91082   1.91734   1.91920
 Alpha virt. eigenvalues --    1.92663   1.93577   1.94171   1.94583   1.94900
 Alpha virt. eigenvalues --    1.95365   1.95802   1.97097   1.97573   1.97714
 Alpha virt. eigenvalues --    1.97959   1.99262   2.00555   2.00877   2.02558
 Alpha virt. eigenvalues --    2.02856   2.03584   2.03759   2.04651   2.05306
 Alpha virt. eigenvalues --    2.06365   2.07483   2.07851   2.08771   2.09080
 Alpha virt. eigenvalues --    2.10284   2.11781   2.12478   2.13243   2.15199
 Alpha virt. eigenvalues --    2.15389   2.16075   2.17206   2.18362   2.18987
 Alpha virt. eigenvalues --    2.19457   2.19830   2.19923   2.20933   2.22730
 Alpha virt. eigenvalues --    2.23086   2.24009   2.24333   2.25651   2.26978
 Alpha virt. eigenvalues --    2.27516   2.28508   2.29028   2.29959   2.30561
 Alpha virt. eigenvalues --    2.31090   2.31486   2.32048   2.32832   2.34576
 Alpha virt. eigenvalues --    2.35121   2.35714   2.36522   2.38107   2.38853
 Alpha virt. eigenvalues --    2.40554   2.40864   2.42172   2.42782   2.42979
 Alpha virt. eigenvalues --    2.44759   2.45370   2.45645   2.46556   2.47569
 Alpha virt. eigenvalues --    2.48016   2.49196   2.50132   2.50800   2.51596
 Alpha virt. eigenvalues --    2.52104   2.53080   2.54310   2.54513   2.56619
 Alpha virt. eigenvalues --    2.56842   2.57933   2.58863   2.59456   2.60615
 Alpha virt. eigenvalues --    2.61521   2.62182   2.63050   2.63568   2.64485
 Alpha virt. eigenvalues --    2.65754   2.66023   2.66692   2.67707   2.67884
 Alpha virt. eigenvalues --    2.68514   2.68972   2.71283   2.73254   2.75637
 Alpha virt. eigenvalues --    2.77693   2.80154   2.81417   2.84166   2.85199
 Alpha virt. eigenvalues --    2.85607   2.86489   2.87572   2.89947   2.91302
 Alpha virt. eigenvalues --    2.92339   2.92859   2.94259   2.95446   2.97089
 Alpha virt. eigenvalues --    2.99987   3.00191   3.02458   3.03430   3.08550
 Alpha virt. eigenvalues --    3.13143   3.33051   3.67958   3.75041   3.76353
 Alpha virt. eigenvalues --    3.79405   3.84743   3.87821   3.89876   3.91452
 Alpha virt. eigenvalues --    3.93667   3.95799   3.97586   4.01310   4.01500
 Alpha virt. eigenvalues --    4.04311   4.06819   4.08182   4.09759   4.11668
 Alpha virt. eigenvalues --    4.15279   4.17467   4.18445   4.20109   4.22589
 Alpha virt. eigenvalues --    4.25267   4.26376   4.27710   4.28885   4.32039
 Alpha virt. eigenvalues --    4.33266   4.36973   4.39478   4.40600   4.45455
 Alpha virt. eigenvalues --    4.46934   4.51443   4.55351   4.58869   4.63289
 Alpha virt. eigenvalues --    4.66827
          Condensed to atoms (all electrons):
 Mulliken charges:
               1
     1  N   -0.765556
     2  H    0.427156
     3  H    0.441575
     4  H    0.405615
     5  C   -0.129068
     6  H    0.231119
     7  C    0.644454
     8  C   -0.391810
     9  H    0.203510
    10  H    0.219113
    11  O   -0.511201
    12  C    0.612574
    13  N   -0.747953
    14  H    0.366158
    15  H    0.412585
    16  O   -0.535373
    17  N   -0.573595
    18  H    0.352677
    19  C   -0.090389
    20  H    0.211699
    21  C    0.641711
    22  C   -0.371919
    23  H    0.165574
    24  H    0.180050
    25  O   -0.582129
    26  C    0.181083
    27  C   -0.169915
    28  H    0.132373
    29  C   -0.191162
    30  H    0.122483
    31  C   -0.126653
    32  H    0.149502
    33  C   -0.135148
    34  H    0.142349
    35  C   -0.130037
    36  H    0.148074
    37  N   -0.613075
    38  H    0.370712
    39  C   -0.055369
    40  H    0.206237
    41  C    0.622813
    42  C   -0.353240
    43  H    0.179066
    44  H    0.174109
    45  O   -0.536630
    46  C    0.607007
    47  N   -0.756649
    48  H    0.391077
    49  H    0.347504
    50  O   -0.546340
    51  N   -0.632335
    52  H    0.378924
    53  C   -0.000025
    54  H    0.192755
    55  C    0.606292
    56  C   -0.324447
    57  H    0.162318
    58  H    0.154679
    59  O   -0.497086
    60  C   -0.284739
    61  H    0.195680
    62  H    0.148392
    63  C   -0.132214
    64  H    0.185269
    65  H    0.147807
    66  N   -0.588045
    67  H    0.327032
    68  N   -0.786786
    69  H    0.332060
    70  H    0.336931
    71  N   -0.636114
    72  H    0.273128
    73  C    0.590949
    74  O   -0.549196
    75  H    0.422026
 Sum of Mulliken charges =   1.00000
 Mulliken charges with hydrogens summed into heavy atoms:
               1
     1  N    0.508790
     5  C    0.102051
     7  C    0.644454
     8  C    0.030813
    11  O   -0.511201
    12  C    0.612574
    13  N    0.030790
    16  O   -0.535373
    17  N   -0.220918
    19  C    0.121309
    21  C    0.641711
    22  C   -0.026296
    25  O   -0.582129
    26  C    0.181083
    27  C   -0.037541
    29  C   -0.068679
    31  C    0.022849
    33  C    0.007201
    35  C    0.018037
    37  N   -0.242363
    39  C    0.150868
    41  C    0.622813
    42  C   -0.000065
    45  O   -0.536630
    46  C    0.607007
    47  N   -0.018068
    50  O   -0.546340
    51  N   -0.253410
    53  C    0.192730
    55  C    0.606292
    56  C   -0.007450
    59  O   -0.497086
    60  C    0.059333
    63  C    0.200862
    66  N   -0.261013
    68  N   -0.117796
    71  N   -0.362986
    73  C    0.590949
    74  O   -0.127170
 Electronic spatial extent (au):  <R**2>=          33126.8390
 Charge=              1.0000 electrons
 Dipole moment (field-independent basis, Debye):
    X=             -6.3557    Y=              3.8421    Z=             11.9374  Tot=             14.0591
 Quadrupole moment (field-independent basis, Debye-Ang):
   XX=            -92.3815   YY=           -202.9363   ZZ=           -160.4447
   XY=             17.1736   XZ=            -63.1734   YZ=             -3.5272
 Traceless Quadrupole moment (field-independent basis, Debye-Ang):
   XX=             59.5393   YY=            -51.0154   ZZ=             -8.5239
   XY=             17.1736   XZ=            -63.1734   YZ=             -3.5272
 Octapole moment (field-independent basis, Debye-Ang**2):
  XXX=           -200.5218  YYY=           -966.8295  ZZZ=            449.5577  XYY=             -2.5205
  XXY=           -233.8811  XXZ=            351.4095  XZZ=           -337.5288  YZZ=           -334.4096
  YYZ=              2.8187  XYZ=            -36.9112
 Hexadecapole moment (field-independent basis, Debye-Ang**3):
 XXXX=         -20911.3140 YYYY=          -5948.7062 ZZZZ=          -8688.0236 XXXY=          -2254.5405
 XXXZ=           3516.2468 YYYX=          -2809.1014 YYYZ=           1490.0429 ZZZX=           2701.4928
 ZZZY=           1868.4247 XXYY=          -4544.1699 XXZZ=          -4854.1906 YYZZ=          -2447.9272
 XXYZ=            538.6867 YYXZ=            997.2191 ZZXY=           -890.2499
 N-N= 4.609685315744D+03 E-N=-1.366240175843D+04  KE= 1.899741283800D+03
 Unable to Open any file for archive entry.
 1\1\GINC-AMR-103\SP\RB3LYP\6-31G(d)\C23H36N9O7(1+)\KENGMITH\31-May-202
 2\0\\# B3LYP/6-31G* empiricaldispersion=gd3 guess=read geom=check nosy
 mm integral(ultrafinegrid)\\Candidate Structure: Conf:304 Charge calc 
 in gas phase\\1,1\N,0,-4.0572231103,-1.0000582591,4.5630380605\H,0,-4.
 2002772915,-1.6334531644,3.7445480556\H,0,-3.1464990039,-1.2741905935,
 5.0349157373\H,0,-4.8412211252,-1.0463495103,5.216234909\C,0,-3.838624
 5151,0.3654517803,3.9609293922\H,0,-4.762970354,0.9418722344,4.0531559
 215\C,0,-3.5414492659,0.0760449912,2.4617556639\C,0,-2.6670682102,1.07
 6736808,4.6708524497\H,0,-2.4971322179,2.0589542895,4.2247880192\H,0,-
 2.9199237211,1.2433048451,5.7233347519\O,0,-3.6726235721,-1.0729273646
 ,2.0419133166\C,0,-1.4257434443,0.1840828736,4.6325023718\N,0,-0.34853
 53867,0.6388408166,3.9838888882\H,0,0.4542435822,0.0227815358,3.930712
 427\H,0,-0.3944859532,1.4266059261,3.3350233532\O,0,-1.4858806346,-0.9
 272410241,5.1880556728\N,0,-3.1285531812,1.1336723741,1.7544246209\H,0
 ,-2.9171249331,1.9987236666,2.2363053972\C,0,-2.4944296879,1.040235420
 5,0.4466736744\H,0,-2.3523045791,-0.0226689046,0.2295799692\C,0,-1.122
 2354067,1.7381647954,0.5886325759\C,0,-3.3812351869,1.6737390046,-0.65
 63850251\H,0,-3.4476777554,2.7534097758,-0.4766304986\H,0,-2.880320070
 5,1.5443919662,-1.6226735776\O,0,-0.8098960812,2.3157128093,1.64600850
 31\C,0,-4.757945831,1.0495017297,-0.6790250461\C,0,-4.9542196472,-0.21
 18976911,-1.2550566551\H,0,-4.1192653124,-0.7225775151,-1.7304071233\C
 ,0,-5.8442214276,1.6931577453,-0.0750996131\H,0,-5.706299102,2.6784438
 753,0.3652585368\C,0,-6.2101660875,-0.8169859817,-1.2304897254\H,0,-6.
 3487089547,-1.7921775962,-1.6884144941\C,0,-7.1041154297,1.091718357,-
 0.0503003201\H,0,-7.9420319361,1.6103860279,0.4077064556\C,0,-7.288872
 5595,-0.1661232314,-0.6267375655\H,0,-8.2697261279,-0.6328285594,-0.61
 54332949\N,0,-0.3361748569,1.6961076172,-0.4873906161\H,0,-0.616107723
 4,1.2380239603,-1.3538295818\C,0,0.9523938448,2.3644160401,-0.58582743
 55\H,0,0.8968938235,3.3481005016,-0.1125854723\C,0,1.2542779666,2.4632
 592485,-2.0930863902\C,0,2.065920072,1.5415402867,0.1079147692\H,0,2.1
 653425387,0.5723679784,-0.3898372701\H,0,1.7486053895,1.3659760697,1.1
 428720956\O,0,0.6872869686,1.7217318657,-2.8931946485\C,0,3.4078124341
 ,2.2820640771,0.157752519\N,0,4.5115118098,1.4999842044,0.1808536214\H
 ,0,5.4182157749,1.9614964959,0.0615636318\H,0,4.4444314162,0.583060144
 ,-0.2408411331\O,0,3.4517090354,3.5146176002,0.2279813266\N,0,2.235843
 3365,3.3371313711,-2.4092288521\H,0,2.6680101499,3.8035104495,-1.61493
 68078\C,0,3.110424538,3.1229336705,-3.5590484648\H,0,2.6100989305,3.39
 62082558,-4.4915698511\C,0,3.5096176236,1.6428028673,-3.6329434487\C,0
 ,4.3708693547,3.9820464523,-3.3101251904\H,0,4.0633636511,5.0359585523
 ,-3.31519144\H,0,4.6879387502,3.7476619107,-2.2871019178\O,0,3.6794307
 113,0.9219604843,-2.671409239\C,0,5.5588031529,3.7590957494,-4.2483645
 552\H,0,5.7252416052,2.6935843545,-4.4128247866\H,0,5.3765238822,4.216
 346859,-5.2283699344\C,0,6.8615678726,4.3378355527,-3.6590495528\H,0,7
 .702098617,4.0349475145,-4.2892025145\H,0,6.8325803353,5.432866161,-3.
 6446425073\N,0,7.1535995056,3.91495743,-2.2876501871\H,0,6.6995374426,
 4.4550694053,-1.5623429833\N,0,7.3960197251,2.3550792605,-0.577486433\
 H,0,7.8502947983,1.4742419819,-0.3545103913\H,0,7.8623101426,3.1035354
 505,-0.0686505153\N,0,7.4471838358,1.692643351,-2.8998740521\H,0,7.693
 4897335,0.7806272339,-2.5146217027\C,0,7.3534460902,2.5833131738,-1.98
 25750633\O,0,3.7095486873,1.2538145518,-4.9014124253\H,0,4.039616736,0
 .3352757035,-4.8767018041\\Version=ES64L-G16RevC.01\HF=-1917.4643253\R
 MSD=9.302e-09\Dipole=-3.2425975,-1.3950338,5.1418019\Quadrupole=44.266
 0404,-37.9287301,-6.3373103,12.7681136,-46.9679112,-2.6223799\PG=C01 [
 X(C23H36N9O7)]\\@
 The archive entry for this job was punched.


 I WISH TO HAVE NO CONNECTION WITH ANY SHIP THAT DOES NOT SAIL FAST,
 FOR I INTEND TO GO IN HARM'S WAY.
     -- JOHN PAUL JONES, USN 1747-1792
 Job cpu time:       0 days  0 hours  2 minutes 26.8 seconds.
 Elapsed time:       0 days  0 hours  0 minutes 37.6 seconds.
 File lengths (MBytes):  RWF=    344 Int=      0 D2E=      0 Chk=     48 Scr=     16
 Normal termination of Gaussian 16 at Tue May 31 12:28:16 2022.
