 Entering Gaussian System, Link 0=/opt/software/Gaussian/g16-AVX2-C.01/g16/g16
 Input=charge-conf-448.com
 Output=charge-conf-448.log
 Initial command:
 /opt/software/Gaussian/g16-AVX2-C.01/g16/l1.exe "/mnt/gs18/scratch/users/kengmith/Gau-80694.inp" -scrdir="/mnt/gs18/scratch/users/kengmith/"
 Entering Link 1 = /opt/software/Gaussian/g16-AVX2-C.01/g16/l1.exe PID=     80794.
  
 Copyright (c) 1988-2019, Gaussian, Inc.  All Rights Reserved.
  
 This is part of the Gaussian(R) 16 program.  It is based on
 the Gaussian(R) 09 system (copyright 2009, Gaussian, Inc.),
 the Gaussian(R) 03 system (copyright 2003, Gaussian, Inc.),
 the Gaussian(R) 98 system (copyright 1998, Gaussian, Inc.),
 the Gaussian(R) 94 system (copyright 1995, Gaussian, Inc.),
 the Gaussian 92(TM) system (copyright 1992, Gaussian, Inc.),
 the Gaussian 90(TM) system (copyright 1990, Gaussian, Inc.),
 the Gaussian 88(TM) system (copyright 1988, Gaussian, Inc.),
 the Gaussian 86(TM) system (copyright 1986, Carnegie Mellon
 University), and the Gaussian 82(TM) system (copyright 1983,
 Carnegie Mellon University). Gaussian is a federally registered
 trademark of Gaussian, Inc.
  
 This software contains proprietary and confidential information,
 including trade secrets, belonging to Gaussian, Inc.
  
 This software is provided under written license and may be
 used, copied, transmitted, or stored only in accord with that
 written license.
  
 The following legend is applicable only to US Government
 contracts under FAR:
  
                    RESTRICTED RIGHTS LEGEND
  
 Use, reproduction and disclosure by the US Government is
 subject to restrictions as set forth in subparagraphs (a)
 and (c) of the Commercial Computer Software - Restricted
 Rights clause in FAR 52.227-19.
  
 Gaussian, Inc.
 340 Quinnipiac St., Bldg. 40, Wallingford CT 06492
  
  
 ---------------------------------------------------------------
 Warning -- This program may not be used in any manner that
 competes with the business of Gaussian, Inc. or will provide
 assistance to any competitor of Gaussian, Inc.  The licensee
 of this program is prohibited from giving any competitor of
 Gaussian, Inc. access to this program.  By using this program,
 the user acknowledges that Gaussian, Inc. is engaged in the
 business of creating and licensing software in the field of
 computational chemistry and represents and warrants to the
 licensee that it is not a competitor of Gaussian, Inc. and that
 it will not use this program in any manner prohibited above.
 ---------------------------------------------------------------
  

 Cite this work as:
 Gaussian 16, Revision C.01,
 M. J. Frisch, G. W. Trucks, H. B. Schlegel, G. E. Scuseria, 
 M. A. Robb, J. R. Cheeseman, G. Scalmani, V. Barone, 
 G. A. Petersson, H. Nakatsuji, X. Li, M. Caricato, A. V. Marenich, 
 J. Bloino, B. G. Janesko, R. Gomperts, B. Mennucci, H. P. Hratchian, 
 J. V. Ortiz, A. F. Izmaylov, J. L. Sonnenberg, D. Williams-Young, 
 F. Ding, F. Lipparini, F. Egidi, J. Goings, B. Peng, A. Petrone, 
 T. Henderson, D. Ranasinghe, V. G. Zakrzewski, J. Gao, N. Rega, 
 G. Zheng, W. Liang, M. Hada, M. Ehara, K. Toyota, R. Fukuda, 
 J. Hasegawa, M. Ishida, T. Nakajima, Y. Honda, O. Kitao, H. Nakai, 
 T. Vreven, K. Throssell, J. A. Montgomery, Jr., J. E. Peralta, 
 F. Ogliaro, M. J. Bearpark, J. J. Heyd, E. N. Brothers, K. N. Kudin, 
 V. N. Staroverov, T. A. Keith, R. Kobayashi, J. Normand, 
 K. Raghavachari, A. P. Rendell, J. C. Burant, S. S. Iyengar, 
 J. Tomasi, M. Cossi, J. M. Millam, M. Klene, C. Adamo, R. Cammi, 
 J. W. Ochterski, R. L. Martin, K. Morokuma, O. Farkas, 
 J. B. Foresman, and D. J. Fox, Gaussian, Inc., Wallingford CT, 2019.
 
 ******************************************
 Gaussian 16:  ES64L-G16RevC.01  3-Jul-2019
                 7-Jun-2022 
 ******************************************
 %mem=8gb
 %nproc=4
 Will use up to    4 processors via shared memory.
 %chk=conf-448.chk
 -------------------------------------------------------------------
 # B3LYP/6-31G* guess=read geom=check nosymm integral(ultrafinegrid)
 -------------------------------------------------------------------
 1/29=2,38=1,172=1/1;
 2/12=2,15=1,40=1/2;
 3/5=1,6=6,7=1,11=2,14=-4,25=1,30=1,74=-5,75=-5,116=-2/1,2,3;
 4/5=1/1;
 5/5=2,38=6/2;
 6/7=2,8=2,9=2,10=2,28=1/1;
 99/5=1,9=1/99;
 ------------------------------------------------------
 Candidate Structure: Conf:448 Charge calc in gas phase
 ------------------------------------------------------
 Structure from the checkpoint file:  "conf-448.chk"
 Charge =  1 Multiplicity = 1
 Redundant internal coordinates found in file.  (old form).
 N,0,-2.3036964245,-1.3461245682,4.5576659051
 H,0,-3.0463981604,-1.7428608936,5.1402383881
 H,0,-2.3065734739,-1.8341600488,3.6088458148
 H,0,-1.4075498541,-1.4718961889,5.0356110836
 C,0,-2.5704901229,0.0891759639,4.1539910339
 H,0,-3.3386909801,0.5160337666,4.7995266359
 C,0,-3.0473039384,-0.0623227141,2.6840389932
 C,0,-1.2840078782,0.9225629616,4.2431671862
 H,0,-0.8542849965,0.8281950692,5.2503139788
 H,0,-0.5331099302,0.5969742923,3.5135488793
 O,0,-2.8242129714,-1.1504372233,2.1250547944
 C,0,-1.625278474,2.4078143506,4.024359936
 N,0,-0.5986234992,3.1699532283,3.6193422092
 H,0,-0.8238510759,4.123797336,3.3628845063
 H,0,0.2001674957,2.7315197571,3.156606039
 O,0,-2.7687886371,2.816178104,4.2542043379
 N,0,-3.6098483742,1.007706435,2.1298242091
 H,0,-3.6355978378,1.858207423,2.6956720431
 C,0,-3.7379357715,1.1622521958,0.6705334325
 H,0,-3.9741362531,0.1764212319,0.2627878366
 C,0,-2.3542660141,1.6635391207,0.2003173327
 C,0,-4.8465125362,2.1748210217,0.3311447163
 H,0,-4.5354065278,3.1544298058,0.7105564659
 H,0,-4.8805114951,2.2609677318,-0.761925194
 O,0,-1.9280791668,2.7449030137,0.5957840158
 C,0,-6.2049239134,1.7880928646,0.8770099211
 C,0,-6.9651300015,0.7853861824,0.2592387523
 H,0,-6.5880994666,0.2996444609,-0.6389193319
 C,0,-6.7207976096,2.4140168578,2.0187407256
 H,0,-6.1527222689,3.2076469021,2.499894221
 C,0,-8.2072684935,0.413147049,0.7726156304
 H,0,-8.7871808823,-0.360185218,0.2763259261
 C,0,-7.9646788997,2.0449166286,2.534976287
 H,0,-8.3537777437,2.5482452654,3.4158578418
 C,0,-8.7100385622,1.0419449739,1.914191837
 H,0,-9.6811457384,0.7584023076,2.3101218072
 N,0,-1.6416493336,0.805426908,-0.5697485348
 H,0,-2.0521519272,-0.0426940959,-0.9431964081
 C,0,-0.2674554041,1.0642185981,-0.9416192051
 H,0,-0.1066120229,2.139783963,-0.835322959
 C,0,-0.0251560316,0.6168943076,-2.3877092992
 C,0,0.7552805914,0.2724264271,-0.0375017832
 H,0,1.4945610479,-0.2320096962,-0.6666447372
 H,0,0.2049809628,-0.4875322135,0.5209221234
 O,0,-0.6723593984,-0.2971746197,-2.8937242454
 C,0,1.4775248857,1.1708631389,0.9579987995
 N,0,2.594886813,1.7542135142,0.4887140401
 H,0,3.115831811,2.3595777894,1.1100309024
 H,0,3.0038462937,1.5126382888,-0.4205057837
 O,0,1.0346778626,1.3623404759,2.101955874
 N,0,1.0175713807,1.2588645332,-2.9781840415
 H,0,1.574556752,1.8530545963,-2.3653904628
 C,0,1.904860742,0.5826278598,-3.919441416
 H,0,1.5098819272,-0.4287007036,-4.0493172023
 C,0,3.3229387507,0.4623004958,-3.2433249984
 C,0,1.9697747359,1.3073566567,-5.2798758912
 H,0,1.9753954047,2.3864374992,-5.087173134
 H,0,2.933022529,1.0887074888,-5.7529905258
 O,0,4.1739511446,-0.2624213295,-3.8382335401
 C,0,0.8111392016,0.9930888106,-6.2441346476
 H,0,-0.1472382335,1.1711100539,-5.7398783611
 H,0,0.8529236281,1.6903444449,-7.0916591778
 C,0,0.7680007509,-0.4463292096,-6.7927355483
 H,0,0.5678557324,-1.163303881,-5.992910732
 H,0,-0.0526780721,-0.5552860431,-7.5065272266
 N,0,1.9996591545,-0.8487441066,-7.5040623986
 H,0,2.0843619072,-0.5415646204,-8.465652099
 N,0,3.1735279069,-1.7862920193,-5.6887574567
 H,0,3.7007595821,-1.2559463209,-4.8887253872
 H,0,2.2920092776,-2.1875002058,-5.3925807462
 N,0,4.3249356974,-0.8792272475,-7.4575107064
 H,0,5.1699047014,-1.2130633245,-7.0122494923
 H,0,4.4147414844,-0.1079555011,-8.1038738085
 C,0,3.1466208805,-1.1664967862,-6.8700904064
 O,0,3.4926828211,1.100868858,-2.1820582144
 Recover connectivity data from disk.
                           ----------------------------
                           !    Current Parameters    !
                           ! (Angstroms and Degrees)  !
 --------------------------                            --------------------------
 ! Name  Definition              Value                                          !
 --------------------------------------------------------------------------------
 ! R1    R(1,2)                  1.0239                                         !
 ! R2    R(1,3)                  1.067                                          !
 ! R3    R(1,4)                  1.0234                                         !
 ! R4    R(1,5)                  1.5147                                         !
 ! R5    R(5,6)                  1.0904                                         !
 ! R6    R(5,7)                  1.5528                                         !
 ! R7    R(5,8)                  1.5354                                         !
 ! R8    R(7,11)                 1.2435                                         !
 ! R9    R(7,17)                 1.3299                                         !
 ! R10   R(8,9)                  1.0991                                         !
 ! R11   R(8,10)                 1.0964                                         !
 ! R12   R(8,12)                 1.5396                                         !
 ! R13   R(12,13)                1.3412                                         !
 ! R14   R(12,16)                1.2358                                         !
 ! R15   R(13,14)                1.0131                                         !
 ! R16   R(13,15)                1.022                                          !
 ! R17   R(17,18)                1.0219                                         !
 ! R18   R(17,19)                1.473                                          !
 ! R19   R(19,20)                1.0927                                         !
 ! R20   R(19,21)                1.545                                          !
 ! R21   R(19,22)                1.5393                                         !
 ! R22   R(21,25)                1.2278                                         !
 ! R23   R(21,37)                1.3554                                         !
 ! R24   R(22,23)                1.0956                                         !
 ! R25   R(22,24)                1.097                                          !
 ! R26   R(22,26)                1.5142                                         !
 ! R27   R(26,27)                1.4018                                         !
 ! R28   R(26,29)                1.4005                                         !
 ! R29   R(27,28)                1.0885                                         !
 ! R30   R(27,31)                1.3946                                         !
 ! R31   R(29,30)                1.0881                                         !
 ! R32   R(29,33)                1.3964                                         !
 ! R33   R(31,32)                1.0866                                         !
 ! R34   R(31,35)                1.3969                                         !
 ! R35   R(33,34)                1.0866                                         !
 ! R36   R(33,35)                1.3953                                         !
 ! R37   R(35,36)                1.0864                                         !
 ! R38   R(37,38)                1.0136                                         !
 ! R39   R(37,39)                1.447                                          !
 ! R40   R(39,40)                1.0927                                         !
 ! R41   R(39,41)                1.533                                          !
 ! R42   R(39,42)                1.5781                                         !
 ! R43   R(41,45)                1.229                                          !
 ! R44   R(41,51)                1.3594                                         !
 ! R45   R(42,43)                1.094                                          !
 ! R46   R(42,44)                1.0919                                         !
 ! R47   R(42,46)                1.5231                                         !
 ! R48   R(46,47)                1.345                                          !
 ! R49   R(46,50)                1.2415                                         !
 ! R50   R(47,48)                1.0119                                         !
 ! R51   R(47,49)                1.0258                                         !
 ! R52   R(51,52)                1.0192                                         !
 ! R53   R(51,53)                1.4596                                         !
 ! R54   R(53,54)                1.0935                                         !
 ! R55   R(53,55)                1.5756                                         !
 ! R56   R(53,56)                1.5428                                         !
 ! R57   R(55,59)                1.2662                                         !
 ! R58   R(55,75)                1.2501                                         !
 ! R59   R(56,57)                1.0962                                         !
 ! R60   R(56,58)                1.0952                                         !
 ! R61   R(56,60)                1.5398                                         !
 ! R62   R(60,61)                1.0975                                         !
 ! R63   R(60,62)                1.0983                                         !
 ! R64   R(60,63)                1.541                                          !
 ! R65   R(63,64)                1.0926                                         !
 ! R66   R(63,65)                1.0931                                         !
 ! R67   R(63,66)                1.4781                                         !
 ! R68   R(66,67)                1.013                                          !
 ! R69   R(66,74)                1.3485                                         !
 ! R70   R(68,69)                1.0951                                         !
 ! R71   R(68,70)                1.0128                                         !
 ! R72   R(68,74)                1.3343                                         !
 ! R73   R(71,72)                1.0118                                         !
 ! R74   R(71,73)                1.0103                                         !
 ! R75   R(71,74)                1.3476                                         !
 ! A1    A(2,1,3)              109.0731                                         !
 ! A2    A(2,1,4)              108.7736                                         !
 ! A3    A(2,1,5)              113.0192                                         !
 ! A4    A(3,1,4)              111.1893                                         !
 ! A5    A(3,1,5)              101.3008                                         !
 ! A6    A(4,1,5)              113.2761                                         !
 ! A7    A(1,5,6)              109.7099                                         !
 ! A8    A(1,5,7)              102.3528                                         !
 ! A9    A(1,5,8)              110.5651                                         !
 ! A10   A(6,5,7)              112.4755                                         !
 ! A11   A(6,5,8)              110.085                                          !
 ! A12   A(7,5,8)              111.4216                                         !
 ! A13   A(5,7,11)             117.1194                                         !
 ! A14   A(5,7,17)             116.4814                                         !
 ! A15   A(11,7,17)            126.344                                          !
 ! A16   A(5,8,9)              109.5251                                         !
 ! A17   A(5,8,10)             111.9617                                         !
 ! A18   A(5,8,12)             109.2469                                         !
 ! A19   A(9,8,10)             108.4529                                         !
 ! A20   A(9,8,12)             107.442                                          !
 ! A21   A(10,8,12)            110.1026                                         !
 ! A22   A(8,12,13)            114.9247                                         !
 ! A23   A(8,12,16)            119.8321                                         !
 ! A24   A(13,12,16)           125.2175                                         !
 ! A25   A(12,13,14)           116.1857                                         !
 ! A26   A(12,13,15)           119.4226                                         !
 ! A27   A(14,13,15)           117.5858                                         !
 ! A28   A(7,17,18)            116.7162                                         !
 ! A29   A(7,17,19)            122.2797                                         !
 ! A30   A(18,17,19)           117.3267                                         !
 ! A31   A(17,19,20)           107.0871                                         !
 ! A32   A(17,19,21)           104.9324                                         !
 ! A33   A(17,19,22)           110.4914                                         !
 ! A34   A(20,19,21)           111.8864                                         !
 ! A35   A(20,19,22)           110.8265                                         !
 ! A36   A(21,19,22)           111.374                                          !
 ! A37   A(19,21,25)           119.9093                                         !
 ! A38   A(19,21,37)           115.9992                                         !
 ! A39   A(25,21,37)           123.9249                                         !
 ! A40   A(19,22,23)           107.8971                                         !
 ! A41   A(19,22,24)           107.0781                                         !
 ! A42   A(19,22,26)           113.4906                                         !
 ! A43   A(23,22,24)           106.4781                                         !
 ! A44   A(23,22,26)           110.9933                                         !
 ! A45   A(24,22,26)           110.5768                                         !
 ! A46   A(22,26,27)           120.6863                                         !
 ! A47   A(22,26,29)           120.6763                                         !
 ! A48   A(27,26,29)           118.6333                                         !
 ! A49   A(26,27,28)           119.6706                                         !
 ! A50   A(26,27,31)           120.7777                                         !
 ! A51   A(28,27,31)           119.5472                                         !
 ! A52   A(26,29,30)           119.6126                                         !
 ! A53   A(26,29,33)           120.7541                                         !
 ! A54   A(30,29,33)           119.6265                                         !
 ! A55   A(27,31,32)           119.8134                                         !
 ! A56   A(27,31,35)           120.0819                                         !
 ! A57   A(32,31,35)           120.1018                                         !
 ! A58   A(29,33,34)           119.7512                                         !
 ! A59   A(29,33,35)           120.09                                           !
 ! A60   A(34,33,35)           120.1561                                         !
 ! A61   A(31,35,33)           119.6623                                         !
 ! A62   A(31,35,36)           120.1376                                         !
 ! A63   A(33,35,36)           120.197                                          !
 ! A64   A(21,37,38)           121.7462                                         !
 ! A65   A(21,37,39)           122.1472                                         !
 ! A66   A(38,37,39)           116.0794                                         !
 ! A67   A(37,39,40)           106.9084                                         !
 ! A68   A(37,39,41)           109.8988                                         !
 ! A69   A(37,39,42)           112.2419                                         !
 ! A70   A(40,39,41)           110.8378                                         !
 ! A71   A(40,39,42)           110.044                                          !
 ! A72   A(41,39,42)           106.9541                                         !
 ! A73   A(39,41,45)           121.4791                                         !
 ! A74   A(39,41,51)           113.1522                                         !
 ! A75   A(45,41,51)           125.1916                                         !
 ! A76   A(39,42,43)           109.8663                                         !
 ! A77   A(39,42,44)           108.3968                                         !
 ! A78   A(39,42,46)           112.6943                                         !
 ! A79   A(43,42,44)           108.2868                                         !
 ! A80   A(43,42,46)           109.1126                                         !
 ! A81   A(44,42,46)           108.3773                                         !
 ! A82   A(42,46,47)           114.9436                                         !
 ! A83   A(42,46,50)           121.6051                                         !
 ! A84   A(47,46,50)           123.4302                                         !
 ! A85   A(46,47,48)           118.225                                          !
 ! A86   A(46,47,49)           122.5687                                         !
 ! A87   A(48,47,49)           118.6775                                         !
 ! A88   A(41,51,52)           115.6786                                         !
 ! A89   A(41,51,53)           121.842                                          !
 ! A90   A(52,51,53)           109.0023                                         !
 ! A91   A(51,53,54)           106.589                                          !
 ! A92   A(51,53,55)           107.8044                                         !
 ! A93   A(51,53,56)           112.1219                                         !
 ! A94   A(54,53,55)           107.7845                                         !
 ! A95   A(54,53,56)           110.1774                                         !
 ! A96   A(55,53,56)           112.1106                                         !
 ! A97   A(53,55,59)           116.5503                                         !
 ! A98   A(53,55,75)           116.5818                                         !
 ! A99   A(59,55,75)           126.8652                                         !
 ! A100  A(53,56,57)           107.9162                                         !
 ! A101  A(53,56,58)           108.9139                                         !
 ! A102  A(53,56,60)           115.1295                                         !
 ! A103  A(57,56,58)           105.543                                          !
 ! A104  A(57,56,60)           108.3524                                         !
 ! A105  A(58,56,60)           110.5196                                         !
 ! A106  A(56,60,61)           109.6486                                         !
 ! A107  A(56,60,62)           108.9684                                         !
 ! A108  A(56,60,63)           115.7622                                         !
 ! A109  A(61,60,62)           106.5474                                         !
 ! A110  A(61,60,63)           106.8962                                         !
 ! A111  A(62,60,63)           108.6237                                         !
 ! A112  A(60,63,64)           110.9442                                         !
 ! A113  A(60,63,65)           110.2786                                         !
 ! A114  A(60,63,66)           113.7211                                         !
 ! A115  A(64,63,65)           105.9663                                         !
 ! A116  A(64,63,66)           109.0418                                         !
 ! A117  A(65,63,66)           106.5114                                         !
 ! A118  A(63,66,67)           116.3543                                         !
 ! A119  A(63,66,74)           123.1362                                         !
 ! A120  A(67,66,74)           116.5262                                         !
 ! A121  A(69,68,70)           113.4057                                         !
 ! A122  A(69,68,74)           115.5653                                         !
 ! A123  A(70,68,74)           115.1734                                         !
 ! A124  A(72,71,73)           117.3358                                         !
 ! A125  A(72,71,74)           117.9086                                         !
 ! A126  A(73,71,74)           121.2879                                         !
 ! A127  A(66,74,68)           122.877                                          !
 ! A128  A(66,74,71)           119.2452                                         !
 ! A129  A(68,74,71)           117.8598                                         !
 ! D1    D(2,1,5,6)             17.1253                                         !
 ! D2    D(2,1,5,7)           -102.489                                          !
 ! D3    D(2,1,5,8)            138.7278                                         !
 ! D4    D(3,1,5,6)            133.6746                                         !
 ! D5    D(3,1,5,7)             14.0603                                         !
 ! D6    D(3,1,5,8)           -104.7229                                         !
 ! D7    D(4,1,5,6)           -107.1675                                         !
 ! D8    D(4,1,5,7)            133.2182                                         !
 ! D9    D(4,1,5,8)             14.435                                          !
 ! D10   D(1,5,7,11)           -15.3284                                         !
 ! D11   D(1,5,7,17)           167.1996                                         !
 ! D12   D(6,5,7,11)          -132.9891                                         !
 ! D13   D(6,5,7,17)            49.5389                                         !
 ! D14   D(8,5,7,11)           102.849                                          !
 ! D15   D(8,5,7,17)           -74.623                                          !
 ! D16   D(1,5,8,9)            -54.5455                                         !
 ! D17   D(1,5,8,10)            65.7933                                         !
 ! D18   D(1,5,8,12)          -171.9759                                         !
 ! D19   D(6,5,8,9)             66.8353                                         !
 ! D20   D(6,5,8,10)          -172.8259                                         !
 ! D21   D(6,5,8,12)           -50.5951                                         !
 ! D22   D(7,5,8,9)           -167.6646                                         !
 ! D23   D(7,5,8,10)           -47.3258                                         !
 ! D24   D(7,5,8,12)            74.9051                                         !
 ! D25   D(5,7,17,18)            3.3625                                         !
 ! D26   D(5,7,17,19)          161.1518                                         !
 ! D27   D(11,7,17,18)        -173.8437                                         !
 ! D28   D(11,7,17,19)         -16.0544                                         !
 ! D29   D(5,8,12,13)         -157.9081                                         !
 ! D30   D(5,8,12,16)           23.8403                                         !
 ! D31   D(9,8,12,13)           83.3564                                         !
 ! D32   D(9,8,12,16)          -94.8953                                         !
 ! D33   D(10,8,12,13)         -34.5674                                         !
 ! D34   D(10,8,12,16)         147.181                                          !
 ! D35   D(8,12,13,14)         172.9286                                         !
 ! D36   D(8,12,13,15)          22.4938                                         !
 ! D37   D(16,12,13,14)         -8.9279                                         !
 ! D38   D(16,12,13,15)       -159.3626                                         !
 ! D39   D(7,17,19,20)          38.1051                                         !
 ! D40   D(7,17,19,21)         -80.9459                                         !
 ! D41   D(7,17,19,22)         158.8996                                         !
 ! D42   D(18,17,19,20)       -164.2331                                         !
 ! D43   D(18,17,19,21)         76.7159                                         !
 ! D44   D(18,17,19,22)        -43.4386                                         !
 ! D45   D(17,19,21,25)        -62.6056                                         !
 ! D46   D(17,19,21,37)        112.8862                                         !
 ! D47   D(20,19,21,25)       -178.3811                                         !
 ! D48   D(20,19,21,37)         -2.8893                                         !
 ! D49   D(22,19,21,25)         56.9609                                         !
 ! D50   D(22,19,21,37)       -127.5473                                         !
 ! D51   D(17,19,22,23)         64.6583                                         !
 ! D52   D(17,19,22,24)        178.9282                                         !
 ! D53   D(17,19,22,26)        -58.767                                          !
 ! D54   D(20,19,22,23)       -176.8026                                         !
 ! D55   D(20,19,22,24)        -62.5327                                         !
 ! D56   D(20,19,22,26)         59.7721                                         !
 ! D57   D(21,19,22,23)        -51.5517                                         !
 ! D58   D(21,19,22,24)         62.7182                                         !
 ! D59   D(21,19,22,26)       -174.977                                          !
 ! D60   D(19,21,37,38)          9.9899                                         !
 ! D61   D(19,21,37,39)       -171.9842                                         !
 ! D62   D(25,21,37,38)       -174.72                                           !
 ! D63   D(25,21,37,39)          3.3059                                         !
 ! D64   D(19,22,26,27)        -76.3426                                         !
 ! D65   D(19,22,26,29)        102.9052                                         !
 ! D66   D(23,22,26,27)        161.9436                                         !
 ! D67   D(23,22,26,29)        -18.8086                                         !
 ! D68   D(24,22,26,27)         44.0016                                         !
 ! D69   D(24,22,26,29)       -136.7505                                         !
 ! D70   D(22,26,27,28)         -1.7819                                         !
 ! D71   D(22,26,27,31)        178.9901                                         !
 ! D72   D(29,26,27,28)        178.9552                                         !
 ! D73   D(29,26,27,31)         -0.2728                                         !
 ! D74   D(22,26,29,30)          1.9053                                         !
 ! D75   D(22,26,29,33)       -179.0518                                         !
 ! D76   D(27,26,29,30)       -178.8316                                         !
 ! D77   D(27,26,29,33)          0.2112                                         !
 ! D78   D(26,27,31,32)        179.4814                                         !
 ! D79   D(26,27,31,35)          0.1001                                         !
 ! D80   D(28,27,31,32)          0.2525                                         !
 ! D81   D(28,27,31,35)       -179.1288                                         !
 ! D82   D(26,29,33,34)       -179.3888                                         !
 ! D83   D(26,29,33,35)          0.023                                          !
 ! D84   D(30,29,33,34)         -0.3461                                         !
 ! D85   D(30,29,33,35)        179.0658                                         !
 ! D86   D(27,31,35,33)          0.1386                                         !
 ! D87   D(27,31,35,36)        179.4962                                         !
 ! D88   D(32,31,35,33)       -179.2409                                         !
 ! D89   D(32,31,35,36)          0.1167                                         !
 ! D90   D(29,33,35,31)         -0.1996                                         !
 ! D91   D(29,33,35,36)       -179.5568                                         !
 ! D92   D(34,33,35,31)        179.2099                                         !
 ! D93   D(34,33,35,36)         -0.1473                                         !
 ! D94   D(21,37,39,40)        -21.0949                                         !
 ! D95   D(21,37,39,41)       -141.4552                                         !
 ! D96   D(21,37,39,42)         99.6581                                         !
 ! D97   D(38,37,39,40)        157.0362                                         !
 ! D98   D(38,37,39,41)         36.6758                                         !
 ! D99   D(38,37,39,42)        -82.2109                                         !
 ! D100  D(37,39,41,45)        -28.4501                                         !
 ! D101  D(37,39,41,51)        156.1484                                         !
 ! D102  D(40,39,41,45)       -146.402                                          !
 ! D103  D(40,39,41,51)         38.1965                                         !
 ! D104  D(42,39,41,45)         93.6359                                         !
 ! D105  D(42,39,41,51)        -81.7656                                         !
 ! D106  D(37,39,42,43)        131.6469                                         !
 ! D107  D(37,39,42,44)         13.4974                                         !
 ! D108  D(37,39,42,46)       -106.4513                                         !
 ! D109  D(40,39,42,43)       -109.427                                          !
 ! D110  D(40,39,42,44)        132.4236                                         !
 ! D111  D(40,39,42,46)         12.4748                                         !
 ! D112  D(41,39,42,43)         11.0431                                         !
 ! D113  D(41,39,42,44)       -107.1063                                         !
 ! D114  D(41,39,42,46)        132.9449                                         !
 ! D115  D(39,41,51,52)          7.6528                                         !
 ! D116  D(39,41,51,53)        144.0296                                         !
 ! D117  D(45,41,51,52)       -167.548                                          !
 ! D118  D(45,41,51,53)        -31.1712                                         !
 ! D119  D(39,42,46,47)        -87.1343                                         !
 ! D120  D(39,42,46,50)         91.2507                                         !
 ! D121  D(43,42,46,47)         35.1925                                         !
 ! D122  D(43,42,46,50)       -146.4224                                         !
 ! D123  D(44,42,46,47)        152.9056                                         !
 ! D124  D(44,42,46,50)        -28.7093                                         !
 ! D125  D(42,46,47,48)       -179.8072                                         !
 ! D126  D(42,46,47,49)         -8.2651                                         !
 ! D127  D(50,46,47,48)          1.8409                                         !
 ! D128  D(50,46,47,49)        173.383                                          !
 ! D129  D(41,51,53,54)          3.2195                                         !
 ! D130  D(41,51,53,55)       -112.274                                          !
 ! D131  D(41,51,53,56)        123.8572                                         !
 ! D132  D(52,51,53,54)        142.1014                                         !
 ! D133  D(52,51,53,55)         26.608                                          !
 ! D134  D(52,51,53,56)        -97.2608                                         !
 ! D135  D(51,53,55,59)        170.4931                                         !
 ! D136  D(51,53,55,75)        -10.0656                                         !
 ! D137  D(54,53,55,59)         55.7891                                         !
 ! D138  D(54,53,55,75)       -124.7696                                         !
 ! D139  D(56,53,55,59)        -65.6312                                         !
 ! D140  D(56,53,55,75)        113.8101                                         !
 ! D141  D(51,53,56,57)         39.2948                                         !
 ! D142  D(51,53,56,58)        153.4035                                         !
 ! D143  D(51,53,56,60)        -81.8467                                         !
 ! D144  D(54,53,56,57)        157.8317                                         !
 ! D145  D(54,53,56,58)        -88.0595                                         !
 ! D146  D(54,53,56,60)         36.6903                                         !
 ! D147  D(55,53,56,57)        -82.1328                                         !
 ! D148  D(55,53,56,58)         31.976                                          !
 ! D149  D(55,53,56,60)        156.7258                                         !
 ! D150  D(53,56,60,61)         53.3886                                         !
 ! D151  D(53,56,60,62)        169.6522                                         !
 ! D152  D(53,56,60,63)        -67.6074                                         !
 ! D153  D(57,56,60,61)        -67.5153                                         !
 ! D154  D(57,56,60,62)         48.7483                                         !
 ! D155  D(57,56,60,63)        171.4887                                         !
 ! D156  D(58,56,60,61)        177.2957                                         !
 ! D157  D(58,56,60,62)        -66.4407                                         !
 ! D158  D(58,56,60,63)         56.2997                                         !
 ! D159  D(56,60,63,64)         66.007                                          !
 ! D160  D(56,60,63,65)       -176.9014                                         !
 ! D161  D(56,60,63,66)        -57.3436                                         !
 ! D162  D(61,60,63,64)        -56.4589                                         !
 ! D163  D(61,60,63,65)         60.6327                                         !
 ! D164  D(61,60,63,66)       -179.8095                                         !
 ! D165  D(62,60,63,64)       -171.0707                                         !
 ! D166  D(62,60,63,65)        -53.9791                                         !
 ! D167  D(62,60,63,66)         65.5787                                         !
 ! D168  D(60,63,66,67)        -81.1481                                         !
 ! D169  D(60,63,66,74)         75.5748                                         !
 ! D170  D(64,63,66,67)        154.4698                                         !
 ! D171  D(64,63,66,74)        -48.8072                                         !
 ! D172  D(65,63,66,67)         40.5272                                         !
 ! D173  D(65,63,66,74)       -162.7498                                         !
 ! D174  D(63,66,74,68)         34.507                                          !
 ! D175  D(63,66,74,71)       -147.0708                                         !
 ! D176  D(67,66,74,68)       -168.8068                                         !
 ! D177  D(67,66,74,71)          9.6154                                         !
 ! D178  D(69,68,74,66)       -122.2769                                         !
 ! D179  D(69,68,74,71)         59.2802                                         !
 ! D180  D(70,68,74,66)         13.0719                                         !
 ! D181  D(70,68,74,71)       -165.371                                          !
 ! D182  D(72,71,74,66)       -173.6395                                         !
 ! D183  D(72,71,74,68)          4.8617                                         !
 ! D184  D(73,71,74,66)         27.9312                                         !
 ! D185  D(73,71,74,68)       -153.5676                                         !
 --------------------------------------------------------------------------------
 Symmetry turned off by external request.
 Stoichiometry    C23H36N9O7(1+)
 Framework group  C1[X(C23H36N9O7)]
 Deg. of freedom   219
 Full point group                 C1      NOp   1
                          Input orientation:                          
 ---------------------------------------------------------------------
 Center     Atomic      Atomic             Coordinates (Angstroms)
 Number     Number       Type             X           Y           Z
 ---------------------------------------------------------------------
      1          7           0       -2.303696   -1.346125    4.557666
      2          1           0       -3.046398   -1.742861    5.140238
      3          1           0       -2.306573   -1.834160    3.608846
      4          1           0       -1.407550   -1.471896    5.035611
      5          6           0       -2.570490    0.089176    4.153991
      6          1           0       -3.338691    0.516034    4.799527
      7          6           0       -3.047304   -0.062323    2.684039
      8          6           0       -1.284008    0.922563    4.243167
      9          1           0       -0.854285    0.828195    5.250314
     10          1           0       -0.533110    0.596974    3.513549
     11          8           0       -2.824213   -1.150437    2.125055
     12          6           0       -1.625278    2.407814    4.024360
     13          7           0       -0.598623    3.169953    3.619342
     14          1           0       -0.823851    4.123797    3.362885
     15          1           0        0.200167    2.731520    3.156606
     16          8           0       -2.768789    2.816178    4.254204
     17          7           0       -3.609848    1.007706    2.129824
     18          1           0       -3.635598    1.858207    2.695672
     19          6           0       -3.737936    1.162252    0.670533
     20          1           0       -3.974136    0.176421    0.262788
     21          6           0       -2.354266    1.663539    0.200317
     22          6           0       -4.846513    2.174821    0.331145
     23          1           0       -4.535407    3.154430    0.710556
     24          1           0       -4.880511    2.260968   -0.761925
     25          8           0       -1.928079    2.744903    0.595784
     26          6           0       -6.204924    1.788093    0.877010
     27          6           0       -6.965130    0.785386    0.259239
     28          1           0       -6.588099    0.299644   -0.638919
     29          6           0       -6.720798    2.414017    2.018741
     30          1           0       -6.152722    3.207647    2.499894
     31          6           0       -8.207268    0.413147    0.772616
     32          1           0       -8.787181   -0.360185    0.276326
     33          6           0       -7.964679    2.044917    2.534976
     34          1           0       -8.353778    2.548245    3.415858
     35          6           0       -8.710039    1.041945    1.914192
     36          1           0       -9.681146    0.758402    2.310122
     37          7           0       -1.641649    0.805427   -0.569749
     38          1           0       -2.052152   -0.042694   -0.943196
     39          6           0       -0.267455    1.064219   -0.941619
     40          1           0       -0.106612    2.139784   -0.835323
     41          6           0       -0.025156    0.616894   -2.387709
     42          6           0        0.755281    0.272426   -0.037502
     43          1           0        1.494561   -0.232010   -0.666645
     44          1           0        0.204981   -0.487532    0.520922
     45          8           0       -0.672359   -0.297175   -2.893724
     46          6           0        1.477525    1.170863    0.957999
     47          7           0        2.594887    1.754214    0.488714
     48          1           0        3.115832    2.359578    1.110031
     49          1           0        3.003846    1.512638   -0.420506
     50          8           0        1.034678    1.362340    2.101956
     51          7           0        1.017571    1.258865   -2.978184
     52          1           0        1.574557    1.853055   -2.365390
     53          6           0        1.904861    0.582628   -3.919441
     54          1           0        1.509882   -0.428701   -4.049317
     55          6           0        3.322939    0.462300   -3.243325
     56          6           0        1.969775    1.307357   -5.279876
     57          1           0        1.975395    2.386437   -5.087173
     58          1           0        2.933023    1.088707   -5.752991
     59          8           0        4.173951   -0.262421   -3.838234
     60          6           0        0.811139    0.993089   -6.244135
     61          1           0       -0.147238    1.171110   -5.739878
     62          1           0        0.852924    1.690344   -7.091659
     63          6           0        0.768001   -0.446329   -6.792736
     64          1           0        0.567856   -1.163304   -5.992911
     65          1           0       -0.052678   -0.555286   -7.506527
     66          7           0        1.999659   -0.848744   -7.504062
     67          1           0        2.084362   -0.541565   -8.465652
     68          7           0        3.173528   -1.786292   -5.688757
     69          1           0        3.700760   -1.255946   -4.888725
     70          1           0        2.292009   -2.187500   -5.392581
     71          7           0        4.324936   -0.879227   -7.457511
     72          1           0        5.169905   -1.213063   -7.012249
     73          1           0        4.414741   -0.107956   -8.103874
     74          6           0        3.146621   -1.166497   -6.870090
     75          8           0        3.492683    1.100869   -2.182058
 ---------------------------------------------------------------------
 Rotational constants (GHZ):           0.1496444           0.0411201           0.0352567
 Standard basis: 6-31G(d) (6D, 7F)
   657 basis functions,  1236 primitive gaussians,   657 cartesian basis functions
   146 alpha electrons      146 beta electrons
       nuclear repulsion energy      4629.8034779712 Hartrees.
 NAtoms=   75 NActive=   75 NUniq=   75 SFac= 1.00D+00 NAtFMM=   60 NAOKFM=T Big=T
 Integral buffers will be    131072 words long.
 Raffenetti 2 integral format.
 Two-electron integral symmetry is turned off.
 One-electron integrals computed using PRISM.
 NBasis=   657 RedAO= T EigKep=  4.68D-04  NBF=   657
 NBsUse=   657 1.00D-06 EigRej= -1.00D+00 NBFU=   657
 Initial guess from the checkpoint file:  "conf-448.chk"
 B after Tr=     0.000000    0.000000    0.000000
         Rot=    1.000000    0.000000    0.000000    0.000000 Ang=   0.00 deg.
 Requested convergence on RMS density matrix=1.00D-08 within 128 cycles.
 Requested convergence on MAX density matrix=1.00D-06.
 Requested convergence on             energy=1.00D-06.
 No special actions if energy rises.
 SCF Done:  E(RB3LYP) =  -1917.36788239     A.U. after    1 cycles
            NFock=  1  Conv=0.65D-08     -V/T= 2.0094

 **********************************************************************

            Population analysis using the SCF Density.

 **********************************************************************

 Alpha  occ. eigenvalues --  -19.25690 -19.21266 -19.20093 -19.20005 -19.19900
 Alpha  occ. eigenvalues --  -19.16777 -19.16438 -14.58910 -14.48685 -14.48407
 Alpha  occ. eigenvalues --  -14.47852 -14.44912 -14.44357 -14.43801 -14.42786
 Alpha  occ. eigenvalues --  -14.42623 -10.43602 -10.42105 -10.39187 -10.39074
 Alpha  occ. eigenvalues --  -10.37480 -10.37462 -10.36636 -10.34637 -10.33232
 Alpha  occ. eigenvalues --  -10.33115 -10.32218 -10.32042 -10.29597 -10.28078
 Alpha  occ. eigenvalues --  -10.27862 -10.27619 -10.26907 -10.26722 -10.25673
 Alpha  occ. eigenvalues --  -10.25614 -10.25533 -10.25481 -10.25349  -1.18003
 Alpha  occ. eigenvalues --   -1.12960  -1.12741  -1.12355  -1.12207  -1.11371
 Alpha  occ. eigenvalues --   -1.11151  -1.09706  -1.04698  -1.02321  -1.01723
 Alpha  occ. eigenvalues --   -1.01215  -0.99607  -0.99461  -0.99062  -0.97909
 Alpha  occ. eigenvalues --   -0.92631  -0.91615  -0.88553  -0.87662  -0.85928
 Alpha  occ. eigenvalues --   -0.82384  -0.81984  -0.80955  -0.80096  -0.77717
 Alpha  occ. eigenvalues --   -0.75848  -0.73622  -0.72943  -0.72716  -0.72509
 Alpha  occ. eigenvalues --   -0.70475  -0.69397  -0.68605  -0.67578  -0.67188
 Alpha  occ. eigenvalues --   -0.67047  -0.66322  -0.66188  -0.65670  -0.65235
 Alpha  occ. eigenvalues --   -0.64128  -0.62591  -0.62102  -0.61848  -0.61656
 Alpha  occ. eigenvalues --   -0.61124  -0.60426  -0.59419  -0.58376  -0.58008
 Alpha  occ. eigenvalues --   -0.57517  -0.57013  -0.56588  -0.55959  -0.55515
 Alpha  occ. eigenvalues --   -0.54819  -0.54517  -0.53390  -0.52948  -0.52635
 Alpha  occ. eigenvalues --   -0.52561  -0.52319  -0.52001  -0.51377  -0.51272
 Alpha  occ. eigenvalues --   -0.50721  -0.50384  -0.49362  -0.49230  -0.48816
 Alpha  occ. eigenvalues --   -0.48523  -0.48264  -0.48120  -0.47642  -0.47429
 Alpha  occ. eigenvalues --   -0.47108  -0.46677  -0.46145  -0.46004  -0.45755
 Alpha  occ. eigenvalues --   -0.45549  -0.44924  -0.43708  -0.43567  -0.43179
 Alpha  occ. eigenvalues --   -0.42219  -0.41299  -0.40769  -0.40673  -0.40203
 Alpha  occ. eigenvalues --   -0.38907  -0.38562  -0.37355  -0.36447  -0.35221
 Alpha  occ. eigenvalues --   -0.35145  -0.34729  -0.34554  -0.34316  -0.33534
 Alpha  occ. eigenvalues --   -0.32741  -0.32144  -0.31571  -0.31073  -0.30662
 Alpha  occ. eigenvalues --   -0.30275
 Alpha virt. eigenvalues --   -0.11164  -0.10090  -0.10014  -0.08102  -0.07735
 Alpha virt. eigenvalues --   -0.06992  -0.06700  -0.05645  -0.04863  -0.04538
 Alpha virt. eigenvalues --   -0.04505  -0.02551  -0.01363  -0.00976  -0.00520
 Alpha virt. eigenvalues --   -0.00480   0.01059   0.01570   0.02179   0.02250
 Alpha virt. eigenvalues --    0.02655   0.02820   0.03407   0.04024   0.04366
 Alpha virt. eigenvalues --    0.04852   0.05107   0.05354   0.05708   0.06083
 Alpha virt. eigenvalues --    0.06373   0.06969   0.07426   0.07668   0.08116
 Alpha virt. eigenvalues --    0.08536   0.08773   0.09502   0.09941   0.10076
 Alpha virt. eigenvalues --    0.10523   0.10707   0.11086   0.11310   0.11551
 Alpha virt. eigenvalues --    0.11946   0.12722   0.12912   0.13057   0.13333
 Alpha virt. eigenvalues --    0.13595   0.14254   0.14895   0.15192   0.16090
 Alpha virt. eigenvalues --    0.16605   0.16814   0.17083   0.17816   0.18027
 Alpha virt. eigenvalues --    0.18393   0.19277   0.19366   0.20023   0.21403
 Alpha virt. eigenvalues --    0.22312   0.24193   0.25194   0.25527   0.26661
 Alpha virt. eigenvalues --    0.26760   0.26938   0.28087   0.28363   0.29494
 Alpha virt. eigenvalues --    0.29728   0.30163   0.30747   0.31169   0.32763
 Alpha virt. eigenvalues --    0.33840   0.35488   0.37112   0.37623   0.38473
 Alpha virt. eigenvalues --    0.39659   0.40927   0.41396   0.42138   0.42345
 Alpha virt. eigenvalues --    0.43084   0.43594   0.44465   0.44999   0.45512
 Alpha virt. eigenvalues --    0.45688   0.45991   0.46354   0.47067   0.47237
 Alpha virt. eigenvalues --    0.47622   0.48058   0.48557   0.48888   0.49048
 Alpha virt. eigenvalues --    0.49677   0.50192   0.50864   0.51337   0.51756
 Alpha virt. eigenvalues --    0.51877   0.52235   0.52494   0.52709   0.53002
 Alpha virt. eigenvalues --    0.53102   0.53734   0.54022   0.54411   0.54650
 Alpha virt. eigenvalues --    0.54889   0.55064   0.55322   0.55840   0.56135
 Alpha virt. eigenvalues --    0.56473   0.56880   0.57497   0.57871   0.57925
 Alpha virt. eigenvalues --    0.58487   0.58558   0.58824   0.58975   0.59608
 Alpha virt. eigenvalues --    0.60015   0.60392   0.60902   0.61212   0.61733
 Alpha virt. eigenvalues --    0.62004   0.62821   0.63167   0.63353   0.64797
 Alpha virt. eigenvalues --    0.64996   0.65809   0.66252   0.66421   0.67787
 Alpha virt. eigenvalues --    0.68269   0.68552   0.68993   0.69654   0.70157
 Alpha virt. eigenvalues --    0.70600   0.70742   0.71534   0.71844   0.72208
 Alpha virt. eigenvalues --    0.72357   0.73619   0.74186   0.74386   0.75496
 Alpha virt. eigenvalues --    0.75843   0.75901   0.76158   0.76514   0.76820
 Alpha virt. eigenvalues --    0.77073   0.77334   0.77870   0.77938   0.78351
 Alpha virt. eigenvalues --    0.78811   0.79043   0.79323   0.79587   0.80015
 Alpha virt. eigenvalues --    0.80374   0.80699   0.81929   0.82384   0.82866
 Alpha virt. eigenvalues --    0.83216   0.83838   0.83895   0.84132   0.84708
 Alpha virt. eigenvalues --    0.85077   0.85306   0.85514   0.86264   0.86519
 Alpha virt. eigenvalues --    0.86938   0.87479   0.88082   0.88252   0.88774
 Alpha virt. eigenvalues --    0.89213   0.89447   0.90100   0.90768   0.91368
 Alpha virt. eigenvalues --    0.91863   0.92213   0.92517   0.93243   0.94287
 Alpha virt. eigenvalues --    0.94446   0.95572   0.96652   0.97236   0.97779
 Alpha virt. eigenvalues --    0.98319   0.98916   1.00851   1.01283   1.01905
 Alpha virt. eigenvalues --    1.02637   1.03841   1.04389   1.04711   1.05065
 Alpha virt. eigenvalues --    1.05948   1.06414   1.06925   1.08050   1.08625
 Alpha virt. eigenvalues --    1.09805   1.09983   1.10551   1.11002   1.11094
 Alpha virt. eigenvalues --    1.12158   1.12303   1.13031   1.14221   1.14581
 Alpha virt. eigenvalues --    1.15660   1.16757   1.17545   1.19484   1.19852
 Alpha virt. eigenvalues --    1.20650   1.21427   1.21939   1.23655   1.23991
 Alpha virt. eigenvalues --    1.24766   1.25871   1.26355   1.26707   1.27790
 Alpha virt. eigenvalues --    1.28964   1.29300   1.31112   1.31405   1.31944
 Alpha virt. eigenvalues --    1.33686   1.34390   1.35570   1.36472   1.36581
 Alpha virt. eigenvalues --    1.37873   1.37937   1.38418   1.39131   1.40064
 Alpha virt. eigenvalues --    1.40882   1.41318   1.41859   1.42125   1.42646
 Alpha virt. eigenvalues --    1.43103   1.44167   1.44664   1.44788   1.45126
 Alpha virt. eigenvalues --    1.46296   1.47998   1.49072   1.49877   1.50405
 Alpha virt. eigenvalues --    1.51133   1.51890   1.53206   1.53976   1.56093
 Alpha virt. eigenvalues --    1.57024   1.58437   1.58767   1.59814   1.60895
 Alpha virt. eigenvalues --    1.61368   1.62134   1.62605   1.62844   1.63804
 Alpha virt. eigenvalues --    1.64953   1.65515   1.66026   1.66889   1.67587
 Alpha virt. eigenvalues --    1.67673   1.68365   1.69149   1.69636   1.70555
 Alpha virt. eigenvalues --    1.71408   1.71766   1.71839   1.72468   1.73330
 Alpha virt. eigenvalues --    1.74107   1.74359   1.74938   1.75266   1.75879
 Alpha virt. eigenvalues --    1.76458   1.77144   1.78337   1.78470   1.78945
 Alpha virt. eigenvalues --    1.79246   1.79726   1.79846   1.80038   1.80852
 Alpha virt. eigenvalues --    1.81408   1.82177   1.82734   1.83354   1.84863
 Alpha virt. eigenvalues --    1.85113   1.85502   1.85799   1.86362   1.86860
 Alpha virt. eigenvalues --    1.87164   1.87448   1.87904   1.88365   1.89844
 Alpha virt. eigenvalues --    1.90048   1.90313   1.90751   1.91690   1.91726
 Alpha virt. eigenvalues --    1.92318   1.93177   1.93746   1.94460   1.95085
 Alpha virt. eigenvalues --    1.96046   1.96519   1.98232   1.98666   1.99723
 Alpha virt. eigenvalues --    2.00918   2.01279   2.01509   2.02322   2.02698
 Alpha virt. eigenvalues --    2.03973   2.04896   2.05655   2.05838   2.07005
 Alpha virt. eigenvalues --    2.07085   2.07790   2.08779   2.09341   2.09703
 Alpha virt. eigenvalues --    2.10691   2.10761   2.11903   2.12254   2.13079
 Alpha virt. eigenvalues --    2.14125   2.14319   2.15314   2.16075   2.17889
 Alpha virt. eigenvalues --    2.18779   2.19365   2.20104   2.20848   2.22662
 Alpha virt. eigenvalues --    2.23500   2.24375   2.24874   2.26208   2.26621
 Alpha virt. eigenvalues --    2.27390   2.28399   2.28488   2.29155   2.30087
 Alpha virt. eigenvalues --    2.31515   2.32603   2.32953   2.34081   2.34502
 Alpha virt. eigenvalues --    2.35112   2.36088   2.37317   2.38702   2.39095
 Alpha virt. eigenvalues --    2.39940   2.40457   2.42448   2.43293   2.44367
 Alpha virt. eigenvalues --    2.45136   2.46490   2.47156   2.47910   2.49083
 Alpha virt. eigenvalues --    2.49611   2.51238   2.51534   2.52339   2.53081
 Alpha virt. eigenvalues --    2.53977   2.54893   2.55503   2.56141   2.57916
 Alpha virt. eigenvalues --    2.58420   2.59200   2.59284   2.59781   2.60294
 Alpha virt. eigenvalues --    2.61775   2.62377   2.63451   2.65071   2.65928
 Alpha virt. eigenvalues --    2.67051   2.67877   2.68653   2.69246   2.69685
 Alpha virt. eigenvalues --    2.71167   2.71539   2.74432   2.75373   2.76755
 Alpha virt. eigenvalues --    2.77522   2.81395   2.83798   2.85499   2.87483
 Alpha virt. eigenvalues --    2.87884   2.88295   2.89932   2.90681   2.91268
 Alpha virt. eigenvalues --    2.93660   2.94523   2.95470   2.97749   2.98568
 Alpha virt. eigenvalues --    2.98775   3.01069   3.03514   3.03988   3.09362
 Alpha virt. eigenvalues --    3.11901   3.34277   3.64958   3.69433   3.78314
 Alpha virt. eigenvalues --    3.78775   3.83474   3.87533   3.90082   3.95351
 Alpha virt. eigenvalues --    3.96481   4.01047   4.02351   4.03062   4.05382
 Alpha virt. eigenvalues --    4.06564   4.07538   4.09370   4.09810   4.11049
 Alpha virt. eigenvalues --    4.16467   4.17000   4.17925   4.21101   4.22126
 Alpha virt. eigenvalues --    4.24061   4.26789   4.31695   4.33979   4.34559
 Alpha virt. eigenvalues --    4.34703   4.37775   4.38413   4.45349   4.47339
 Alpha virt. eigenvalues --    4.50761   4.53183   4.57963   4.60815   4.62372
 Alpha virt. eigenvalues --    4.64059
          Condensed to atoms (all electrons):
 Mulliken charges:
               1
     1  N   -0.761740
     2  H    0.415964
     3  H    0.430475
     4  H    0.412708
     5  C   -0.105331
     6  H    0.237867
     7  C    0.644288
     8  C   -0.418134
     9  H    0.195037
    10  H    0.233460
    11  O   -0.552538
    12  C    0.612363
    13  N   -0.740491
    14  H    0.359310
    15  H    0.398476
    16  O   -0.534866
    17  N   -0.585805
    18  H    0.396633
    19  C   -0.064076
    20  H    0.180042
    21  C    0.633317
    22  C   -0.396814
    23  H    0.186850
    24  H    0.175264
    25  O   -0.534172
    26  C    0.181088
    27  C   -0.182828
    28  H    0.126392
    29  C   -0.198090
    30  H    0.138637
    31  C   -0.128314
    32  H    0.142843
    33  C   -0.130071
    34  H    0.143470
    35  C   -0.129682
    36  H    0.144275
    37  N   -0.601288
    38  H    0.352852
    39  C   -0.059448
    40  H    0.206367
    41  C    0.583684
    42  C   -0.367612
    43  H    0.190528
    44  H    0.174053
    45  O   -0.536296
    46  C    0.584592
    47  N   -0.760696
    48  H    0.344558
    49  H    0.425064
    50  O   -0.552667
    51  N   -0.572776
    52  H    0.339494
    53  C   -0.093003
    54  H    0.141549
    55  C    0.617034
    56  C   -0.272672
    57  H    0.166546
    58  H    0.142222
    59  O   -0.597624
    60  C   -0.266633
    61  H    0.180914
    62  H    0.145191
    63  C   -0.180188
    64  H    0.183225
    65  H    0.185829
    66  N   -0.571931
    67  H    0.349187
    68  N   -0.752388
    69  H    0.430980
    70  H    0.346276
    71  N   -0.727651
    72  H    0.389179
    73  H    0.364108
    74  C    0.716633
    75  O   -0.573001
 Sum of Mulliken charges =   1.00000
 Mulliken charges with hydrogens summed into heavy atoms:
               1
     1  N    0.497406
     5  C    0.132536
     7  C    0.644288
     8  C    0.010364
    11  O   -0.552538
    12  C    0.612363
    13  N    0.017295
    16  O   -0.534866
    17  N   -0.189172
    19  C    0.115966
    21  C    0.633317
    22  C   -0.034700
    25  O   -0.534172
    26  C    0.181088
    27  C   -0.056436
    29  C   -0.059453
    31  C    0.014530
    33  C    0.013399
    35  C    0.014594
    37  N   -0.248435
    39  C    0.146919
    41  C    0.583684
    42  C   -0.003032
    45  O   -0.536296
    46  C    0.584592
    47  N    0.008925
    50  O   -0.552667
    51  N   -0.233282
    53  C    0.048547
    55  C    0.617034
    56  C    0.036096
    59  O   -0.597624
    60  C    0.059472
    63  C    0.188866
    66  N   -0.222744
    68  N    0.024867
    71  N    0.025637
    74  C    0.716633
    75  O   -0.573001
 Electronic spatial extent (au):  <R**2>=          31436.6535
 Charge=              1.0000 electrons
 Dipole moment (field-independent basis, Debye):
    X=             -3.8798    Y=             -3.5008    Z=             -3.2125  Tot=              6.1342
 Quadrupole moment (field-independent basis, Debye-Ang):
   XX=           -177.1481   YY=           -215.0522   ZZ=            -10.1510
   XY=             10.5677   XZ=            -75.8507   YZ=            -15.5050
 Traceless Quadrupole moment (field-independent basis, Debye-Ang):
   XX=            -43.0310   YY=            -80.9352   ZZ=            123.9661
   XY=             10.5677   XZ=            -75.8507   YZ=            -15.5050
 Octapole moment (field-independent basis, Debye-Ang**2):
  XXX=            532.9547  YYY=           -520.9409  ZZZ=           -422.5595  XYY=            274.7257
  XXY=           -210.8952  XXZ=             95.8247  XZZ=            527.3988  YZZ=           -313.6532
  YYZ=            178.0481  XYZ=             70.9903
 Hexadecapole moment (field-independent basis, Debye-Ang**3):
 XXXX=         -16643.6104 YYYY=          -2989.8773 ZZZZ=          -7342.3178 XXXY=           1705.0351
 XXXZ=           3389.9443 YYYX=           1765.2532 YYYZ=          -1071.5674 ZZZX=            578.1692
 ZZZY=          -1633.1091 XXYY=          -3720.6024 XXZZ=          -4064.6975 YYZZ=          -3495.8951
 XXYZ=           -248.3882 YYXZ=           1612.4475 ZZXY=            751.6589
 N-N= 4.629803477971D+03 E-N=-1.370434959968D+04  KE= 1.899598571773D+03
 Unable to Open any file for archive entry.
 1\1\GINC-AMR-126\SP\RB3LYP\6-31G(d)\C23H36N9O7(1+)\KENGMITH\07-Jun-202
 2\0\\# B3LYP/6-31G* guess=read geom=check nosymm integral(ultrafinegri
 d)\\Candidate Structure: Conf:448 Charge calc in gas phase\\1,1\N,0,-2
 .3036964245,-1.3461245682,4.5576659051\H,0,-3.0463981604,-1.7428608936
 ,5.1402383881\H,0,-2.3065734739,-1.8341600488,3.6088458148\H,0,-1.4075
 498541,-1.4718961889,5.0356110836\C,0,-2.5704901229,0.0891759639,4.153
 9910339\H,0,-3.3386909801,0.5160337666,4.7995266359\C,0,-3.0473039384,
 -0.0623227141,2.6840389932\C,0,-1.2840078782,0.9225629616,4.2431671862
 \H,0,-0.8542849965,0.8281950692,5.2503139788\H,0,-0.5331099302,0.59697
 42923,3.5135488793\O,0,-2.8242129714,-1.1504372233,2.1250547944\C,0,-1
 .625278474,2.4078143506,4.024359936\N,0,-0.5986234992,3.1699532283,3.6
 193422092\H,0,-0.8238510759,4.123797336,3.3628845063\H,0,0.2001674957,
 2.7315197571,3.156606039\O,0,-2.7687886371,2.816178104,4.2542043379\N,
 0,-3.6098483742,1.007706435,2.1298242091\H,0,-3.6355978378,1.858207423
 ,2.6956720431\C,0,-3.7379357715,1.1622521958,0.6705334325\H,0,-3.97413
 62531,0.1764212319,0.2627878366\C,0,-2.3542660141,1.6635391207,0.20031
 73327\C,0,-4.8465125362,2.1748210217,0.3311447163\H,0,-4.5354065278,3.
 1544298058,0.7105564659\H,0,-4.8805114951,2.2609677318,-0.761925194\O,
 0,-1.9280791668,2.7449030137,0.5957840158\C,0,-6.2049239134,1.78809286
 46,0.8770099211\C,0,-6.9651300015,0.7853861824,0.2592387523\H,0,-6.588
 0994666,0.2996444609,-0.6389193319\C,0,-6.7207976096,2.4140168578,2.01
 87407256\H,0,-6.1527222689,3.2076469021,2.499894221\C,0,-8.2072684935,
 0.413147049,0.7726156304\H,0,-8.7871808823,-0.360185218,0.2763259261\C
 ,0,-7.9646788997,2.0449166286,2.534976287\H,0,-8.3537777437,2.54824526
 54,3.4158578418\C,0,-8.7100385622,1.0419449739,1.914191837\H,0,-9.6811
 457384,0.7584023076,2.3101218072\N,0,-1.6416493336,0.805426908,-0.5697
 485348\H,0,-2.0521519272,-0.0426940959,-0.9431964081\C,0,-0.2674554041
 ,1.0642185981,-0.9416192051\H,0,-0.1066120229,2.139783963,-0.835322959
 \C,0,-0.0251560316,0.6168943076,-2.3877092992\C,0,0.7552805914,0.27242
 64271,-0.0375017832\H,0,1.4945610479,-0.2320096962,-0.6666447372\H,0,0
 .2049809628,-0.4875322135,0.5209221234\O,0,-0.6723593984,-0.2971746197
 ,-2.8937242454\C,0,1.4775248857,1.1708631389,0.9579987995\N,0,2.594886
 813,1.7542135142,0.4887140401\H,0,3.115831811,2.3595777894,1.110030902
 4\H,0,3.0038462937,1.5126382888,-0.4205057837\O,0,1.0346778626,1.36234
 04759,2.101955874\N,0,1.0175713807,1.2588645332,-2.9781840415\H,0,1.57
 4556752,1.8530545963,-2.3653904628\C,0,1.904860742,0.5826278598,-3.919
 441416\H,0,1.5098819272,-0.4287007036,-4.0493172023\C,0,3.3229387507,0
 .4623004958,-3.2433249984\C,0,1.9697747359,1.3073566567,-5.2798758912\
 H,0,1.9753954047,2.3864374992,-5.087173134\H,0,2.933022529,1.088707488
 8,-5.7529905258\O,0,4.1739511446,-0.2624213295,-3.8382335401\C,0,0.811
 1392016,0.9930888106,-6.2441346476\H,0,-0.1472382335,1.1711100539,-5.7
 398783611\H,0,0.8529236281,1.6903444449,-7.0916591778\C,0,0.7680007509
 ,-0.4463292096,-6.7927355483\H,0,0.5678557324,-1.163303881,-5.99291073
 2\H,0,-0.0526780721,-0.5552860431,-7.5065272266\N,0,1.9996591545,-0.84
 87441066,-7.5040623986\H,0,2.0843619072,-0.5415646204,-8.465652099\N,0
 ,3.1735279069,-1.7862920193,-5.6887574567\H,0,3.7007595821,-1.25594632
 09,-4.8887253872\H,0,2.2920092776,-2.1875002058,-5.3925807462\N,0,4.32
 49356974,-0.8792272475,-7.4575107064\H,0,5.1699047014,-1.2130633245,-7
 .0122494923\H,0,4.4147414844,-0.1079555011,-8.1038738085\C,0,3.1466208
 805,-1.1664967862,-6.8700904064\O,0,3.4926828211,1.100868858,-2.182058
 2144\\Version=ES64L-G16RevC.01\HF=-1917.3678824\RMSD=6.515e-09\Dipole=
 0.4062046,-2.8369572,-0.0577795\Quadrupole=-31.9924682,-60.1733005,92.
 1657688,7.8568269,-56.393164,-11.5275698\PG=C01 [X(C23H36N9O7)]\\@
 The archive entry for this job was punched.


 It is also a good rule not to put too much confidence in
 experimental results until they have been confirmed by
 Theory.
                             -- Sir Arthur Eddington
 Job cpu time:       0 days  0 hours  1 minutes 26.5 seconds.
 Elapsed time:       0 days  0 hours  0 minutes 22.6 seconds.
 File lengths (MBytes):  RWF=    344 Int=      0 D2E=      0 Chk=     48 Scr=     16
 Normal termination of Gaussian 16 at Tue Jun  7 03:12:56 2022.
