 Entering Gaussian System, Link 0=/opt/software/Gaussian/g16-AVX2-C.01/g16/g16
 Input=charge-conf-315.com
 Output=charge-conf-315.log
 Initial command:
 /opt/software/Gaussian/g16-AVX2-C.01/g16/l1.exe "/mnt/gs18/scratch/users/kengmith/Gau-16890.inp" -scrdir="/mnt/gs18/scratch/users/kengmith/"
 Entering Link 1 = /opt/software/Gaussian/g16-AVX2-C.01/g16/l1.exe PID=     16901.
  
 Copyright (c) 1988-2019, Gaussian, Inc.  All Rights Reserved.
  
 This is part of the Gaussian(R) 16 program.  It is based on
 the Gaussian(R) 09 system (copyright 2009, Gaussian, Inc.),
 the Gaussian(R) 03 system (copyright 2003, Gaussian, Inc.),
 the Gaussian(R) 98 system (copyright 1998, Gaussian, Inc.),
 the Gaussian(R) 94 system (copyright 1995, Gaussian, Inc.),
 the Gaussian 92(TM) system (copyright 1992, Gaussian, Inc.),
 the Gaussian 90(TM) system (copyright 1990, Gaussian, Inc.),
 the Gaussian 88(TM) system (copyright 1988, Gaussian, Inc.),
 the Gaussian 86(TM) system (copyright 1986, Carnegie Mellon
 University), and the Gaussian 82(TM) system (copyright 1983,
 Carnegie Mellon University). Gaussian is a federally registered
 trademark of Gaussian, Inc.
  
 This software contains proprietary and confidential information,
 including trade secrets, belonging to Gaussian, Inc.
  
 This software is provided under written license and may be
 used, copied, transmitted, or stored only in accord with that
 written license.
  
 The following legend is applicable only to US Government
 contracts under FAR:
  
                    RESTRICTED RIGHTS LEGEND
  
 Use, reproduction and disclosure by the US Government is
 subject to restrictions as set forth in subparagraphs (a)
 and (c) of the Commercial Computer Software - Restricted
 Rights clause in FAR 52.227-19.
  
 Gaussian, Inc.
 340 Quinnipiac St., Bldg. 40, Wallingford CT 06492
  
  
 ---------------------------------------------------------------
 Warning -- This program may not be used in any manner that
 competes with the business of Gaussian, Inc. or will provide
 assistance to any competitor of Gaussian, Inc.  The licensee
 of this program is prohibited from giving any competitor of
 Gaussian, Inc. access to this program.  By using this program,
 the user acknowledges that Gaussian, Inc. is engaged in the
 business of creating and licensing software in the field of
 computational chemistry and represents and warrants to the
 licensee that it is not a competitor of Gaussian, Inc. and that
 it will not use this program in any manner prohibited above.
 ---------------------------------------------------------------
  

 Cite this work as:
 Gaussian 16, Revision C.01,
 M. J. Frisch, G. W. Trucks, H. B. Schlegel, G. E. Scuseria, 
 M. A. Robb, J. R. Cheeseman, G. Scalmani, V. Barone, 
 G. A. Petersson, H. Nakatsuji, X. Li, M. Caricato, A. V. Marenich, 
 J. Bloino, B. G. Janesko, R. Gomperts, B. Mennucci, H. P. Hratchian, 
 J. V. Ortiz, A. F. Izmaylov, J. L. Sonnenberg, D. Williams-Young, 
 F. Ding, F. Lipparini, F. Egidi, J. Goings, B. Peng, A. Petrone, 
 T. Henderson, D. Ranasinghe, V. G. Zakrzewski, J. Gao, N. Rega, 
 G. Zheng, W. Liang, M. Hada, M. Ehara, K. Toyota, R. Fukuda, 
 J. Hasegawa, M. Ishida, T. Nakajima, Y. Honda, O. Kitao, H. Nakai, 
 T. Vreven, K. Throssell, J. A. Montgomery, Jr., J. E. Peralta, 
 F. Ogliaro, M. J. Bearpark, J. J. Heyd, E. N. Brothers, K. N. Kudin, 
 V. N. Staroverov, T. A. Keith, R. Kobayashi, J. Normand, 
 K. Raghavachari, A. P. Rendell, J. C. Burant, S. S. Iyengar, 
 J. Tomasi, M. Cossi, J. M. Millam, M. Klene, C. Adamo, R. Cammi, 
 J. W. Ochterski, R. L. Martin, K. Morokuma, O. Farkas, 
 J. B. Foresman, and D. J. Fox, Gaussian, Inc., Wallingford CT, 2019.
 
 ******************************************
 Gaussian 16:  ES64L-G16RevC.01  3-Jul-2019
                27-Jun-2022 
 ******************************************
 %mem=8gb
 %nproc=4
 Will use up to    4 processors via shared memory.
 %chk=conf-315.chk
 ----------------------------------------------------------------------
 # B3LYP/6-31G* empiricaldispersion=gd3 guess=read geom=check nosymm in
 tegral(ultrafinegrid)
 ----------------------------------------------------------------------
 1/29=2,38=1,172=1/1;
 2/12=2,15=1,40=1/2;
 3/5=1,6=6,7=1,11=2,14=-4,25=1,30=1,74=-5,75=-5,116=-2,124=31/1,2,3;
 4/5=1/1;
 5/5=2,38=6/2;
 6/7=2,8=2,9=2,10=2,28=1/1;
 99/5=1,9=1/99;
 ------------------------------------------------------
 Candidate Structure: Conf:315 Charge calc in gas phase
 ------------------------------------------------------
 Structure from the checkpoint file:  "conf-315.chk"
 Charge =  1 Multiplicity = 1
 Redundant internal coordinates found in file.  (old form).
 N,0,-5.1231174236,3.3964451022,-2.182884779
 H,0,-5.8245595629,3.3347253767,-2.9180694015
 H,0,-4.1650685475,1.989559689,-1.9778403951
 H,0,-4.5366454527,4.2043940972,-2.3945902504
 C,0,-5.7677920688,3.6322578756,-0.8662783708
 H,0,-6.3611805543,4.559152023,-0.8790099421
 C,0,-4.5622261302,3.926700198,0.0472242062
 C,0,-6.6947989014,2.4677739394,-0.4639423228
 H,0,-6.0743922914,1.5760020479,-0.2899350996
 O,0,-3.8839285802,4.9334570373,-0.1842735208
 C,0,-7.4760488616,2.8222509846,0.8144791286
 H,0,-8.1698217508,3.6484711632,0.6182859608
 H,0,-8.0677678332,1.9659586995,1.1534896663
 H,0,-6.8289149791,3.1329200212,1.6417846026
 C,0,-7.6793041999,2.1139546698,-1.5914306021
 H,0,-8.2513867725,2.996093963,-1.9071216442
 H,0,-7.1727656018,1.691304749,-2.4653683967
 H,0,-8.3974059444,1.3647003589,-1.2431384937
 N,0,-4.2169139108,3.0236222147,0.9903340621
 H,0,-4.8367978088,2.2528533017,1.1933375066
 C,0,-2.9697328918,3.1245585065,1.7551980786
 H,0,-2.2003452597,3.4926967554,1.0622966701
 C,0,-2.4835483019,1.7332711269,2.169204578
 C,0,-3.0404450241,4.134060075,2.9138893601
 H,0,-2.2688283164,3.8803016618,3.6443580526
 H,0,-4.0215641424,4.0316726723,3.4087768117
 O,0,-1.8113010909,1.5547657208,3.1764202048
 O,0,-2.7925570122,5.4560833139,2.4808927516
 H,0,-3.2282284658,5.5827915582,1.6188809869
 N,0,-2.7875077023,0.7099327434,1.2997837143
 H,0,-3.0885676865,0.9641853236,0.3600159281
 C,0,-1.9443843349,-0.4689993655,1.3860813322
 H,0,-1.9742136561,-0.82148196,2.42203746
 C,0,-0.4891640495,-0.0452167387,1.085532371
 C,0,-2.4310748326,-1.5724734839,0.4420487145
 H,0,-1.7984432027,-2.4620490069,0.5254776041
 H,0,-2.4076356662,-1.2328391633,-0.5961635007
 H,0,-3.4570258738,-1.852718658,0.6967219395
 O,0,-0.2212254122,1.0327437755,0.5560744058
 N,0,0.4930577604,-0.9145599326,1.4526021314
 H,0,0.2429057528,-1.753689393,1.9583190974
 C,0,1.8778988329,-0.442585318,1.555474918
 H,0,1.8220674458,0.6273645763,1.7840730531
 C,0,2.5784987868,-0.5762863,0.1876787661
 C,0,2.6367796033,-1.1649914355,2.6687650519
 H,0,2.8109879143,-2.2072670534,2.3741916804
 H,0,3.6297008397,-0.6963963388,2.739693806
 O,0,3.4555874675,-1.4392919286,-0.0379851339
 C,0,1.9677535932,-1.1030088908,4.0586293239
 H,0,1.0527886223,-1.7140250435,4.0289948062
 C,0,2.9023278503,-1.7346847859,5.1002727486
 H,0,3.8180620601,-1.1392728023,5.2118285581
 H,0,2.4186227504,-1.7825155914,6.0812749837
 H,0,3.1939552506,-2.7536080869,4.8179584769
 C,0,1.5643285094,0.3234455915,4.4615434676
 H,0,2.4233715392,1.0049689264,4.3998330909
 H,0,1.2066021433,0.3397261792,5.4963035485
 H,0,0.757235409,0.7249196295,3.8391040559
 N,0,2.1788846337,0.303052338,-0.7369594502
 H,0,1.3629837815,0.8782494182,-0.5015721121
 C,0,2.6192356073,0.2484522301,-2.1173855189
 H,0,2.3617158644,-0.7357828356,-2.530660045
 C,0,4.1390339688,0.4301013604,-2.2488358565
 C,0,1.9078675215,1.3568464561,-2.9467517343
 H,0,2.1784059559,1.2079931017,-3.9995811783
 H,0,2.3199689025,2.3275315237,-2.6473661711
 O,0,4.8363173224,0.9934784761,-1.3968494467
 C,0,0.4063090589,1.3512332711,-2.7529429217
 C,0,-0.3455272053,0.1957868255,-3.0096499488
 H,0,0.1367210496,-0.6858577549,-3.4273531522
 C,0,-0.2588486388,2.4751637723,-2.2498054492
 H,0,0.3029657115,3.382849544,-2.0421058481
 C,0,-1.7070280343,0.1524917381,-2.7346959736
 H,0,-2.296026827,-0.7356968689,-2.9414480748
 C,0,-1.624368529,2.4475320247,-1.9689261086
 H,0,-2.1133780895,3.3189566322,-1.5412959124
 O,0,-3.6547421108,1.1337425356,-1.8072340204
 C,0,-2.3504546971,1.2693089365,-2.1817832874
 N,0,4.6346161536,-0.0337753914,-3.4203328402
 H,0,3.979786064,-0.379707077,-4.1162915729
 C,0,5.9032830696,0.4103086082,-3.9878168671
 H,0,6.165839865,1.3691029816,-3.5260161937
 C,0,5.6482397094,0.6521999516,-5.4767187502
 C,0,7.0844452695,-0.5656017784,-3.7869922125
 H,0,6.8359022654,-1.5349743783,-4.2377662786
 H,0,7.9301751644,-0.1603361467,-4.3506857817
 O,0,4.6219978736,0.3498109324,-6.0476898304
 C,0,7.4881420948,-0.741103607,-2.312881966
 H,0,7.3571826528,0.2218179764,-1.8029088739
 H,0,8.5591857978,-0.9704231083,-2.2590220045
 C,0,6.7248849011,-1.854119367,-1.5710386854
 H,0,5.6571386091,-1.8463946729,-1.8141931259
 H,0,7.105255575,-2.8309591933,-1.8900648163
 C,0,6.8865623391,-1.7514670424,-0.0544291564
 H,0,7.9073140597,-1.4744879572,0.2239509229
 H,0,6.6251107916,-2.6815353076,0.4553294389
 N,0,5.9543869153,-0.6939951622,0.4856259517
 H,0,6.209866805,-0.3818861626,1.425094251
 H,0,5.8739990747,0.1266515378,-0.1480721317
 H,0,4.9663979345,-1.0672686227,0.4903027696
 O,0,6.7062712316,1.2227988205,-6.0704900185
 H,0,6.4918805039,1.3370290306,-7.0167590964
 Recover connectivity data from disk.
                           ----------------------------
                           !    Current Parameters    !
                           ! (Angstroms and Degrees)  !
 --------------------------                            --------------------------
 ! Name  Definition              Value                                          !
 --------------------------------------------------------------------------------
 ! R1    R(1,2)                  1.018                                          !
 ! R2    R(1,3)                  1.7144                                         !
 ! R3    R(1,4)                  1.0206                                         !
 ! R4    R(1,5)                  1.4848                                         !
 ! R5    R(5,6)                  1.1006                                         !
 ! R6    R(5,7)                  1.541                                          !
 ! R7    R(5,8)                  1.5418                                         !
 ! R8    R(7,10)                 1.2358                                         !
 ! R9    R(7,19)                 1.3506                                         !
 ! R10   R(8,9)                  1.1002                                         !
 ! R11   R(8,11)                 1.5396                                         !
 ! R12   R(8,15)                 1.5381                                         !
 ! R13   R(11,12)                1.0966                                         !
 ! R14   R(11,13)                1.0947                                         !
 ! R15   R(11,14)                1.0953                                         !
 ! R16   R(15,16)                1.0978                                         !
 ! R17   R(15,17)                1.095                                          !
 ! R18   R(15,18)                1.0947                                         !
 ! R19   R(19,20)                1.0097                                         !
 ! R20   R(19,21)                1.4665                                         !
 ! R21   R(21,22)                1.0989                                         !
 ! R22   R(21,23)                1.5308                                         !
 ! R23   R(21,24)                1.5384                                         !
 ! R24   R(23,27)                1.224                                          !
 ! R25   R(23,30)                1.3768                                         !
 ! R26   R(24,25)                1.0924                                         !
 ! R27   R(24,26)                1.1036                                         !
 ! R28   R(24,28)                1.413                                          !
 ! R29   R(28,29)                0.9741                                         !
 ! R30   R(30,31)                1.019                                          !
 ! R31   R(30,32)                1.452                                          !
 ! R32   R(32,33)                1.0947                                         !
 ! R33   R(32,34)                1.5452                                         !
 ! R34   R(32,35)                1.5316                                         !
 ! R35   R(34,39)                1.2305                                         !
 ! R36   R(34,40)                1.3621                                         !
 ! R37   R(35,36)                1.0948                                         !
 ! R38   R(35,37)                1.0926                                         !
 ! R39   R(35,38)                1.0936                                         !
 ! R40   R(40,41)                1.0112                                         !
 ! R41   R(40,42)                1.4667                                         !
 ! R42   R(42,43)                1.0955                                         !
 ! R43   R(42,44)                1.5426                                         !
 ! R44   R(42,45)                1.5288                                         !
 ! R45   R(44,48)                1.251                                          !
 ! R46   R(44,59)                1.3371                                         !
 ! R47   R(45,46)                1.097                                          !
 ! R48   R(45,47)                1.1002                                         !
 ! R49   R(45,49)                1.5437                                         !
 ! R50   R(49,50)                1.1006                                         !
 ! R51   R(49,51)                1.5354                                         !
 ! R52   R(49,55)                1.5362                                         !
 ! R53   R(51,52)                1.098                                          !
 ! R54   R(51,53)                1.0948                                         !
 ! R55   R(51,54)                1.0968                                         !
 ! R56   R(55,56)                1.0983                                         !
 ! R57   R(55,57)                1.095                                          !
 ! R58   R(55,58)                1.0955                                         !
 ! R59   R(59,60)                1.0256                                         !
 ! R60   R(59,61)                1.45                                           !
 ! R61   R(61,62)                1.0981                                         !
 ! R62   R(61,63)                1.5362                                         !
 ! R63   R(61,64)                1.5564                                         !
 ! R64   R(63,67)                1.2367                                         !
 ! R65   R(63,79)                1.354                                          !
 ! R66   R(64,65)                1.0972                                         !
 ! R67   R(64,66)                1.0962                                         !
 ! R68   R(64,68)                1.514                                          !
 ! R69   R(68,69)                1.4022                                         !
 ! R70   R(68,71)                1.3996                                         !
 ! R71   R(69,70)                1.0883                                         !
 ! R72   R(69,73)                1.3897                                         !
 ! R73   R(71,72)                1.0875                                         !
 ! R74   R(71,75)                1.3944                                         !
 ! R75   R(73,74)                1.0856                                         !
 ! R76   R(73,78)                1.4025                                         !
 ! R77   R(75,76)                1.0869                                         !
 ! R78   R(75,78)                1.4003                                         !
 ! R79   R(77,78)                1.3638                                         !
 ! R80   R(79,80)                1.0163                                         !
 ! R81   R(79,81)                1.459                                          !
 ! R82   R(81,82)                1.0961                                         !
 ! R83   R(81,83)                1.5298                                         !
 ! R84   R(81,84)                1.5453                                         !
 ! R85   R(83,87)                1.2127                                         !
 ! R86   R(83,101)               1.3407                                         !
 ! R87   R(84,85)                1.0976                                         !
 ! R88   R(84,86)                1.0942                                         !
 ! R89   R(84,88)                1.5384                                         !
 ! R90   R(88,89)                1.0975                                         !
 ! R91   R(88,90)                1.0966                                         !
 ! R92   R(88,91)                1.54                                           !
 ! R93   R(91,92)                1.0951                                         !
 ! R94   R(91,93)                1.0958                                         !
 ! R95   R(91,94)                1.5287                                         !
 ! R96   R(94,95)                1.0937                                         !
 ! R97   R(94,96)                1.0924                                         !
 ! R98   R(94,97)                1.5096                                         !
 ! R99   R(97,98)                1.0224                                         !
 ! R100  R(97,99)                1.04                                           !
 ! R101  R(97,100)               1.0562                                         !
 ! R102  R(101,102)              0.977                                          !
 ! A1    A(2,1,3)              114.9399                                         !
 ! A2    A(2,1,4)              107.1064                                         !
 ! A3    A(2,1,5)              110.5384                                         !
 ! A4    A(3,1,4)              110.6918                                         !
 ! A5    A(3,1,5)              105.4801                                         !
 ! A6    A(4,1,5)              107.9215                                         !
 ! A7    A(1,5,6)              110.951                                          !
 ! A8    A(1,5,7)              102.4932                                         !
 ! A9    A(1,5,8)              111.8688                                         !
 ! A10   A(6,5,7)              105.5292                                         !
 ! A11   A(6,5,8)              108.3554                                         !
 ! A12   A(7,5,8)              117.3868                                         !
 ! A13   A(5,7,10)             118.2953                                         !
 ! A14   A(5,7,19)             119.0911                                         !
 ! A15   A(10,7,19)            122.3556                                         !
 ! A16   A(5,8,9)              108.3253                                         !
 ! A17   A(5,8,11)             110.3577                                         !
 ! A18   A(5,8,15)             111.5492                                         !
 ! A19   A(9,8,11)             109.9645                                         !
 ! A20   A(9,8,15)             106.8836                                         !
 ! A21   A(11,8,15)            109.6855                                         !
 ! A22   A(8,11,12)            110.2402                                         !
 ! A23   A(8,11,13)            110.5697                                         !
 ! A24   A(8,11,14)            113.1213                                         !
 ! A25   A(12,11,13)           107.6262                                         !
 ! A26   A(12,11,14)           107.1712                                         !
 ! A27   A(13,11,14)           107.8977                                         !
 ! A28   A(8,15,16)            111.0709                                         !
 ! A29   A(8,15,17)            112.1949                                         !
 ! A30   A(8,15,18)            110.1273                                         !
 ! A31   A(16,15,17)           108.7671                                         !
 ! A32   A(16,15,18)           107.436                                          !
 ! A33   A(17,15,18)           107.0501                                         !
 ! A34   A(7,19,20)            119.592                                          !
 ! A35   A(7,19,21)            122.3839                                         !
 ! A36   A(20,19,21)           118.0198                                         !
 ! A37   A(19,21,22)           106.8355                                         !
 ! A38   A(19,21,23)           110.4012                                         !
 ! A39   A(19,21,24)           113.5093                                         !
 ! A40   A(22,21,23)           104.6333                                         !
 ! A41   A(22,21,24)           106.694                                          !
 ! A42   A(23,21,24)           114.0347                                         !
 ! A43   A(21,23,27)           121.9719                                         !
 ! A44   A(21,23,30)           115.7617                                         !
 ! A45   A(27,23,30)           122.1737                                         !
 ! A46   A(21,24,25)           108.5865                                         !
 ! A47   A(21,24,26)           108.5254                                         !
 ! A48   A(21,24,28)           112.0291                                         !
 ! A49   A(25,24,26)           107.8507                                         !
 ! A50   A(25,24,28)           107.3566                                         !
 ! A51   A(26,24,28)           112.3437                                         !
 ! A52   A(24,28,29)           108.3244                                         !
 ! A53   A(23,30,31)           117.5253                                         !
 ! A54   A(23,30,32)           115.9627                                         !
 ! A55   A(31,30,32)           115.4009                                         !
 ! A56   A(30,32,33)           107.5699                                         !
 ! A57   A(30,32,34)           108.2174                                         !
 ! A58   A(30,32,35)           111.3365                                         !
 ! A59   A(33,32,34)           107.3402                                         !
 ! A60   A(33,32,35)           110.0391                                         !
 ! A61   A(34,32,35)           112.1468                                         !
 ! A62   A(32,34,39)           121.9397                                         !
 ! A63   A(32,34,40)           116.851                                          !
 ! A64   A(39,34,40)           121.2025                                         !
 ! A65   A(32,35,36)           110.7836                                         !
 ! A66   A(32,35,37)           110.7884                                         !
 ! A67   A(32,35,38)           109.8283                                         !
 ! A68   A(36,35,37)           108.216                                          !
 ! A69   A(36,35,38)           108.4299                                         !
 ! A70   A(37,35,38)           108.7273                                         !
 ! A71   A(34,40,41)           119.0807                                         !
 ! A72   A(34,40,42)           119.6302                                         !
 ! A73   A(41,40,42)           117.7462                                         !
 ! A74   A(40,42,43)           106.3082                                         !
 ! A75   A(40,42,44)           109.8006                                         !
 ! A76   A(40,42,45)           111.5747                                         !
 ! A77   A(43,42,44)           107.0267                                         !
 ! A78   A(43,42,45)           109.5634                                         !
 ! A79   A(44,42,45)           112.2902                                         !
 ! A80   A(42,44,48)           122.5588                                         !
 ! A81   A(42,44,59)           114.8614                                         !
 ! A82   A(48,44,59)           122.5796                                         !
 ! A83   A(42,45,46)           109.4048                                         !
 ! A84   A(42,45,47)           107.0778                                         !
 ! A85   A(42,45,49)           114.9312                                         !
 ! A86   A(46,45,47)           106.1796                                         !
 ! A87   A(46,45,49)           110.4091                                         !
 ! A88   A(47,45,49)           108.4192                                         !
 ! A89   A(45,49,50)           108.2848                                         !
 ! A90   A(45,49,51)           109.2981                                         !
 ! A91   A(45,49,55)           112.7823                                         !
 ! A92   A(50,49,51)           107.2102                                         !
 ! A93   A(50,49,55)           107.7127                                         !
 ! A94   A(51,49,55)           111.3419                                         !
 ! A95   A(49,51,52)           110.7007                                         !
 ! A96   A(49,51,53)           110.9123                                         !
 ! A97   A(49,51,54)           111.6797                                         !
 ! A98   A(52,51,53)           107.5259                                         !
 ! A99   A(52,51,54)           107.9494                                         !
 ! A100  A(53,51,54)           107.9104                                         !
 ! A101  A(49,55,56)           110.8585                                         !
 ! A102  A(49,55,57)           110.3322                                         !
 ! A103  A(49,55,58)           112.6295                                         !
 ! A104  A(56,55,57)           107.4218                                         !
 ! A105  A(56,55,58)           108.4773                                         !
 ! A106  A(57,55,58)           106.9064                                         !
 ! A107  A(44,59,60)           116.606                                          !
 ! A108  A(44,59,61)           122.8755                                         !
 ! A109  A(60,59,61)           118.7635                                         !
 ! A110  A(59,61,62)           108.713                                          !
 ! A111  A(59,61,63)           112.1758                                         !
 ! A112  A(59,61,64)           109.9795                                         !
 ! A113  A(62,61,63)           107.8051                                         !
 ! A114  A(62,61,64)           109.3032                                         !
 ! A115  A(63,61,64)           108.8057                                         !
 ! A116  A(61,63,67)           123.5521                                         !
 ! A117  A(61,63,79)           113.3053                                         !
 ! A118  A(67,63,79)           123.0775                                         !
 ! A119  A(61,64,65)           107.5787                                         !
 ! A120  A(61,64,66)           108.2548                                         !
 ! A121  A(61,64,68)           112.4849                                         !
 ! A122  A(65,64,66)           106.8284                                         !
 ! A123  A(65,64,68)           111.5232                                         !
 ! A124  A(66,64,68)           109.9475                                         !
 ! A125  A(64,68,69)           120.7559                                         !
 ! A126  A(64,68,71)           120.9564                                         !
 ! A127  A(69,68,71)           118.2109                                         !
 ! A128  A(68,69,70)           120.0153                                         !
 ! A129  A(68,69,73)           120.9815                                         !
 ! A130  A(70,69,73)           119.0029                                         !
 ! A131  A(68,71,72)           119.5646                                         !
 ! A132  A(68,71,75)           121.4613                                         !
 ! A133  A(72,71,75)           118.9459                                         !
 ! A134  A(69,73,74)           121.2897                                         !
 ! A135  A(69,73,78)           120.1768                                         !
 ! A136  A(74,73,78)           118.5334                                         !
 ! A137  A(71,75,76)           120.2623                                         !
 ! A138  A(71,75,78)           119.5945                                         !
 ! A139  A(76,75,78)           120.0746                                         !
 ! A140  A(73,78,75)           119.4772                                         !
 ! A141  A(73,78,77)           117.897                                          !
 ! A142  A(75,78,77)           122.5354                                         !
 ! A143  A(63,79,80)           118.2488                                         !
 ! A144  A(63,79,81)           123.4029                                         !
 ! A145  A(80,79,81)           113.4233                                         !
 ! A146  A(79,81,82)           108.0985                                         !
 ! A147  A(79,81,83)           106.3619                                         !
 ! A148  A(79,81,84)           114.9528                                         !
 ! A149  A(82,81,83)           108.1592                                         !
 ! A150  A(82,81,84)           108.3353                                         !
 ! A151  A(83,81,84)           110.7182                                         !
 ! A152  A(81,83,87)           124.048                                          !
 ! A153  A(81,83,101)          111.5154                                         !
 ! A154  A(87,83,101)          124.4313                                         !
 ! A155  A(81,84,85)           109.3486                                         !
 ! A156  A(81,84,86)           106.8544                                         !
 ! A157  A(81,84,88)           113.4001                                         !
 ! A158  A(85,84,86)           106.8919                                         !
 ! A159  A(85,84,88)           110.6219                                         !
 ! A160  A(86,84,88)           109.4547                                         !
 ! A161  A(84,88,89)           108.2912                                         !
 ! A162  A(84,88,90)           109.0988                                         !
 ! A163  A(84,88,91)           114.4539                                         !
 ! A164  A(89,88,90)           106.0929                                         !
 ! A165  A(89,88,91)           110.5569                                         !
 ! A166  A(90,88,91)           108.0144                                         !
 ! A167  A(88,91,92)           111.788                                          !
 ! A168  A(88,91,93)           109.3903                                         !
 ! A169  A(88,91,94)           112.1456                                         !
 ! A170  A(92,91,93)           106.2662                                         !
 ! A171  A(92,91,94)           108.8405                                         !
 ! A172  A(93,91,94)           108.1801                                         !
 ! A173  A(91,94,95)           111.6075                                         !
 ! A174  A(91,94,96)           112.3643                                         !
 ! A175  A(91,94,97)           109.6736                                         !
 ! A176  A(95,94,96)           108.677                                          !
 ! A177  A(95,94,97)           107.9303                                         !
 ! A178  A(96,94,97)           106.361                                          !
 ! A179  A(94,97,98)           112.8472                                         !
 ! A180  A(94,97,99)           112.4898                                         !
 ! A181  A(94,97,100)          109.3692                                         !
 ! A182  A(98,97,99)           109.7764                                         !
 ! A183  A(98,97,100)          109.7294                                         !
 ! A184  A(99,97,100)          102.0803                                         !
 ! A185  A(83,101,102)         107.791                                          !
 ! D1    D(2,1,5,6)            -58.7082                                         !
 ! D2    D(2,1,5,7)           -170.9473                                         !
 ! D3    D(2,1,5,8)             62.4248                                         !
 ! D4    D(3,1,5,6)            176.4718                                         !
 ! D5    D(3,1,5,7)             64.2328                                         !
 ! D6    D(3,1,5,8)            -62.3952                                         !
 ! D7    D(4,1,5,6)             58.1186                                         !
 ! D8    D(4,1,5,7)            -54.1205                                         !
 ! D9    D(4,1,5,8)            179.2515                                         !
 ! D10   D(1,5,7,10)            63.9468                                         !
 ! D11   D(1,5,7,19)          -110.3575                                         !
 ! D12   D(6,5,7,10)           -52.2647                                         !
 ! D13   D(6,5,7,19)           133.431                                          !
 ! D14   D(8,5,7,10)          -173.0654                                         !
 ! D15   D(8,5,7,19)            12.6303                                         !
 ! D16   D(1,5,8,9)             66.5605                                         !
 ! D17   D(1,5,8,11)          -173.0061                                         !
 ! D18   D(1,5,8,15)           -50.8092                                         !
 ! D19   D(6,5,8,9)           -170.8159                                         !
 ! D20   D(6,5,8,11)           -50.3824                                         !
 ! D21   D(6,5,8,15)            71.8145                                         !
 ! D22   D(7,5,8,9)            -51.5032                                         !
 ! D23   D(7,5,8,11)            68.9303                                         !
 ! D24   D(7,5,8,15)          -168.8728                                         !
 ! D25   D(5,7,19,20)          -10.5345                                         !
 ! D26   D(5,7,19,21)          170.2408                                         !
 ! D27   D(10,7,19,20)         175.4033                                         !
 ! D28   D(10,7,19,21)          -3.8214                                         !
 ! D29   D(5,8,11,12)           66.1479                                         !
 ! D30   D(5,8,11,13)         -174.9652                                         !
 ! D31   D(5,8,11,14)          -53.8241                                         !
 ! D32   D(9,8,11,12)         -174.4068                                         !
 ! D33   D(9,8,11,13)          -55.5198                                         !
 ! D34   D(9,8,11,14)           65.6213                                         !
 ! D35   D(15,8,11,12)         -57.1395                                         !
 ! D36   D(15,8,11,13)          61.7475                                         !
 ! D37   D(15,8,11,14)        -177.1114                                         !
 ! D38   D(5,8,15,16)          -54.769                                          !
 ! D39   D(5,8,15,17)           67.2066                                         !
 ! D40   D(5,8,15,18)         -173.6635                                         !
 ! D41   D(9,8,15,16)         -173.0062                                         !
 ! D42   D(9,8,15,17)          -51.0306                                         !
 ! D43   D(9,8,15,18)           68.0993                                         !
 ! D44   D(11,8,15,16)          67.814                                          !
 ! D45   D(11,8,15,17)        -170.2104                                         !
 ! D46   D(11,8,15,18)         -51.0804                                         !
 ! D47   D(7,19,21,22)         -37.6002                                         !
 ! D48   D(7,19,21,23)        -150.8131                                         !
 ! D49   D(7,19,21,24)          79.7173                                         !
 ! D50   D(20,19,21,22)        143.1636                                         !
 ! D51   D(20,19,21,23)         29.9507                                         !
 ! D52   D(20,19,21,24)        -99.519                                          !
 ! D53   D(19,21,23,27)       -151.9364                                         !
 ! D54   D(19,21,23,30)         31.4934                                         !
 ! D55   D(22,21,23,27)         93.4513                                         !
 ! D56   D(22,21,23,30)        -83.1189                                         !
 ! D57   D(24,21,23,27)        -22.7492                                         !
 ! D58   D(24,21,23,30)        160.6806                                         !
 ! D59   D(19,21,24,25)        158.0771                                         !
 ! D60   D(19,21,24,26)         41.092                                          !
 ! D61   D(19,21,24,28)        -83.5256                                         !
 ! D62   D(22,21,24,25)        -84.523                                          !
 ! D63   D(22,21,24,26)        158.4918                                         !
 ! D64   D(22,21,24,28)         33.8742                                         !
 ! D65   D(23,21,24,25)         30.4712                                         !
 ! D66   D(23,21,24,26)        -86.514                                          !
 ! D67   D(23,21,24,28)        148.8684                                         !
 ! D68   D(21,23,30,31)         15.1656                                         !
 ! D69   D(21,23,30,32)        157.5148                                         !
 ! D70   D(27,23,30,31)       -161.3971                                         !
 ! D71   D(27,23,30,32)        -19.0479                                         !
 ! D72   D(21,24,28,29)         39.5527                                         !
 ! D73   D(25,24,28,29)        158.6768                                         !
 ! D74   D(26,24,28,29)        -82.9186                                         !
 ! D75   D(23,30,32,33)         55.5869                                         !
 ! D76   D(23,30,32,34)        -60.0928                                         !
 ! D77   D(23,30,32,35)        176.2216                                         !
 ! D78   D(31,30,32,33)       -161.2598                                         !
 ! D79   D(31,30,32,34)         83.0605                                         !
 ! D80   D(31,30,32,35)        -40.6251                                         !
 ! D81   D(30,32,34,39)        -15.7451                                         !
 ! D82   D(30,32,34,40)        163.315                                          !
 ! D83   D(33,32,34,39)       -131.5745                                         !
 ! D84   D(33,32,34,40)         47.4857                                         !
 ! D85   D(35,32,34,39)        107.4513                                         !
 ! D86   D(35,32,34,40)        -73.4886                                         !
 ! D87   D(30,32,35,36)       -179.1395                                         !
 ! D88   D(30,32,35,37)         60.7462                                         !
 ! D89   D(30,32,35,38)        -59.3831                                         !
 ! D90   D(33,32,35,36)        -59.9669                                         !
 ! D91   D(33,32,35,37)        179.9189                                         !
 ! D92   D(33,32,35,38)         59.7895                                         !
 ! D93   D(34,32,35,36)         59.4379                                         !
 ! D94   D(34,32,35,37)        -60.6764                                         !
 ! D95   D(34,32,35,38)        179.1942                                         !
 ! D96   D(32,34,40,41)         -4.42                                           !
 ! D97   D(32,34,40,42)       -162.7268                                         !
 ! D98   D(39,34,40,41)        174.6475                                         !
 ! D99   D(39,34,40,42)         16.3407                                         !
 ! D100  D(34,40,42,43)         27.096                                          !
 ! D101  D(34,40,42,44)        -88.3463                                         !
 ! D102  D(34,40,42,45)        146.4932                                         !
 ! D103  D(41,40,42,43)       -131.496                                          !
 ! D104  D(41,40,42,44)        113.0617                                         !
 ! D105  D(41,40,42,45)        -12.0988                                         !
 ! D106  D(40,42,44,48)       -107.9994                                         !
 ! D107  D(40,42,44,59)         72.1638                                         !
 ! D108  D(43,42,44,48)        137.0152                                         !
 ! D109  D(43,42,44,59)        -42.8217                                         !
 ! D110  D(45,42,44,48)         16.7489                                         !
 ! D111  D(45,42,44,59)       -163.0879                                         !
 ! D112  D(40,42,45,46)         70.2215                                         !
 ! D113  D(40,42,45,47)       -175.1158                                         !
 ! D114  D(40,42,45,49)        -54.6305                                         !
 ! D115  D(43,42,45,46)       -172.3284                                         !
 ! D116  D(43,42,45,47)        -57.6657                                         !
 ! D117  D(43,42,45,49)         62.8196                                         !
 ! D118  D(44,42,45,46)        -53.5431                                         !
 ! D119  D(44,42,45,47)         61.1196                                         !
 ! D120  D(44,42,45,49)       -178.3951                                         !
 ! D121  D(42,44,59,60)         -8.8064                                         !
 ! D122  D(42,44,59,61)       -173.5045                                         !
 ! D123  D(48,44,59,60)        171.3568                                         !
 ! D124  D(48,44,59,61)          6.6588                                         !
 ! D125  D(42,45,49,50)         69.4539                                         !
 ! D126  D(42,45,49,51)       -174.0675                                         !
 ! D127  D(42,45,49,55)        -49.6448                                         !
 ! D128  D(46,45,49,50)        -54.8707                                         !
 ! D129  D(46,45,49,51)         61.608                                          !
 ! D130  D(46,45,49,55)       -173.9694                                         !
 ! D131  D(47,45,49,50)       -170.8011                                         !
 ! D132  D(47,45,49,51)        -54.3225                                         !
 ! D133  D(47,45,49,55)         70.1002                                         !
 ! D134  D(45,49,51,52)         65.5785                                         !
 ! D135  D(45,49,51,53)       -175.1457                                         !
 ! D136  D(45,49,51,54)        -54.7361                                         !
 ! D137  D(50,49,51,52)       -177.2625                                         !
 ! D138  D(50,49,51,53)        -57.9867                                         !
 ! D139  D(50,49,51,54)         62.4229                                         !
 ! D140  D(55,49,51,52)        -59.6828                                         !
 ! D141  D(55,49,51,53)         59.593                                          !
 ! D142  D(55,49,51,54)       -179.9974                                         !
 ! D143  D(45,49,55,56)        -54.3189                                         !
 ! D144  D(45,49,55,57)       -173.1929                                         !
 ! D145  D(45,49,55,58)         67.4358                                         !
 ! D146  D(50,49,55,56)       -173.7493                                         !
 ! D147  D(50,49,55,57)         67.3767                                         !
 ! D148  D(50,49,55,58)        -51.9947                                         !
 ! D149  D(51,49,55,56)         68.9756                                         !
 ! D150  D(51,49,55,57)        -49.8984                                         !
 ! D151  D(51,49,55,58)       -169.2697                                         !
 ! D152  D(44,59,61,62)         56.9986                                         !
 ! D153  D(44,59,61,63)        -62.1255                                         !
 ! D154  D(44,59,61,64)        176.6367                                         !
 ! D155  D(60,59,61,62)       -107.3864                                         !
 ! D156  D(60,59,61,63)        133.4895                                         !
 ! D157  D(60,59,61,64)         12.2517                                         !
 ! D158  D(59,61,63,67)        -22.9981                                         !
 ! D159  D(59,61,63,79)        159.8582                                         !
 ! D160  D(62,61,63,67)       -142.654                                          !
 ! D161  D(62,61,63,79)         40.2022                                         !
 ! D162  D(64,61,63,67)         98.9121                                         !
 ! D163  D(64,61,63,79)        -78.2317                                         !
 ! D164  D(59,61,64,65)       -173.599                                          !
 ! D165  D(59,61,64,66)         71.2959                                         !
 ! D166  D(59,61,64,68)        -50.3937                                         !
 ! D167  D(62,61,64,65)        -54.3208                                         !
 ! D168  D(62,61,64,66)       -169.4259                                         !
 ! D169  D(62,61,64,68)         68.8845                                         !
 ! D170  D(63,61,64,65)         63.1657                                         !
 ! D171  D(63,61,64,66)        -51.9393                                         !
 ! D172  D(63,61,64,68)       -173.6289                                         !
 ! D173  D(61,63,79,80)          4.6689                                         !
 ! D174  D(61,63,79,81)        158.1611                                         !
 ! D175  D(67,63,79,80)       -172.4904                                         !
 ! D176  D(67,63,79,81)        -18.9982                                         !
 ! D177  D(61,64,68,69)        -56.3682                                         !
 ! D178  D(61,64,68,71)        120.3883                                         !
 ! D179  D(65,64,68,69)         64.6025                                         !
 ! D180  D(65,64,68,71)       -118.6411                                         !
 ! D181  D(66,64,68,69)       -177.0901                                         !
 ! D182  D(66,64,68,71)         -0.3336                                         !
 ! D183  D(64,68,69,70)         -4.8699                                         !
 ! D184  D(64,68,69,73)        174.9317                                         !
 ! D185  D(71,68,69,70)        178.2865                                         !
 ! D186  D(71,68,69,73)         -1.9119                                         !
 ! D187  D(64,68,71,72)          3.1172                                         !
 ! D188  D(64,68,71,75)       -174.9278                                         !
 ! D189  D(69,68,71,72)        179.9542                                         !
 ! D190  D(69,68,71,75)          1.9091                                         !
 ! D191  D(68,69,73,74)        179.3289                                         !
 ! D192  D(68,69,73,78)         -0.5387                                         !
 ! D193  D(70,69,73,74)         -0.8676                                         !
 ! D194  D(70,69,73,78)        179.2648                                         !
 ! D195  D(68,71,75,76)        177.5395                                         !
 ! D196  D(68,71,75,78)          0.5501                                         !
 ! D197  D(72,71,75,76)         -0.5174                                         !
 ! D198  D(72,71,75,78)       -177.5068                                         !
 ! D199  D(69,73,78,75)          3.0305                                         !
 ! D200  D(69,73,78,77)       -173.6021                                         !
 ! D201  D(74,73,78,75)       -176.8407                                         !
 ! D202  D(74,73,78,77)          6.5267                                         !
 ! D203  D(71,75,78,73)         -3.0247                                         !
 ! D204  D(71,75,78,77)        173.4449                                         !
 ! D205  D(76,75,78,73)        179.9801                                         !
 ! D206  D(76,75,78,77)         -3.5502                                         !
 ! D207  D(63,79,81,82)        -19.5948                                         !
 ! D208  D(63,79,81,83)       -135.5503                                         !
 ! D209  D(63,79,81,84)        101.5429                                         !
 ! D210  D(80,79,81,82)        135.0345                                         !
 ! D211  D(80,79,81,83)         19.079                                          !
 ! D212  D(80,79,81,84)       -103.8278                                         !
 ! D213  D(79,81,83,87)         -8.4754                                         !
 ! D214  D(79,81,83,101)       172.3286                                         !
 ! D215  D(82,81,83,87)       -124.3901                                         !
 ! D216  D(82,81,83,101)        56.4139                                         !
 ! D217  D(84,81,83,87)        117.0541                                         !
 ! D218  D(84,81,83,101)       -62.1419                                         !
 ! D219  D(79,81,84,85)         58.5955                                         !
 ! D220  D(79,81,84,86)        173.9466                                         !
 ! D221  D(79,81,84,88)        -65.3698                                         !
 ! D222  D(82,81,84,85)        179.6039                                         !
 ! D223  D(82,81,84,86)        -65.045                                          !
 ! D224  D(82,81,84,88)         55.6386                                         !
 ! D225  D(83,81,84,85)        -61.9473                                         !
 ! D226  D(83,81,84,86)         53.4039                                         !
 ! D227  D(83,81,84,88)        174.0875                                         !
 ! D228  D(81,83,101,102)      178.9899                                         !
 ! D229  D(87,83,101,102)       -0.2024                                         !
 ! D230  D(81,84,88,89)        -35.48                                           !
 ! D231  D(81,84,88,90)       -150.5299                                         !
 ! D232  D(81,84,88,91)         88.34                                           !
 ! D233  D(85,84,88,89)       -158.7487                                         !
 ! D234  D(85,84,88,90)         86.2014                                         !
 ! D235  D(85,84,88,91)        -34.9287                                         !
 ! D236  D(86,84,88,89)         83.7233                                         !
 ! D237  D(86,84,88,90)        -31.3266                                         !
 ! D238  D(86,84,88,91)       -152.4567                                         !
 ! D239  D(84,88,91,92)        -42.5136                                         !
 ! D240  D(84,88,91,93)         74.9044                                         !
 ! D241  D(84,88,91,94)       -165.0722                                         !
 ! D242  D(89,88,91,92)         80.0859                                         !
 ! D243  D(89,88,91,93)       -162.4961                                         !
 ! D244  D(89,88,91,94)        -42.4727                                         !
 ! D245  D(90,88,91,92)       -164.2394                                         !
 ! D246  D(90,88,91,93)        -46.8215                                         !
 ! D247  D(90,88,91,94)         73.202                                          !
 ! D248  D(88,91,94,95)        -39.7796                                         !
 ! D249  D(88,91,94,96)       -162.1517                                         !
 ! D250  D(88,91,94,97)         79.776                                          !
 ! D251  D(92,91,94,95)       -163.9941                                         !
 ! D252  D(92,91,94,96)         73.6338                                         !
 ! D253  D(92,91,94,97)        -44.4385                                         !
 ! D254  D(93,91,94,95)         80.9462                                         !
 ! D255  D(93,91,94,96)        -41.4259                                         !
 ! D256  D(93,91,94,97)       -159.4982                                         !
 ! D257  D(91,94,97,98)       -162.5612                                         !
 ! D258  D(91,94,97,99)        -37.6847                                         !
 ! D259  D(91,94,97,100)        74.9989                                         !
 ! D260  D(95,94,97,98)        -40.7766                                         !
 ! D261  D(95,94,97,99)         84.0999                                         !
 ! D262  D(95,94,97,100)      -163.2164                                         !
 ! D263  D(96,94,97,98)         75.6966                                         !
 ! D264  D(96,94,97,99)       -159.4269                                         !
 ! D265  D(96,94,97,100)       -46.7432                                         !
 --------------------------------------------------------------------------------
 Symmetry turned off by external request.
 Stoichiometry    C32H54N7O9(1+)
 Framework group  C1[X(C32H54N7O9)]
 Deg. of freedom   300
 Full point group                 C1      NOp   1
                          Input orientation:                          
 ---------------------------------------------------------------------
 Center     Atomic      Atomic             Coordinates (Angstroms)
 Number     Number       Type             X           Y           Z
 ---------------------------------------------------------------------
      1          7           0       -5.123117    3.396445   -2.182885
      2          1           0       -5.824560    3.334725   -2.918069
      3          1           0       -4.165069    1.989560   -1.977840
      4          1           0       -4.536645    4.204394   -2.394590
      5          6           0       -5.767792    3.632258   -0.866278
      6          1           0       -6.361181    4.559152   -0.879010
      7          6           0       -4.562226    3.926700    0.047224
      8          6           0       -6.694799    2.467774   -0.463942
      9          1           0       -6.074392    1.576002   -0.289935
     10          8           0       -3.883929    4.933457   -0.184274
     11          6           0       -7.476049    2.822251    0.814479
     12          1           0       -8.169822    3.648471    0.618286
     13          1           0       -8.067768    1.965959    1.153490
     14          1           0       -6.828915    3.132920    1.641785
     15          6           0       -7.679304    2.113955   -1.591431
     16          1           0       -8.251387    2.996094   -1.907122
     17          1           0       -7.172766    1.691305   -2.465368
     18          1           0       -8.397406    1.364700   -1.243138
     19          7           0       -4.216914    3.023622    0.990334
     20          1           0       -4.836798    2.252853    1.193338
     21          6           0       -2.969733    3.124559    1.755198
     22          1           0       -2.200345    3.492697    1.062297
     23          6           0       -2.483548    1.733271    2.169205
     24          6           0       -3.040445    4.134060    2.913889
     25          1           0       -2.268828    3.880302    3.644358
     26          1           0       -4.021564    4.031673    3.408777
     27          8           0       -1.811301    1.554766    3.176420
     28          8           0       -2.792557    5.456083    2.480893
     29          1           0       -3.228228    5.582792    1.618881
     30          7           0       -2.787508    0.709933    1.299784
     31          1           0       -3.088568    0.964185    0.360016
     32          6           0       -1.944384   -0.468999    1.386081
     33          1           0       -1.974214   -0.821482    2.422037
     34          6           0       -0.489164   -0.045217    1.085532
     35          6           0       -2.431075   -1.572473    0.442049
     36          1           0       -1.798443   -2.462049    0.525478
     37          1           0       -2.407636   -1.232839   -0.596164
     38          1           0       -3.457026   -1.852719    0.696722
     39          8           0       -0.221225    1.032744    0.556074
     40          7           0        0.493058   -0.914560    1.452602
     41          1           0        0.242906   -1.753689    1.958319
     42          6           0        1.877899   -0.442585    1.555475
     43          1           0        1.822067    0.627365    1.784073
     44          6           0        2.578499   -0.576286    0.187679
     45          6           0        2.636780   -1.164991    2.668765
     46          1           0        2.810988   -2.207267    2.374192
     47          1           0        3.629701   -0.696396    2.739694
     48          8           0        3.455587   -1.439292   -0.037985
     49          6           0        1.967754   -1.103009    4.058629
     50          1           0        1.052789   -1.714025    4.028995
     51          6           0        2.902328   -1.734685    5.100273
     52          1           0        3.818062   -1.139273    5.211829
     53          1           0        2.418623   -1.782516    6.081275
     54          1           0        3.193955   -2.753608    4.817958
     55          6           0        1.564329    0.323446    4.461543
     56          1           0        2.423372    1.004969    4.399833
     57          1           0        1.206602    0.339726    5.496304
     58          1           0        0.757235    0.724920    3.839104
     59          7           0        2.178885    0.303052   -0.736959
     60          1           0        1.362984    0.878249   -0.501572
     61          6           0        2.619236    0.248452   -2.117386
     62          1           0        2.361716   -0.735783   -2.530660
     63          6           0        4.139034    0.430101   -2.248836
     64          6           0        1.907868    1.356846   -2.946752
     65          1           0        2.178406    1.207993   -3.999581
     66          1           0        2.319969    2.327532   -2.647366
     67          8           0        4.836317    0.993478   -1.396849
     68          6           0        0.406309    1.351233   -2.752943
     69          6           0       -0.345527    0.195787   -3.009650
     70          1           0        0.136721   -0.685858   -3.427353
     71          6           0       -0.258849    2.475164   -2.249805
     72          1           0        0.302966    3.382850   -2.042106
     73          6           0       -1.707028    0.152492   -2.734696
     74          1           0       -2.296027   -0.735697   -2.941448
     75          6           0       -1.624369    2.447532   -1.968926
     76          1           0       -2.113378    3.318957   -1.541296
     77          8           0       -3.654742    1.133743   -1.807234
     78          6           0       -2.350455    1.269309   -2.181783
     79          7           0        4.634616   -0.033775   -3.420333
     80          1           0        3.979786   -0.379707   -4.116292
     81          6           0        5.903283    0.410309   -3.987817
     82          1           0        6.165840    1.369103   -3.526016
     83          6           0        5.648240    0.652200   -5.476719
     84          6           0        7.084445   -0.565602   -3.786992
     85          1           0        6.835902   -1.534974   -4.237766
     86          1           0        7.930175   -0.160336   -4.350686
     87          8           0        4.621998    0.349811   -6.047690
     88          6           0        7.488142   -0.741104   -2.312882
     89          1           0        7.357183    0.221818   -1.802909
     90          1           0        8.559186   -0.970423   -2.259022
     91          6           0        6.724885   -1.854119   -1.571039
     92          1           0        5.657139   -1.846395   -1.814193
     93          1           0        7.105256   -2.830959   -1.890065
     94          6           0        6.886562   -1.751467   -0.054429
     95          1           0        7.907314   -1.474488    0.223951
     96          1           0        6.625111   -2.681535    0.455329
     97          7           0        5.954387   -0.693995    0.485626
     98          1           0        6.209867   -0.381886    1.425094
     99          1           0        5.873999    0.126652   -0.148072
    100          1           0        4.966398   -1.067269    0.490303
    101          8           0        6.706271    1.222799   -6.070490
    102          1           0        6.491881    1.337029   -7.016759
 ---------------------------------------------------------------------
 Rotational constants (GHZ):           0.0939229           0.0339840           0.0278828
 Standard basis: 6-31G(d) (6D, 7F)
   828 basis functions,  1560 primitive gaussians,   828 cartesian basis functions
   183 alpha electrons      183 beta electrons
       nuclear repulsion energy      6863.0077942022 Hartrees.
 NAtoms=  102 NActive=  102 NUniq=  102 SFac= 1.00D+00 NAtFMM=   60 NAOKFM=T Big=T
 Integral buffers will be    131072 words long.
 Raffenetti 2 integral format.
 Two-electron integral symmetry is turned off.
 Nuclear repulsion after empirical dispersion term =     6862.8557711789 Hartrees.
 One-electron integrals computed using PRISM.
 NBasis=   828 RedAO= T EigKep=  4.05D-04  NBF=   828
 NBsUse=   828 1.00D-06 EigRej= -1.00D+00 NBFU=   828
 Initial guess from the checkpoint file:  "conf-315.chk"
 B after Tr=     0.000000    0.000000    0.000000
         Rot=    1.000000    0.000000    0.000000    0.000000 Ang=   0.00 deg.
 Requested convergence on RMS density matrix=1.00D-08 within 128 cycles.
 Requested convergence on MAX density matrix=1.00D-06.
 Requested convergence on             energy=1.00D-06.
 No special actions if energy rises.
 SCF Done:  E(RB3LYP) =  -2312.27760174     A.U. after    1 cycles
            NFock=  1  Conv=0.87D-08     -V/T= 2.0094
 Hyperfine terms turned off by default for NAtoms > 100.

 **********************************************************************

            Population analysis using the SCF Density.

 **********************************************************************

 Alpha  occ. eigenvalues --  -19.30370 -19.25028 -19.23825 -19.23642 -19.22156
 Alpha  occ. eigenvalues --  -19.21507 -19.20193 -19.19364 -19.17783 -14.54913
 Alpha  occ. eigenvalues --  -14.47456 -14.46313 -14.46126 -14.44987 -14.43037
 Alpha  occ. eigenvalues --  -14.42549 -10.42992 -10.40700 -10.39868 -10.38066
 Alpha  occ. eigenvalues --  -10.37337 -10.36549 -10.36421 -10.34975 -10.34296
 Alpha  occ. eigenvalues --  -10.33335 -10.31838 -10.31447 -10.31062 -10.30638
 Alpha  occ. eigenvalues --  -10.30351 -10.29837 -10.29782 -10.29287 -10.28513
 Alpha  occ. eigenvalues --  -10.28200 -10.27750 -10.27730 -10.26945 -10.26704
 Alpha  occ. eigenvalues --  -10.26660 -10.26419 -10.25671 -10.25533 -10.25264
 Alpha  occ. eigenvalues --  -10.25246 -10.25174 -10.24446  -1.21475  -1.15801
 Alpha  occ. eigenvalues --   -1.14600  -1.13589  -1.12665  -1.12310  -1.11081
 Alpha  occ. eigenvalues --   -1.10346  -1.10180  -1.05545  -1.04253  -1.03476
 Alpha  occ. eigenvalues --   -1.02276  -1.01451  -0.99509  -0.98697  -0.92951
 Alpha  occ. eigenvalues --   -0.92247  -0.90268  -0.89419  -0.87746  -0.87520
 Alpha  occ. eigenvalues --   -0.85950  -0.83719  -0.82973  -0.82154  -0.81924
 Alpha  occ. eigenvalues --   -0.80889  -0.77021  -0.76243  -0.75920  -0.75753
 Alpha  occ. eigenvalues --   -0.75543  -0.74715  -0.73942  -0.71953  -0.71179
 Alpha  occ. eigenvalues --   -0.70718  -0.69576  -0.69239  -0.68889  -0.68788
 Alpha  occ. eigenvalues --   -0.68227  -0.67650  -0.67206  -0.66268  -0.65950
 Alpha  occ. eigenvalues --   -0.65110  -0.64820  -0.63229  -0.62340  -0.61920
 Alpha  occ. eigenvalues --   -0.61681  -0.60733  -0.60623  -0.59875  -0.59138
 Alpha  occ. eigenvalues --   -0.59076  -0.58747  -0.57892  -0.57784  -0.57057
 Alpha  occ. eigenvalues --   -0.56753  -0.56071  -0.55553  -0.55314  -0.55148
 Alpha  occ. eigenvalues --   -0.54842  -0.54543  -0.54217  -0.53829  -0.53575
 Alpha  occ. eigenvalues --   -0.53294  -0.52925  -0.52523  -0.52047  -0.51415
 Alpha  occ. eigenvalues --   -0.51304  -0.51253  -0.50853  -0.50558  -0.50451
 Alpha  occ. eigenvalues --   -0.50198  -0.49830  -0.49515  -0.49326  -0.49222
 Alpha  occ. eigenvalues --   -0.48957  -0.48593  -0.48191  -0.48065  -0.47737
 Alpha  occ. eigenvalues --   -0.47410  -0.47381  -0.47025  -0.46949  -0.46513
 Alpha  occ. eigenvalues --   -0.46352  -0.45879  -0.45775  -0.45725  -0.45546
 Alpha  occ. eigenvalues --   -0.44888  -0.44838  -0.44639  -0.44591  -0.44201
 Alpha  occ. eigenvalues --   -0.43219  -0.42793  -0.42608  -0.42455  -0.42441
 Alpha  occ. eigenvalues --   -0.41758  -0.41483  -0.41104  -0.40894  -0.40858
 Alpha  occ. eigenvalues --   -0.40709  -0.39044  -0.38953  -0.38635  -0.38439
 Alpha  occ. eigenvalues --   -0.37770  -0.37518  -0.36476  -0.35617  -0.35221
 Alpha  occ. eigenvalues --   -0.34850  -0.34302  -0.33908  -0.33711  -0.32278
 Alpha  occ. eigenvalues --   -0.31897  -0.30761  -0.29111
 Alpha virt. eigenvalues --   -0.10452  -0.10226  -0.09757  -0.07849  -0.07684
 Alpha virt. eigenvalues --   -0.07136  -0.07010  -0.06224  -0.05637  -0.02340
 Alpha virt. eigenvalues --   -0.02063  -0.01413  -0.00952  -0.00383   0.00209
 Alpha virt. eigenvalues --    0.00718   0.00784   0.00970   0.01278   0.02192
 Alpha virt. eigenvalues --    0.02376   0.02971   0.03183   0.03687   0.03812
 Alpha virt. eigenvalues --    0.04255   0.04490   0.04822   0.04892   0.05045
 Alpha virt. eigenvalues --    0.05349   0.05582   0.05974   0.06059   0.06434
 Alpha virt. eigenvalues --    0.06655   0.07090   0.07201   0.07276   0.07620
 Alpha virt. eigenvalues --    0.07784   0.07915   0.08351   0.08485   0.08704
 Alpha virt. eigenvalues --    0.08907   0.09075   0.09253   0.09672   0.10098
 Alpha virt. eigenvalues --    0.10166   0.10373   0.10515   0.10699   0.10758
 Alpha virt. eigenvalues --    0.10894   0.11173   0.11322   0.11383   0.11621
 Alpha virt. eigenvalues --    0.11782   0.12210   0.12693   0.12921   0.13261
 Alpha virt. eigenvalues --    0.13426   0.13487   0.14097   0.14120   0.14504
 Alpha virt. eigenvalues --    0.14745   0.15150   0.15547   0.15835   0.15907
 Alpha virt. eigenvalues --    0.16109   0.16555   0.16945   0.17341   0.17657
 Alpha virt. eigenvalues --    0.17833   0.18026   0.18294   0.18606   0.19047
 Alpha virt. eigenvalues --    0.19143   0.19331   0.20316   0.20596   0.21049
 Alpha virt. eigenvalues --    0.21280   0.21725   0.22214   0.22734   0.24484
 Alpha virt. eigenvalues --    0.25445   0.26578   0.26852   0.27515   0.28521
 Alpha virt. eigenvalues --    0.28775   0.29405   0.29554   0.30248   0.30708
 Alpha virt. eigenvalues --    0.31936   0.33784   0.34146   0.36259   0.37755
 Alpha virt. eigenvalues --    0.38164   0.38630   0.38853   0.39704   0.40659
 Alpha virt. eigenvalues --    0.40925   0.41312   0.42193   0.42266   0.43124
 Alpha virt. eigenvalues --    0.43385   0.43931   0.44004   0.44528   0.44740
 Alpha virt. eigenvalues --    0.44914   0.45455   0.45818   0.46729   0.46846
 Alpha virt. eigenvalues --    0.47073   0.47208   0.47400   0.47843   0.48021
 Alpha virt. eigenvalues --    0.48359   0.48543   0.48950   0.49065   0.49196
 Alpha virt. eigenvalues --    0.49588   0.49874   0.50254   0.50914   0.51054
 Alpha virt. eigenvalues --    0.51978   0.52311   0.52408   0.52840   0.53211
 Alpha virt. eigenvalues --    0.53630   0.54059   0.54090   0.54525   0.54837
 Alpha virt. eigenvalues --    0.55453   0.55652   0.55983   0.56133   0.56442
 Alpha virt. eigenvalues --    0.56614   0.57145   0.57583   0.58013   0.58244
 Alpha virt. eigenvalues --    0.58331   0.58793   0.59616   0.59906   0.60415
 Alpha virt. eigenvalues --    0.60681   0.61049   0.61261   0.61594   0.62499
 Alpha virt. eigenvalues --    0.62564   0.63133   0.63351   0.63837   0.64148
 Alpha virt. eigenvalues --    0.64489   0.64804   0.64861   0.65704   0.65783
 Alpha virt. eigenvalues --    0.66598   0.66716   0.67051   0.67652   0.67703
 Alpha virt. eigenvalues --    0.68690   0.69410   0.70089   0.70272   0.70779
 Alpha virt. eigenvalues --    0.70933   0.71196   0.71711   0.71917   0.72025
 Alpha virt. eigenvalues --    0.72362   0.72428   0.73000   0.73287   0.73595
 Alpha virt. eigenvalues --    0.74303   0.74614   0.74888   0.75122   0.75313
 Alpha virt. eigenvalues --    0.75723   0.75850   0.76238   0.76757   0.77165
 Alpha virt. eigenvalues --    0.77384   0.77667   0.77931   0.78352   0.78649
 Alpha virt. eigenvalues --    0.78965   0.79345   0.79490   0.79764   0.80041
 Alpha virt. eigenvalues --    0.80468   0.80753   0.80995   0.81348   0.81441
 Alpha virt. eigenvalues --    0.81553   0.81747   0.82058   0.82765   0.82854
 Alpha virt. eigenvalues --    0.83120   0.83273   0.83310   0.83583   0.83779
 Alpha virt. eigenvalues --    0.83995   0.84419   0.84536   0.84985   0.85164
 Alpha virt. eigenvalues --    0.85341   0.85479   0.85915   0.86067   0.86300
 Alpha virt. eigenvalues --    0.86649   0.86840   0.87153   0.87496   0.87890
 Alpha virt. eigenvalues --    0.88415   0.89010   0.89114   0.89683   0.89744
 Alpha virt. eigenvalues --    0.89849   0.90281   0.90558   0.90928   0.91590
 Alpha virt. eigenvalues --    0.91801   0.92400   0.93358   0.93715   0.93907
 Alpha virt. eigenvalues --    0.94037   0.94548   0.95440   0.95839   0.96286
 Alpha virt. eigenvalues --    0.96732   0.96952   0.97363   0.98556   0.99223
 Alpha virt. eigenvalues --    0.99283   0.99849   1.00520   1.00757   1.01138
 Alpha virt. eigenvalues --    1.01725   1.02126   1.03597   1.03767   1.04268
 Alpha virt. eigenvalues --    1.04995   1.05319   1.05848   1.07165   1.08231
 Alpha virt. eigenvalues --    1.08460   1.08756   1.09885   1.10189   1.10501
 Alpha virt. eigenvalues --    1.11329   1.11558   1.12478   1.12728   1.13594
 Alpha virt. eigenvalues --    1.14125   1.14654   1.15254   1.15744   1.17279
 Alpha virt. eigenvalues --    1.17574   1.18083   1.18824   1.19688   1.20609
 Alpha virt. eigenvalues --    1.20960   1.21360   1.21645   1.22135   1.23040
 Alpha virt. eigenvalues --    1.24119   1.25057   1.25516   1.25876   1.27297
 Alpha virt. eigenvalues --    1.27948   1.29194   1.29610   1.29935   1.31257
 Alpha virt. eigenvalues --    1.31414   1.31907   1.32918   1.33152   1.34063
 Alpha virt. eigenvalues --    1.34435   1.34922   1.35138   1.36056   1.36272
 Alpha virt. eigenvalues --    1.36920   1.37840   1.38348   1.39006   1.39380
 Alpha virt. eigenvalues --    1.39724   1.40932   1.41358   1.42112   1.42521
 Alpha virt. eigenvalues --    1.43184   1.43659   1.44126   1.44861   1.45495
 Alpha virt. eigenvalues --    1.45877   1.47114   1.48606   1.48880   1.49070
 Alpha virt. eigenvalues --    1.50949   1.51901   1.52373   1.52489   1.53487
 Alpha virt. eigenvalues --    1.54629   1.55347   1.55416   1.56700   1.57279
 Alpha virt. eigenvalues --    1.57720   1.58537   1.58935   1.59811   1.59979
 Alpha virt. eigenvalues --    1.60896   1.61380   1.62304   1.62859   1.63840
 Alpha virt. eigenvalues --    1.64114   1.64384   1.64770   1.65741   1.66111
 Alpha virt. eigenvalues --    1.66334   1.67030   1.67133   1.67615   1.68233
 Alpha virt. eigenvalues --    1.68453   1.69116   1.69602   1.70505   1.70909
 Alpha virt. eigenvalues --    1.71147   1.71387   1.71774   1.72086   1.73033
 Alpha virt. eigenvalues --    1.73339   1.73547   1.73779   1.74372   1.74822
 Alpha virt. eigenvalues --    1.75406   1.75580   1.75966   1.76775   1.77101
 Alpha virt. eigenvalues --    1.77527   1.77718   1.78260   1.78618   1.78982
 Alpha virt. eigenvalues --    1.79364   1.80244   1.80948   1.81387   1.82028
 Alpha virt. eigenvalues --    1.82351   1.82511   1.82675   1.83736   1.83834
 Alpha virt. eigenvalues --    1.84576   1.84942   1.85316   1.85967   1.86674
 Alpha virt. eigenvalues --    1.86955   1.87639   1.88245   1.88514   1.88629
 Alpha virt. eigenvalues --    1.89204   1.89292   1.90459   1.90849   1.90903
 Alpha virt. eigenvalues --    1.91164   1.91660   1.92188   1.92410   1.92958
 Alpha virt. eigenvalues --    1.93177   1.93323   1.93581   1.93930   1.94672
 Alpha virt. eigenvalues --    1.95522   1.95905   1.96417   1.97112   1.97743
 Alpha virt. eigenvalues --    1.97807   1.98184   1.98556   1.99362   1.99764
 Alpha virt. eigenvalues --    2.00391   2.00727   2.01151   2.01437   2.01726
 Alpha virt. eigenvalues --    2.02213   2.03188   2.03776   2.03838   2.04659
 Alpha virt. eigenvalues --    2.05196   2.05411   2.05760   2.06846   2.07231
 Alpha virt. eigenvalues --    2.08480   2.08957   2.09646   2.09807   2.10570
 Alpha virt. eigenvalues --    2.10622   2.12149   2.14135   2.14504   2.15093
 Alpha virt. eigenvalues --    2.15369   2.16033   2.16504   2.17194   2.18161
 Alpha virt. eigenvalues --    2.18729   2.20173   2.20215   2.20313   2.20445
 Alpha virt. eigenvalues --    2.21143   2.21591   2.23160   2.23468   2.24136
 Alpha virt. eigenvalues --    2.24274   2.24649   2.24879   2.25745   2.26226
 Alpha virt. eigenvalues --    2.27381   2.27553   2.28091   2.28962   2.29741
 Alpha virt. eigenvalues --    2.30987   2.31058   2.32011   2.32443   2.32551
 Alpha virt. eigenvalues --    2.33349   2.33803   2.35155   2.35998   2.36028
 Alpha virt. eigenvalues --    2.37159   2.37793   2.38097   2.39290   2.39653
 Alpha virt. eigenvalues --    2.40317   2.41094   2.41537   2.42084   2.43186
 Alpha virt. eigenvalues --    2.44136   2.44226   2.44435   2.45366   2.45864
 Alpha virt. eigenvalues --    2.46890   2.47644   2.48393   2.49485   2.50570
 Alpha virt. eigenvalues --    2.51155   2.51923   2.52293   2.52920   2.53258
 Alpha virt. eigenvalues --    2.54442   2.55409   2.55978   2.56601   2.56821
 Alpha virt. eigenvalues --    2.57070   2.57651   2.58747   2.59233   2.60875
 Alpha virt. eigenvalues --    2.61204   2.62048   2.62251   2.62914   2.64564
 Alpha virt. eigenvalues --    2.65858   2.66729   2.67817   2.68221   2.68512
 Alpha virt. eigenvalues --    2.69576   2.70169   2.71550   2.72088   2.72814
 Alpha virt. eigenvalues --    2.74918   2.75626   2.76801   2.77102   2.80945
 Alpha virt. eigenvalues --    2.82378   2.83979   2.84515   2.86082   2.87083
 Alpha virt. eigenvalues --    2.87974   2.88926   2.90237   2.93053   2.93781
 Alpha virt. eigenvalues --    2.94364   2.95693   2.97838   2.99318   2.99551
 Alpha virt. eigenvalues --    3.05291   3.06828   3.07292   3.08484   3.11582
 Alpha virt. eigenvalues --    3.12302   3.34906   3.75565   3.78042   3.79990
 Alpha virt. eigenvalues --    3.84892   3.89192   3.90204   3.97866   3.99527
 Alpha virt. eigenvalues --    3.99761   4.00884   4.01797   4.03424   4.04854
 Alpha virt. eigenvalues --    4.05167   4.07439   4.09319   4.10900   4.11027
 Alpha virt. eigenvalues --    4.14014   4.15818   4.17734   4.19439   4.20742
 Alpha virt. eigenvalues --    4.21763   4.22213   4.22677   4.24182   4.24940
 Alpha virt. eigenvalues --    4.26400   4.27918   4.28081   4.31146   4.31831
 Alpha virt. eigenvalues --    4.35527   4.38019   4.40648   4.43637   4.44383
 Alpha virt. eigenvalues --    4.46554   4.47739   4.52211   4.52948   4.54379
 Alpha virt. eigenvalues --    4.56873   4.59644   4.61490   4.63317   4.70107
          Condensed to atoms (all electrons):
 Mulliken charges:
               1
     1  N   -0.797135
     2  H    0.339932
     3  H    0.477823
     4  H    0.350758
     5  C   -0.032257
     6  H    0.166220
     7  C    0.619266
     8  C   -0.106114
     9  H    0.140924
    10  O   -0.550407
    11  C   -0.466363
    12  H    0.164071
    13  H    0.165631
    14  H    0.150282
    15  C   -0.472904
    16  H    0.154545
    17  H    0.157960
    18  H    0.168427
    19  N   -0.625979
    20  H    0.353555
    21  C   -0.096839
    22  H    0.216524
    23  C    0.600134
    24  C   -0.000619
    25  H    0.178696
    26  H    0.120898
    27  O   -0.518878
    28  O   -0.640396
    29  H    0.418764
    30  N   -0.620660
    31  H    0.377599
    32  C   -0.062395
    33  H    0.184919
    34  C    0.653955
    35  C   -0.474472
    36  H    0.151282
    37  H    0.183758
    38  H    0.180714
    39  O   -0.537597
    40  N   -0.608860
    41  H    0.343874
    42  C   -0.066936
    43  H    0.200123
    44  C    0.638826
    45  C   -0.292694
    46  H    0.158613
    47  H    0.112532
    48  O   -0.600350
    49  C   -0.079111
    50  H    0.123227
    51  C   -0.444626
    52  H    0.139138
    53  H    0.165378
    54  H    0.143162
    55  C   -0.469167
    56  H    0.136285
    57  H    0.164617
    58  H    0.186498
    59  N   -0.604769
    60  H    0.415233
    61  C   -0.043418
    62  H    0.176825
    63  C    0.644268
    64  C   -0.393716
    65  H    0.176209
    66  H    0.174493
    67  O   -0.581627
    68  C    0.146241
    69  C   -0.185823
    70  H    0.124319
    71  C   -0.182402
    72  H    0.140231
    73  C   -0.170395
    74  H    0.146669
    75  C   -0.181896
    76  H    0.154694
    77  O   -0.721643
    78  C    0.331504
    79  N   -0.593508
    80  H    0.364146
    81  C   -0.055198
    82  H    0.204963
    83  C    0.591719
    84  C   -0.274522
    85  H    0.160568
    86  H    0.187548
    87  O   -0.458854
    88  C   -0.283815
    89  H    0.148527
    90  H    0.165304
    91  C   -0.299566
    92  H    0.189605
    93  H    0.181422
    94  C   -0.182825
    95  H    0.197935
    96  H    0.204647
    97  N   -0.800700
    98  H    0.391311
    99  H    0.441175
   100  H    0.449012
   101  O   -0.552863
   102  H    0.434820
 Sum of Mulliken charges =   1.00000
 Mulliken charges with hydrogens summed into heavy atoms:
               1
     1  N   -0.106444
     5  C    0.133962
     7  C    0.619266
     8  C    0.034810
    10  O   -0.550407
    11  C    0.013621
    15  C    0.008028
    19  N   -0.272424
    21  C    0.119685
    23  C    0.600134
    24  C    0.298974
    27  O   -0.518878
    28  O   -0.221632
    30  N   -0.243061
    32  C    0.122525
    34  C    0.653955
    35  C    0.041282
    39  O   -0.537597
    40  N   -0.264986
    42  C    0.133187
    44  C    0.638826
    45  C   -0.021549
    48  O   -0.600350
    49  C    0.044115
    51  C    0.003052
    55  C    0.018232
    59  N   -0.189536
    61  C    0.133407
    63  C    0.644268
    64  C   -0.043014
    67  O   -0.581627
    68  C    0.146241
    69  C   -0.061504
    71  C   -0.042171
    73  C   -0.023726
    75  C   -0.027202
    77  O   -0.243820
    78  C    0.331504
    79  N   -0.229361
    81  C    0.149765
    83  C    0.591719
    84  C    0.073594
    87  O   -0.458854
    88  C    0.030017
    91  C    0.071461
    94  C    0.219757
    97  N    0.480799
   101  O   -0.118043
 Electronic spatial extent (au):  <R**2>=          39917.6549
 Charge=              1.0000 electrons
 Dipole moment (field-independent basis, Debye):
    X=             13.6323    Y=             -3.8591    Z=             -6.0323  Tot=             15.3987
 Quadrupole moment (field-independent basis, Debye-Ang):
   XX=            -75.1501   YY=           -287.4048   ZZ=           -240.6000
   XY=            -32.1870   XZ=            -16.8446   YZ=            -29.1008
 Traceless Quadrupole moment (field-independent basis, Debye-Ang):
   XX=            125.9015   YY=            -86.3532   ZZ=            -39.5483
   XY=            -32.1870   XZ=            -16.8446   YZ=            -29.1008
 Octapole moment (field-independent basis, Debye-Ang**2):
  XXX=            240.1233  YYY=           -896.1197  ZZZ=            154.6143  XYY=           -104.5502
  XXY=           -177.6400  XXZ=           -142.1443  XZZ=            169.0814  YZZ=           -240.8257
  YYZ=             19.1595  XYZ=             32.6062
 Hexadecapole moment (field-independent basis, Debye-Ang**3):
 XXXX=         -21697.4948 YYYY=          -8428.1920 ZZZZ=         -10836.4079 XXXY=           2058.8970
 XXXZ=           1803.1814 YYYX=           4233.6970 YYYZ=           -150.1786 ZZZX=           1444.2029
 ZZZY=           -178.8165 XXYY=          -5731.6942 XXZZ=          -5238.3184 YYZZ=          -3300.3957
 XXYZ=           -324.2889 YYXZ=           1194.6750 ZZXY=           1590.2870
 N-N= 6.862855771179D+03 E-N=-1.908013710766D+04  KE= 2.290819038355D+03
 Unable to Open any file for archive entry.
 1\1\GINC-AMR-066\SP\RB3LYP\6-31G(d)\C32H54N7O9(1+)\KENGMITH\27-Jun-202
 2\0\\# B3LYP/6-31G* empiricaldispersion=gd3 guess=read geom=check nosy
 mm integral(ultrafinegrid)\\Candidate Structure: Conf:315 Charge calc 
 in gas phase\\1,1\N,0,-5.1231174236,3.3964451022,-2.182884779\H,0,-5.8
 245595629,3.3347253767,-2.9180694015\H,0,-4.1650685475,1.989559689,-1.
 9778403951\H,0,-4.5366454527,4.2043940972,-2.3945902504\C,0,-5.7677920
 688,3.6322578756,-0.8662783708\H,0,-6.3611805543,4.559152023,-0.879009
 9421\C,0,-4.5622261302,3.926700198,0.0472242062\C,0,-6.6947989014,2.46
 77739394,-0.4639423228\H,0,-6.0743922914,1.5760020479,-0.2899350996\O,
 0,-3.8839285802,4.9334570373,-0.1842735208\C,0,-7.4760488616,2.8222509
 846,0.8144791286\H,0,-8.1698217508,3.6484711632,0.6182859608\H,0,-8.06
 77678332,1.9659586995,1.1534896663\H,0,-6.8289149791,3.1329200212,1.64
 17846026\C,0,-7.6793041999,2.1139546698,-1.5914306021\H,0,-8.251386772
 5,2.996093963,-1.9071216442\H,0,-7.1727656018,1.691304749,-2.465368396
 7\H,0,-8.3974059444,1.3647003589,-1.2431384937\N,0,-4.2169139108,3.023
 6222147,0.9903340621\H,0,-4.8367978088,2.2528533017,1.1933375066\C,0,-
 2.9697328918,3.1245585065,1.7551980786\H,0,-2.2003452597,3.4926967554,
 1.0622966701\C,0,-2.4835483019,1.7332711269,2.169204578\C,0,-3.0404450
 241,4.134060075,2.9138893601\H,0,-2.2688283164,3.8803016618,3.64435805
 26\H,0,-4.0215641424,4.0316726723,3.4087768117\O,0,-1.8113010909,1.554
 7657208,3.1764202048\O,0,-2.7925570122,5.4560833139,2.4808927516\H,0,-
 3.2282284658,5.5827915582,1.6188809869\N,0,-2.7875077023,0.7099327434,
 1.2997837143\H,0,-3.0885676865,0.9641853236,0.3600159281\C,0,-1.944384
 3349,-0.4689993655,1.3860813322\H,0,-1.9742136561,-0.82148196,2.422037
 46\C,0,-0.4891640495,-0.0452167387,1.085532371\C,0,-2.4310748326,-1.57
 24734839,0.4420487145\H,0,-1.7984432027,-2.4620490069,0.5254776041\H,0
 ,-2.4076356662,-1.2328391633,-0.5961635007\H,0,-3.4570258738,-1.852718
 658,0.6967219395\O,0,-0.2212254122,1.0327437755,0.5560744058\N,0,0.493
 0577604,-0.9145599326,1.4526021314\H,0,0.2429057528,-1.753689393,1.958
 3190974\C,0,1.8778988329,-0.442585318,1.555474918\H,0,1.8220674458,0.6
 273645763,1.7840730531\C,0,2.5784987868,-0.5762863,0.1876787661\C,0,2.
 6367796033,-1.1649914355,2.6687650519\H,0,2.8109879143,-2.2072670534,2
 .3741916804\H,0,3.6297008397,-0.6963963388,2.739693806\O,0,3.455587467
 5,-1.4392919286,-0.0379851339\C,0,1.9677535932,-1.1030088908,4.0586293
 239\H,0,1.0527886223,-1.7140250435,4.0289948062\C,0,2.9023278503,-1.73
 46847859,5.1002727486\H,0,3.8180620601,-1.1392728023,5.2118285581\H,0,
 2.4186227504,-1.7825155914,6.0812749837\H,0,3.1939552506,-2.7536080869
 ,4.8179584769\C,0,1.5643285094,0.3234455915,4.4615434676\H,0,2.4233715
 392,1.0049689264,4.3998330909\H,0,1.2066021433,0.3397261792,5.49630354
 85\H,0,0.757235409,0.7249196295,3.8391040559\N,0,2.1788846337,0.303052
 338,-0.7369594502\H,0,1.3629837815,0.8782494182,-0.5015721121\C,0,2.61
 92356073,0.2484522301,-2.1173855189\H,0,2.3617158644,-0.7357828356,-2.
 530660045\C,0,4.1390339688,0.4301013604,-2.2488358565\C,0,1.9078675215
 ,1.3568464561,-2.9467517343\H,0,2.1784059559,1.2079931017,-3.999581178
 3\H,0,2.3199689025,2.3275315237,-2.6473661711\O,0,4.8363173224,0.99347
 84761,-1.3968494467\C,0,0.4063090589,1.3512332711,-2.7529429217\C,0,-0
 .3455272053,0.1957868255,-3.0096499488\H,0,0.1367210496,-0.6858577549,
 -3.4273531522\C,0,-0.2588486388,2.4751637723,-2.2498054492\H,0,0.30296
 57115,3.382849544,-2.0421058481\C,0,-1.7070280343,0.1524917381,-2.7346
 959736\H,0,-2.296026827,-0.7356968689,-2.9414480748\C,0,-1.624368529,2
 .4475320247,-1.9689261086\H,0,-2.1133780895,3.3189566322,-1.5412959124
 \O,0,-3.6547421108,1.1337425356,-1.8072340204\C,0,-2.3504546971,1.2693
 089365,-2.1817832874\N,0,4.6346161536,-0.0337753914,-3.4203328402\H,0,
 3.979786064,-0.379707077,-4.1162915729\C,0,5.9032830696,0.4103086082,-
 3.9878168671\H,0,6.165839865,1.3691029816,-3.5260161937\C,0,5.64823970
 94,0.6521999516,-5.4767187502\C,0,7.0844452695,-0.5656017784,-3.786992
 2125\H,0,6.8359022654,-1.5349743783,-4.2377662786\H,0,7.9301751644,-0.
 1603361467,-4.3506857817\O,0,4.6219978736,0.3498109324,-6.0476898304\C
 ,0,7.4881420948,-0.741103607,-2.312881966\H,0,7.3571826528,0.221817976
 4,-1.8029088739\H,0,8.5591857978,-0.9704231083,-2.2590220045\C,0,6.724
 8849011,-1.854119367,-1.5710386854\H,0,5.6571386091,-1.8463946729,-1.8
 141931259\H,0,7.105255575,-2.8309591933,-1.8900648163\C,0,6.8865623391
 ,-1.7514670424,-0.0544291564\H,0,7.9073140597,-1.4744879572,0.22395092
 29\H,0,6.6251107916,-2.6815353076,0.4553294389\N,0,5.9543869153,-0.693
 9951622,0.4856259517\H,0,6.209866805,-0.3818861626,1.425094251\H,0,5.8
 739990747,0.1266515378,-0.1480721317\H,0,4.9663979345,-1.0672686227,0.
 4903027696\O,0,6.7062712316,1.2227988205,-6.0704900185\H,0,6.491880503
 9,1.3370290306,-7.0167590964\\Version=ES64L-G16RevC.01\HF=-2312.277601
 7\RMSD=8.712e-09\Dipole=4.615639,-3.2460903,-1.4810338\Quadrupole=93.6
 046731,-64.2014573,-29.4032158,-23.9302192,-12.5235658,-21.6357273\PG=
 C01 [X(C32H54N7O9)]\\@
 The archive entry for this job was punched.


 I think that all right-thinking people in this
 country are sick and tired of being told that
 ordinary, decent people are fed up in this country
 with being sick and tired.  I'm certainly not!
 But I'm sick and tired of being told that I am!
                               -- Monty Python
 Job cpu time:       0 days  0 hours  2 minutes 39.2 seconds.
 Elapsed time:       0 days  0 hours  0 minutes 40.4 seconds.
 File lengths (MBytes):  RWF=    472 Int=      0 D2E=      0 Chk=     72 Scr=     16
 Normal termination of Gaussian 16 at Mon Jun 27 02:25:46 2022.
