 Entering Gaussian System, Link 0=/opt/software/Gaussian/g16-AVX2-C.01/g16/g16
 Input=charge-conf-428.com
 Output=charge-conf-428.log
 Initial command:
 /opt/software/Gaussian/g16-AVX2-C.01/g16/l1.exe "/mnt/gs18/scratch/users/kengmith/Gau-103351.inp" -scrdir="/mnt/gs18/scratch/users/kengmith/"
 Entering Link 1 = /opt/software/Gaussian/g16-AVX2-C.01/g16/l1.exe PID=    103361.
  
 Copyright (c) 1988-2019, Gaussian, Inc.  All Rights Reserved.
  
 This is part of the Gaussian(R) 16 program.  It is based on
 the Gaussian(R) 09 system (copyright 2009, Gaussian, Inc.),
 the Gaussian(R) 03 system (copyright 2003, Gaussian, Inc.),
 the Gaussian(R) 98 system (copyright 1998, Gaussian, Inc.),
 the Gaussian(R) 94 system (copyright 1995, Gaussian, Inc.),
 the Gaussian 92(TM) system (copyright 1992, Gaussian, Inc.),
 the Gaussian 90(TM) system (copyright 1990, Gaussian, Inc.),
 the Gaussian 88(TM) system (copyright 1988, Gaussian, Inc.),
 the Gaussian 86(TM) system (copyright 1986, Carnegie Mellon
 University), and the Gaussian 82(TM) system (copyright 1983,
 Carnegie Mellon University). Gaussian is a federally registered
 trademark of Gaussian, Inc.
  
 This software contains proprietary and confidential information,
 including trade secrets, belonging to Gaussian, Inc.
  
 This software is provided under written license and may be
 used, copied, transmitted, or stored only in accord with that
 written license.
  
 The following legend is applicable only to US Government
 contracts under FAR:
  
                    RESTRICTED RIGHTS LEGEND
  
 Use, reproduction and disclosure by the US Government is
 subject to restrictions as set forth in subparagraphs (a)
 and (c) of the Commercial Computer Software - Restricted
 Rights clause in FAR 52.227-19.
  
 Gaussian, Inc.
 340 Quinnipiac St., Bldg. 40, Wallingford CT 06492
  
  
 ---------------------------------------------------------------
 Warning -- This program may not be used in any manner that
 competes with the business of Gaussian, Inc. or will provide
 assistance to any competitor of Gaussian, Inc.  The licensee
 of this program is prohibited from giving any competitor of
 Gaussian, Inc. access to this program.  By using this program,
 the user acknowledges that Gaussian, Inc. is engaged in the
 business of creating and licensing software in the field of
 computational chemistry and represents and warrants to the
 licensee that it is not a competitor of Gaussian, Inc. and that
 it will not use this program in any manner prohibited above.
 ---------------------------------------------------------------
  

 Cite this work as:
 Gaussian 16, Revision C.01,
 M. J. Frisch, G. W. Trucks, H. B. Schlegel, G. E. Scuseria, 
 M. A. Robb, J. R. Cheeseman, G. Scalmani, V. Barone, 
 G. A. Petersson, H. Nakatsuji, X. Li, M. Caricato, A. V. Marenich, 
 J. Bloino, B. G. Janesko, R. Gomperts, B. Mennucci, H. P. Hratchian, 
 J. V. Ortiz, A. F. Izmaylov, J. L. Sonnenberg, D. Williams-Young, 
 F. Ding, F. Lipparini, F. Egidi, J. Goings, B. Peng, A. Petrone, 
 T. Henderson, D. Ranasinghe, V. G. Zakrzewski, J. Gao, N. Rega, 
 G. Zheng, W. Liang, M. Hada, M. Ehara, K. Toyota, R. Fukuda, 
 J. Hasegawa, M. Ishida, T. Nakajima, Y. Honda, O. Kitao, H. Nakai, 
 T. Vreven, K. Throssell, J. A. Montgomery, Jr., J. E. Peralta, 
 F. Ogliaro, M. J. Bearpark, J. J. Heyd, E. N. Brothers, K. N. Kudin, 
 V. N. Staroverov, T. A. Keith, R. Kobayashi, J. Normand, 
 K. Raghavachari, A. P. Rendell, J. C. Burant, S. S. Iyengar, 
 J. Tomasi, M. Cossi, J. M. Millam, M. Klene, C. Adamo, R. Cammi, 
 J. W. Ochterski, R. L. Martin, K. Morokuma, O. Farkas, 
 J. B. Foresman, and D. J. Fox, Gaussian, Inc., Wallingford CT, 2019.
 
 ******************************************
 Gaussian 16:  ES64L-G16RevC.01  3-Jul-2019
                28-Jun-2022 
 ******************************************
 %mem=8gb
 %nproc=4
 Will use up to    4 processors via shared memory.
 %chk=conf-428.chk
 -------------------------------------------------------------------
 # B3LYP/6-31G* guess=read geom=check nosymm integral(ultrafinegrid)
 -------------------------------------------------------------------
 1/29=2,38=1,172=1/1;
 2/12=2,15=1,40=1/2;
 3/5=1,6=6,7=1,11=2,14=-4,25=1,30=1,74=-5,75=-5,116=-2/1,2,3;
 4/5=1/1;
 5/5=2,38=6/2;
 6/7=2,8=2,9=2,10=2,28=1/1;
 99/5=1,9=1/99;
 ------------------------------------------------------
 Candidate Structure: Conf:428 Charge calc in gas phase
 ------------------------------------------------------
 Structure from the checkpoint file:  "conf-428.chk"
 Charge =  1 Multiplicity = 1
 Redundant internal coordinates found in file.  (old form).
 N,0,-5.5840602771,-0.1448434009,3.20215532
 H,0,-6.2333790042,0.6393461961,3.3153041759
 H,0,-5.7029524708,-0.5362188107,2.2182727614
 H,0,-5.7868681974,-0.8484216004,3.9176095767
 C,0,-4.126816942,0.2862473563,3.1808028743
 H,0,-4.056886083,1.2624421316,3.6634457606
 C,0,-3.8530651659,0.3746867972,1.6528214367
 C,0,-3.2765345153,-0.7720139177,3.9090875235
 H,0,-3.7010211481,-0.9083600218,4.9151568542
 H,0,-3.3882933173,-1.7257200203,3.3756488345
 O,0,-4.6310912555,-0.2397992156,0.9088007647
 C,0,-1.7732608709,-0.4444439398,4.0648791469
 H,0,-1.3338995684,-0.3233803726,3.0665411294
 C,0,-1.5333846618,0.8466700436,4.8635422707
 H,0,-1.9717224616,0.7793531286,5.8673703806
 H,0,-1.9472488536,1.7397449939,4.3774032644
 H,0,-0.4602445575,1.0237994751,4.9819307526
 C,0,-1.072985847,-1.6364350848,4.7364737149
 H,0,-1.4597428799,-1.8059101335,5.7490402126
 H,0,-1.2091582188,-2.5601374586,4.1627169668
 H,0,0.0021186171,-1.4493582329,4.8189876653
 N,0,-2.8109750866,1.1019171469,1.2627628933
 H,0,-2.1178417217,1.4330708833,1.9312396437
 C,0,-2.3780662923,1.2331758138,-0.1248168019
 H,0,-2.820941081,0.4126757794,-0.6948563628
 C,0,-0.8398554835,1.1304174846,-0.0883430224
 C,0,-2.809069386,2.6030373248,-0.7363856528
 H,0,-2.2298110401,3.3905538716,-0.2386717304
 H,0,-2.4897148069,2.6027155369,-1.7868514938
 O,0,-0.2347799393,1.2700861211,0.9785457927
 C,0,-4.2710767109,2.9152077678,-0.6320675023
 C,0,-4.820788455,3.9062519101,0.1448157756
 H,0,-4.3311097154,4.6249074458,0.7890632096
 C,0,-5.3683268942,2.2897035917,-1.335586635
 C,0,-6.5559824901,2.9563901984,-0.9308978963
 C,0,-5.4648703219,1.2491958229,-2.2767430911
 H,0,-4.5775954403,0.7219910816,-2.6179290847
 N,0,-6.193624711,3.9209887085,-0.005393636
 H,0,-6.7970951598,4.6625183507,0.317799593
 C,0,-7.8763369755,1.5887635136,-2.3674414796
 H,0,-8.8369874031,1.306548838,-2.7881731718
 C,0,-7.8157550112,2.6186803173,-1.4362965346
 H,0,-8.7119820315,3.1481939944,-1.1240491504
 C,0,-6.712312622,0.9103495998,-2.7833370746
 H,0,-6.7957771138,0.1147485975,-3.5178286045
 N,0,-0.2413016687,0.9391352109,-1.2784073539
 H,0,-0.7704912675,0.8775876893,-2.1460634714
 C,0,1.1944618212,1.0332468134,-1.4903335097
 H,0,1.6266516056,1.731283444,-0.7670556637
 C,0,1.3762656417,1.4906360556,-2.9481401617
 C,0,1.859926188,-0.3594526364,-1.3126674926
 H,0,1.4064251739,-1.0467469791,-2.0432128807
 H,0,1.6304887021,-0.7204463349,-0.3066485749
 O,0,0.5200637668,1.1972498649,-3.7811529594
 O,0,3.2758972793,-0.3255689037,-1.4234654745
 H,0,3.5526283851,0.1177633567,-2.2663166673
 N,0,2.5332474832,2.1369239265,-3.2233768041
 H,0,3.1920388327,2.2680670399,-2.4651559881
 C,0,3.0978121689,2.204720429,-4.5691785355
 H,0,2.2792924689,1.9820047646,-5.2576296329
 C,0,4.192730519,1.1146249151,-4.7131226038
 C,0,3.66951276,3.5978429742,-4.8728153319
 H,0,4.0797189173,3.6268541229,-5.8865453169
 H,0,4.4750697241,3.8523470913,-4.1736279586
 H,0,2.8830888618,4.3534101087,-4.7889184243
 O,0,4.612131206,0.5443138317,-3.654621863
 N,0,4.590187425,0.916145314,-5.9530484316
 H,0,4.2416497112,1.5322452084,-6.7530065878
 C,0,5.8019773259,0.3321364286,-6.56825175
 H,0,6.6775614266,0.6507659137,-5.9878327177
 C,0,5.8654974864,1.023177662,-8.0012155463
 C,0,5.8180209723,-1.2058225066,-6.6684242632
 H,0,5.0409906491,-1.5568301081,-7.357699475
 H,0,6.7862164513,-1.4864427178,-7.0923941643
 O,0,6.7921349498,0.6426860906,-8.7200722515
 C,0,5.5863052941,-1.7198157725,-5.2526303019
 H,0,6.2656336709,-1.1261373232,-4.6293599887
 H,0,4.5722503882,-1.3912429327,-5.0014112232
 C,0,5.6986667265,-3.1672325095,-4.7658886562
 H,0,6.7426964472,-3.4885283885,-4.67036023
 H,0,5.2033741098,-3.8811671271,-5.4341054741
 C,0,4.9700712112,-3.2387552501,-3.4066016932
 H,0,3.8881242197,-3.2372109009,-3.5607044711
 H,0,5.2353931128,-4.1111528023,-2.8047612251
 N,0,5.2418144157,-2.0045851681,-2.5523179597
 H,0,4.5339756014,-1.8494225314,-1.8116861228
 H,0,6.1721186679,-2.0317622526,-2.125655888
 H,0,5.1774374233,-1.1223488979,-3.1225762932
 O,0,4.9332647065,1.8648242438,-8.191300536
 Recover connectivity data from disk.
                           ----------------------------
                           !    Current Parameters    !
                           ! (Angstroms and Degrees)  !
 --------------------------                            --------------------------
 ! Name  Definition              Value                                          !
 --------------------------------------------------------------------------------
 ! R1    R(1,2)                  1.0244                                         !
 ! R2    R(1,3)                  1.0655                                         !
 ! R3    R(1,4)                  1.0237                                         !
 ! R4    R(1,5)                  1.5198                                         !
 ! R5    R(5,6)                  1.0912                                         !
 ! R6    R(5,7)                  1.5548                                         !
 ! R7    R(5,8)                  1.5406                                         !
 ! R8    R(7,11)                 1.2396                                         !
 ! R9    R(7,22)                 1.3293                                         !
 ! R10   R(8,9)                  1.1004                                         !
 ! R11   R(8,10)                 1.0985                                         !
 ! R12   R(8,12)                 1.5464                                         !
 ! R13   R(12,13)                1.0974                                         !
 ! R14   R(12,14)                1.537                                          !
 ! R15   R(12,18)                1.537                                          !
 ! R16   R(14,15)                1.0974                                         !
 ! R17   R(14,16)                1.0978                                         !
 ! R18   R(14,17)                1.0941                                         !
 ! R19   R(18,19)                1.0971                                         !
 ! R20   R(18,20)                1.0959                                         !
 ! R21   R(18,21)                1.0944                                         !
 ! R22   R(22,23)                1.0183                                         !
 ! R23   R(22,24)                1.4595                                         !
 ! R24   R(24,25)                1.0928                                         !
 ! R25   R(24,26)                1.5421                                         !
 ! R26   R(24,27)                1.5609                                         !
 ! R27   R(26,30)                1.2345                                         !
 ! R28   R(26,46)                1.3458                                         !
 ! R29   R(27,28)                1.097                                          !
 ! R30   R(27,29)                1.0979                                         !
 ! R31   R(27,31)                1.4986                                         !
 ! R32   R(31,32)                1.374                                          !
 ! R33   R(31,34)                1.4457                                         !
 ! R34   R(32,33)                1.0823                                         !
 ! R35   R(32,38)                1.3811                                         !
 ! R36   R(34,35)                1.4208                                         !
 ! R37   R(34,36)                1.4063                                         !
 ! R38   R(35,38)                1.385                                          !
 ! R39   R(35,42)                1.3988                                         !
 ! R40   R(36,37)                1.087                                          !
 ! R41   R(36,44)                1.3884                                         !
 ! R42   R(38,39)                1.0092                                         !
 ! R43   R(40,41)                1.0861                                         !
 ! R44   R(40,42)                1.3898                                         !
 ! R45   R(40,44)                1.41                                           !
 ! R46   R(42,43)                1.0868                                         !
 ! R47   R(44,45)                1.086                                          !
 ! R48   R(46,47)                1.0182                                         !
 ! R49   R(46,48)                1.4544                                         !
 ! R50   R(48,49)                1.0942                                         !
 ! R51   R(48,50)                1.5387                                         !
 ! R52   R(48,51)                1.5537                                         !
 ! R53   R(50,54)                1.2301                                         !
 ! R54   R(50,57)                1.3535                                         !
 ! R55   R(51,52)                1.1008                                         !
 ! R56   R(51,53)                1.0932                                         !
 ! R57   R(51,55)                1.4207                                         !
 ! R58   R(55,56)                0.9917                                         !
 ! R59   R(57,58)                1.013                                          !
 ! R60   R(57,59)                1.461                                          !
 ! R61   R(59,60)                1.0925                                         !
 ! R62   R(59,61)                1.5517                                         !
 ! R63   R(59,62)                1.5362                                         !
 ! R64   R(61,66)                1.2734                                         !
 ! R65   R(61,67)                1.3171                                         !
 ! R66   R(62,63)                1.094                                          !
 ! R67   R(62,64)                1.0966                                         !
 ! R68   R(62,65)                1.0938                                         !
 ! R69   R(67,68)                1.0682                                         !
 ! R70   R(67,69)                1.4792                                         !
 ! R71   R(69,70)                1.0978                                         !
 ! R72   R(69,71)                1.5922                                         !
 ! R73   R(69,72)                1.5413                                         !
 ! R74   R(71,75)                1.233                                          !
 ! R75   R(71,89)                1.2703                                         !
 ! R76   R(72,73)                1.0964                                         !
 ! R77   R(72,74)                1.0936                                         !
 ! R78   R(72,76)                1.5239                                         !
 ! R79   R(76,77)                1.0965                                         !
 ! R80   R(76,78)                1.0952                                         !
 ! R81   R(76,79)                1.5312                                         !
 ! R82   R(79,80)                1.0965                                         !
 ! R83   R(79,81)                1.0961                                         !
 ! R84   R(79,82)                1.5439                                         !
 ! R85   R(82,83)                1.0929                                         !
 ! R86   R(82,84)                1.0926                                         !
 ! R87   R(82,85)                1.5254                                         !
 ! R88   R(85,86)                1.0362                                         !
 ! R89   R(85,87)                1.0238                                         !
 ! R90   R(85,88)                1.0525                                         !
 ! A1    A(2,1,3)              108.2068                                         !
 ! A2    A(2,1,4)              108.8658                                         !
 ! A3    A(2,1,5)              113.09                                           !
 ! A4    A(3,1,4)              111.7636                                         !
 ! A5    A(3,1,5)              101.4317                                         !
 ! A6    A(4,1,5)              113.2478                                         !
 ! A7    A(1,5,6)              107.9975                                         !
 ! A8    A(1,5,7)              101.4643                                         !
 ! A9    A(1,5,8)              109.1305                                         !
 ! A10   A(6,5,7)              111.8691                                         !
 ! A11   A(6,5,8)              111.7193                                         !
 ! A12   A(7,5,8)              113.9837                                         !
 ! A13   A(5,7,11)             116.8183                                         !
 ! A14   A(5,7,22)             117.2271                                         !
 ! A15   A(11,7,22)            125.9545                                         !
 ! A16   A(5,8,9)              107.7228                                         !
 ! A17   A(5,8,10)             108.1005                                         !
 ! A18   A(5,8,12)             116.0179                                         !
 ! A19   A(9,8,10)             107.2872                                         !
 ! A20   A(9,8,12)             108.0064                                         !
 ! A21   A(10,8,12)            109.3744                                         !
 ! A22   A(8,12,13)            108.7176                                         !
 ! A23   A(8,12,14)            112.4576                                         !
 ! A24   A(8,12,18)            108.8233                                         !
 ! A25   A(13,12,14)           108.5149                                         !
 ! A26   A(13,12,18)           107.4965                                         !
 ! A27   A(14,12,18)           110.6901                                         !
 ! A28   A(12,14,15)           111.1887                                         !
 ! A29   A(12,14,16)           113.2299                                         !
 ! A30   A(12,14,17)           110.2004                                         !
 ! A31   A(15,14,16)           107.7208                                         !
 ! A32   A(15,14,17)           107.6216                                         !
 ! A33   A(16,14,17)           106.6178                                         !
 ! A34   A(12,18,19)           111.2527                                         !
 ! A35   A(12,18,20)           111.6113                                         !
 ! A36   A(12,18,21)           110.3632                                         !
 ! A37   A(19,18,20)           108.0116                                         !
 ! A38   A(19,18,21)           107.6464                                         !
 ! A39   A(20,18,21)           107.7961                                         !
 ! A40   A(7,22,23)            121.2584                                         !
 ! A41   A(7,22,24)            124.1062                                         !
 ! A42   A(23,22,24)           113.1398                                         !
 ! A43   A(22,24,25)           107.9503                                         !
 ! A44   A(22,24,26)           105.5096                                         !
 ! A45   A(22,24,27)           111.6873                                         !
 ! A46   A(25,24,26)           111.5026                                         !
 ! A47   A(25,24,27)           110.038                                          !
 ! A48   A(26,24,27)           110.0713                                         !
 ! A49   A(24,26,30)           120.1213                                         !
 ! A50   A(24,26,46)           115.6077                                         !
 ! A51   A(30,26,46)           124.2177                                         !
 ! A52   A(24,27,28)           107.8457                                         !
 ! A53   A(24,27,29)           107.1155                                         !
 ! A54   A(24,27,31)           115.1463                                         !
 ! A55   A(28,27,29)           106.3023                                         !
 ! A56   A(28,27,31)           109.5128                                         !
 ! A57   A(29,27,31)           110.5135                                         !
 ! A58   A(27,31,32)           125.4447                                         !
 ! A59   A(27,31,34)           128.0556                                         !
 ! A60   A(32,31,34)           106.4729                                         !
 ! A61   A(31,32,33)           129.3835                                         !
 ! A62   A(31,32,38)           110.1137                                         !
 ! A63   A(33,32,38)           120.491                                          !
 ! A64   A(31,34,35)           107.025                                          !
 ! A65   A(31,34,36)           134.2565                                         !
 ! A66   A(35,34,36)           118.7113                                         !
 ! A67   A(34,35,38)           107.363                                          !
 ! A68   A(34,35,42)           122.4547                                         !
 ! A69   A(38,35,42)           130.1821                                         !
 ! A70   A(34,36,37)           120.8545                                         !
 ! A71   A(34,36,44)           119.1074                                         !
 ! A72   A(37,36,44)           120.0328                                         !
 ! A73   A(32,38,35)           108.9838                                         !
 ! A74   A(32,38,39)           124.5687                                         !
 ! A75   A(35,38,39)           124.6997                                         !
 ! A76   A(41,40,42)           119.3857                                         !
 ! A77   A(41,40,44)           119.4014                                         !
 ! A78   A(42,40,44)           121.2112                                         !
 ! A79   A(35,42,40)           117.4046                                         !
 ! A80   A(35,42,43)           121.4177                                         !
 ! A81   A(40,42,43)           121.1731                                         !
 ! A82   A(36,44,40)           121.1103                                         !
 ! A83   A(36,44,45)           119.6452                                         !
 ! A84   A(40,44,45)           119.243                                          !
 ! A85   A(26,46,47)           122.0733                                         !
 ! A86   A(26,46,48)           123.9684                                         !
 ! A87   A(47,46,48)           113.131                                          !
 ! A88   A(46,48,49)           109.5667                                         !
 ! A89   A(46,48,50)           105.899                                          !
 ! A90   A(46,48,51)           110.3749                                         !
 ! A91   A(49,48,50)           112.9536                                         !
 ! A92   A(49,48,51)           109.092                                          !
 ! A93   A(50,48,51)           108.9167                                         !
 ! A94   A(48,50,54)           119.2406                                         !
 ! A95   A(48,50,57)           115.8235                                         !
 ! A96   A(54,50,57)           124.8312                                         !
 ! A97   A(48,51,52)           107.8978                                         !
 ! A98   A(48,51,53)           108.1402                                         !
 ! A99   A(48,51,55)           113.3648                                         !
 ! A100  A(52,51,53)           108.5479                                         !
 ! A101  A(52,51,55)           111.9465                                         !
 ! A102  A(53,51,55)           106.7878                                         !
 ! A103  A(51,55,56)           110.7967                                         !
 ! A104  A(50,57,58)           117.7443                                         !
 ! A105  A(50,57,59)           122.6687                                         !
 ! A106  A(58,57,59)           115.6056                                         !
 ! A107  A(57,59,60)           106.3498                                         !
 ! A108  A(57,59,61)           108.9968                                         !
 ! A109  A(57,59,62)           111.5903                                         !
 ! A110  A(60,59,61)           109.0862                                         !
 ! A111  A(60,59,62)           109.825                                          !
 ! A112  A(61,59,62)           110.8639                                         !
 ! A113  A(59,61,66)           118.0284                                         !
 ! A114  A(59,61,67)           113.9612                                         !
 ! A115  A(66,61,67)           127.9988                                         !
 ! A116  A(59,62,63)           110.2893                                         !
 ! A117  A(59,62,64)           110.9669                                         !
 ! A118  A(59,62,65)           110.1032                                         !
 ! A119  A(63,62,64)           108.0123                                         !
 ! A120  A(63,62,65)           108.8056                                         !
 ! A121  A(64,62,65)           108.5987                                         !
 ! A122  A(61,67,68)           121.3079                                         !
 ! A123  A(61,67,69)           134.2864                                         !
 ! A124  A(68,67,69)           100.5771                                         !
 ! A125  A(67,69,70)           108.5981                                         !
 ! A126  A(67,69,71)           103.6296                                         !
 ! A127  A(67,69,72)           115.4372                                         !
 ! A128  A(70,69,71)           108.5461                                         !
 ! A129  A(70,69,72)           108.4024                                         !
 ! A130  A(71,69,72)           111.9735                                         !
 ! A131  A(69,71,75)           114.884                                          !
 ! A132  A(69,71,89)           113.14                                           !
 ! A133  A(75,71,89)           131.9734                                         !
 ! A134  A(69,72,73)           110.6669                                         !
 ! A135  A(69,72,74)           106.8858                                         !
 ! A136  A(69,72,76)           105.9374                                         !
 ! A137  A(73,72,74)           107.5523                                         !
 ! A138  A(73,72,76)           111.6123                                         !
 ! A139  A(74,72,76)           114.0951                                         !
 ! A140  A(72,76,77)           104.5519                                         !
 ! A141  A(72,76,78)           104.6381                                         !
 ! A142  A(72,76,79)           127.0849                                         !
 ! A143  A(77,76,78)           106.309                                          !
 ! A144  A(77,76,79)           106.5972                                         !
 ! A145  A(78,76,79)           106.1787                                         !
 ! A146  A(76,79,80)           111.9962                                         !
 ! A147  A(76,79,81)           112.8759                                         !
 ! A148  A(76,79,82)           106.8001                                         !
 ! A149  A(80,79,81)           107.0068                                         !
 ! A150  A(80,79,82)           111.042                                          !
 ! A151  A(81,79,82)           107.0558                                         !
 ! A152  A(79,82,83)           110.0592                                         !
 ! A153  A(79,82,84)           114.0399                                         !
 ! A154  A(79,82,85)           111.8095                                         !
 ! A155  A(83,82,84)           108.6158                                         !
 ! A156  A(83,82,85)           104.7258                                         !
 ! A157  A(84,82,85)           107.1145                                         !
 ! A158  A(82,85,86)           113.5636                                         !
 ! A159  A(82,85,87)           111.9489                                         !
 ! A160  A(82,85,88)           111.3384                                         !
 ! A161  A(86,85,87)           109.0764                                         !
 ! A162  A(86,85,88)           102.7077                                         !
 ! A163  A(87,85,88)           107.6756                                         !
 ! D1    D(2,1,5,6)             21.4605                                         !
 ! D2    D(2,1,5,7)            -96.2826                                         !
 ! D3    D(2,1,5,8)            143.0973                                         !
 ! D4    D(3,1,5,6)            137.1022                                         !
 ! D5    D(3,1,5,7)             19.359                                          !
 ! D6    D(3,1,5,8)           -101.2611                                         !
 ! D7    D(4,1,5,6)           -102.9919                                         !
 ! D8    D(4,1,5,7)            139.265                                          !
 ! D9    D(4,1,5,8)             18.6449                                         !
 ! D10   D(1,5,7,11)           -19.655                                          !
 ! D11   D(1,5,7,22)           160.2204                                         !
 ! D12   D(6,5,7,11)          -134.5597                                         !
 ! D13   D(6,5,7,22)            45.3157                                         !
 ! D14   D(8,5,7,11)            97.4882                                         !
 ! D15   D(8,5,7,22)           -82.6364                                         !
 ! D16   D(1,5,8,9)            -54.8887                                         !
 ! D17   D(1,5,8,10)            60.7482                                         !
 ! D18   D(1,5,8,12)          -176.0277                                         !
 ! D19   D(6,5,8,9)             64.4651                                         !
 ! D20   D(6,5,8,10)          -179.898                                          !
 ! D21   D(6,5,8,12)           -56.6738                                         !
 ! D22   D(7,5,8,9)           -167.5062                                         !
 ! D23   D(7,5,8,10)           -51.8692                                         !
 ! D24   D(7,5,8,12)            71.3549                                         !
 ! D25   D(5,7,22,23)           11.7519                                         !
 ! D26   D(5,7,22,24)          176.8311                                         !
 ! D27   D(11,7,22,23)        -168.3854                                         !
 ! D28   D(11,7,22,24)          -3.3063                                         !
 ! D29   D(5,8,12,13)          -59.995                                          !
 ! D30   D(5,8,12,14)           60.1937                                         !
 ! D31   D(5,8,12,18)         -176.7946                                         !
 ! D32   D(9,8,12,13)          179.0179                                         !
 ! D33   D(9,8,12,14)          -60.7934                                         !
 ! D34   D(9,8,12,18)           62.2183                                         !
 ! D35   D(10,8,12,13)          62.5609                                         !
 ! D36   D(10,8,12,14)        -177.2503                                         !
 ! D37   D(10,8,12,18)         -54.2387                                         !
 ! D38   D(8,12,14,15)          58.7365                                         !
 ! D39   D(8,12,14,16)         -62.7055                                         !
 ! D40   D(8,12,14,17)         177.9843                                         !
 ! D41   D(13,12,14,15)        179.0422                                         !
 ! D42   D(13,12,14,16)         57.6003                                         !
 ! D43   D(13,12,14,17)        -61.7099                                         !
 ! D44   D(18,12,14,15)        -63.2221                                         !
 ! D45   D(18,12,14,16)        175.336                                          !
 ! D46   D(18,12,14,17)         56.0258                                         !
 ! D47   D(8,12,18,19)         -63.0798                                         !
 ! D48   D(8,12,18,20)          57.6465                                         !
 ! D49   D(8,12,18,21)         177.494                                          !
 ! D50   D(13,12,18,19)        179.3434                                         !
 ! D51   D(13,12,18,20)        -59.9304                                         !
 ! D52   D(13,12,18,21)         59.9171                                         !
 ! D53   D(14,12,18,19)         60.9863                                         !
 ! D54   D(14,12,18,20)       -178.2874                                         !
 ! D55   D(14,12,18,21)        -58.4399                                         !
 ! D56   D(7,22,24,25)         -18.2202                                         !
 ! D57   D(7,22,24,26)        -137.545                                          !
 ! D58   D(7,22,24,27)         102.8742                                         !
 ! D59   D(23,22,24,25)        147.9308                                         !
 ! D60   D(23,22,24,26)         28.606                                          !
 ! D61   D(23,22,24,27)        -90.9748                                         !
 ! D62   D(22,24,26,30)        -16.2138                                         !
 ! D63   D(22,24,26,46)        166.3288                                         !
 ! D64   D(25,24,26,30)       -133.156                                          !
 ! D65   D(25,24,26,46)         49.3866                                         !
 ! D66   D(27,24,26,30)        104.43                                           !
 ! D67   D(27,24,26,46)        -73.0274                                         !
 ! D68   D(22,24,27,28)         68.5529                                         !
 ! D69   D(22,24,27,29)       -177.3868                                         !
 ! D70   D(22,24,27,31)        -54.0469                                         !
 ! D71   D(25,24,27,28)       -171.5736                                         !
 ! D72   D(25,24,27,29)        -57.5133                                         !
 ! D73   D(25,24,27,31)         65.8267                                         !
 ! D74   D(26,24,27,28)        -48.299                                          !
 ! D75   D(26,24,27,29)         65.7612                                         !
 ! D76   D(26,24,27,31)       -170.8988                                         !
 ! D77   D(24,26,46,47)          0.6923                                         !
 ! D78   D(24,26,46,48)        169.5544                                         !
 ! D79   D(30,26,46,47)       -176.648                                          !
 ! D80   D(30,26,46,48)         -7.7859                                         !
 ! D81   D(24,27,31,32)        111.9388                                         !
 ! D82   D(24,27,31,34)        -70.2028                                         !
 ! D83   D(28,27,31,32)         -9.7643                                         !
 ! D84   D(28,27,31,34)        168.0941                                         !
 ! D85   D(29,27,31,32)       -126.5439                                         !
 ! D86   D(29,27,31,34)         51.3145                                         !
 ! D87   D(27,31,32,33)          0.8278                                         !
 ! D88   D(27,31,32,38)        179.559                                          !
 ! D89   D(34,31,32,33)       -177.4139                                         !
 ! D90   D(34,31,32,38)          1.3173                                         !
 ! D91   D(27,31,34,35)       -178.2694                                         !
 ! D92   D(27,31,34,36)          0.7057                                         !
 ! D93   D(32,31,34,35)         -0.0886                                         !
 ! D94   D(32,31,34,36)        178.8864                                         !
 ! D95   D(31,32,38,35)         -2.0915                                         !
 ! D96   D(31,32,38,39)       -167.5894                                         !
 ! D97   D(33,32,38,35)        176.7704                                         !
 ! D98   D(33,32,38,39)         11.2725                                         !
 ! D99   D(31,34,35,38)         -1.1488                                         !
 ! D100  D(31,34,35,42)        178.9852                                         !
 ! D101  D(36,34,35,38)        179.6882                                         !
 ! D102  D(36,34,35,42)         -0.1779                                         !
 ! D103  D(31,34,36,37)          0.5286                                         !
 ! D104  D(31,34,36,44)       -178.6345                                         !
 ! D105  D(35,34,36,37)        179.4112                                         !
 ! D106  D(35,34,36,44)          0.2481                                         !
 ! D107  D(34,35,38,32)          1.9727                                         !
 ! D108  D(34,35,38,39)        167.4472                                         !
 ! D109  D(42,35,38,32)       -178.1752                                         !
 ! D110  D(42,35,38,39)        -12.7008                                         !
 ! D111  D(34,35,42,40)         -0.0031                                         !
 ! D112  D(34,35,42,43)       -179.2333                                         !
 ! D113  D(38,35,42,40)       -179.8358                                         !
 ! D114  D(38,35,42,43)          0.934                                          !
 ! D115  D(34,36,44,40)         -0.1466                                         !
 ! D116  D(34,36,44,45)        179.4025                                         !
 ! D117  D(37,36,44,40)       -179.3167                                         !
 ! D118  D(37,36,44,45)          0.2324                                         !
 ! D119  D(41,40,42,35)       -179.4065                                         !
 ! D120  D(41,40,42,43)         -0.1743                                         !
 ! D121  D(44,40,42,35)          0.112                                          !
 ! D122  D(44,40,42,43)        179.3442                                         !
 ! D123  D(41,40,44,36)        179.4799                                         !
 ! D124  D(41,40,44,45)         -0.071                                          !
 ! D125  D(42,40,44,36)         -0.0385                                         !
 ! D126  D(42,40,44,45)       -179.5895                                         !
 ! D127  D(26,46,48,49)        -28.5125                                         !
 ! D128  D(26,46,48,50)       -150.6254                                         !
 ! D129  D(26,46,48,51)         91.6402                                         !
 ! D130  D(47,46,48,49)        141.2344                                         !
 ! D131  D(47,46,48,50)         19.1215                                         !
 ! D132  D(47,46,48,51)        -98.6129                                         !
 ! D133  D(46,48,50,54)        -28.4679                                         !
 ! D134  D(46,48,50,57)        155.0714                                         !
 ! D135  D(49,48,50,54)       -148.3887                                         !
 ! D136  D(49,48,50,57)         35.1506                                         !
 ! D137  D(51,48,50,54)         90.2366                                         !
 ! D138  D(51,48,50,57)        -86.2241                                         !
 ! D139  D(46,48,51,52)         59.1533                                         !
 ! D140  D(46,48,51,53)        -58.0767                                         !
 ! D141  D(46,48,51,55)       -176.2813                                         !
 ! D142  D(49,48,51,52)        179.5909                                         !
 ! D143  D(49,48,51,53)         62.3609                                         !
 ! D144  D(49,48,51,55)        -55.8437                                         !
 ! D145  D(50,48,51,52)        -56.7076                                         !
 ! D146  D(50,48,51,53)       -173.9377                                         !
 ! D147  D(50,48,51,55)         67.8577                                         !
 ! D148  D(48,50,57,58)          0.3739                                         !
 ! D149  D(48,50,57,59)        156.9169                                         !
 ! D150  D(54,50,57,58)       -175.8634                                         !
 ! D151  D(54,50,57,59)        -19.3204                                         !
 ! D152  D(48,51,55,56)        -52.773                                          !
 ! D153  D(52,51,55,56)         69.571                                          !
 ! D154  D(53,51,55,56)       -171.7581                                         !
 ! D155  D(50,57,59,60)         19.4703                                         !
 ! D156  D(50,57,59,61)        -98.0068                                         !
 ! D157  D(50,57,59,62)        139.2195                                         !
 ! D158  D(58,57,59,60)        176.4744                                         !
 ! D159  D(58,57,59,61)         58.9973                                         !
 ! D160  D(58,57,59,62)        -63.7764                                         !
 ! D161  D(57,59,61,66)        -13.3254                                         !
 ! D162  D(57,59,61,67)        167.8166                                         !
 ! D163  D(60,59,61,66)       -129.0568                                         !
 ! D164  D(60,59,61,67)         52.0852                                         !
 ! D165  D(62,59,61,66)        109.883                                          !
 ! D166  D(62,59,61,67)        -68.9751                                         !
 ! D167  D(57,59,62,63)       -179.606                                          !
 ! D168  D(57,59,62,64)         60.7425                                         !
 ! D169  D(57,59,62,65)        -59.5203                                         !
 ! D170  D(60,59,62,63)        -61.9292                                         !
 ! D171  D(60,59,62,64)        178.4193                                         !
 ! D172  D(60,59,62,65)         58.1564                                         !
 ! D173  D(61,59,62,63)         58.6939                                         !
 ! D174  D(61,59,62,64)        -60.9575                                         !
 ! D175  D(61,59,62,65)        178.7796                                         !
 ! D176  D(59,61,67,68)          5.6325                                         !
 ! D177  D(59,61,67,69)        158.93                                           !
 ! D178  D(66,61,67,68)       -173.0883                                         !
 ! D179  D(66,61,67,69)        -19.7908                                         !
 ! D180  D(61,67,69,70)        -39.5055                                         !
 ! D181  D(61,67,69,71)       -154.777                                          !
 ! D182  D(61,67,69,72)         82.4249                                         !
 ! D183  D(68,67,69,70)        117.5051                                         !
 ! D184  D(68,67,69,71)          2.2335                                         !
 ! D185  D(68,67,69,72)       -120.5646                                         !
 ! D186  D(67,69,71,75)       -177.6479                                         !
 ! D187  D(67,69,71,89)          1.841                                          !
 ! D188  D(70,69,71,75)         67.0435                                         !
 ! D189  D(70,69,71,89)       -113.4675                                         !
 ! D190  D(72,69,71,75)        -52.5887                                         !
 ! D191  D(72,69,71,89)        126.9003                                         !
 ! D192  D(67,69,72,73)         65.9516                                         !
 ! D193  D(67,69,72,74)       -177.2186                                         !
 ! D194  D(67,69,72,76)        -55.187                                          !
 ! D195  D(70,69,72,73)       -172.0132                                         !
 ! D196  D(70,69,72,74)        -55.1834                                         !
 ! D197  D(70,69,72,76)         66.8482                                         !
 ! D198  D(71,69,72,73)        -52.2967                                         !
 ! D199  D(71,69,72,74)         64.5331                                         !
 ! D200  D(71,69,72,76)       -173.4353                                         !
 ! D201  D(69,72,76,77)        -46.5799                                         !
 ! D202  D(69,72,76,78)         64.9914                                         !
 ! D203  D(69,72,76,79)       -171.0617                                         !
 ! D204  D(73,72,76,77)       -167.1061                                         !
 ! D205  D(73,72,76,78)        -55.5348                                         !
 ! D206  D(73,72,76,79)         68.4121                                         !
 ! D207  D(74,72,76,77)         70.7181                                         !
 ! D208  D(74,72,76,78)       -177.7106                                         !
 ! D209  D(74,72,76,79)        -53.7637                                         !
 ! D210  D(72,76,79,80)         75.0469                                         !
 ! D211  D(72,76,79,81)        -45.8042                                         !
 ! D212  D(72,76,79,82)       -163.1862                                         !
 ! D213  D(77,76,79,80)        -48.5915                                         !
 ! D214  D(77,76,79,81)       -169.4427                                         !
 ! D215  D(77,76,79,82)         73.1753                                         !
 ! D216  D(78,76,79,80)       -161.6447                                         !
 ! D217  D(78,76,79,81)         77.5042                                         !
 ! D218  D(78,76,79,82)        -39.8778                                         !
 ! D219  D(76,79,82,83)         75.974                                          !
 ! D220  D(76,79,82,84)       -161.6829                                         !
 ! D221  D(76,79,82,85)        -39.9761                                         !
 ! D222  D(80,79,82,83)       -161.6586                                         !
 ! D223  D(80,79,82,84)        -39.3155                                         !
 ! D224  D(80,79,82,85)         82.3913                                         !
 ! D225  D(81,79,82,83)        -45.1825                                         !
 ! D226  D(81,79,82,84)         77.1606                                         !
 ! D227  D(81,79,82,85)       -161.1326                                         !
 ! D228  D(79,82,85,86)        159.3304                                         !
 ! D229  D(79,82,85,87)        -76.6012                                         !
 ! D230  D(79,82,85,88)         43.9879                                         !
 ! D231  D(83,82,85,86)         40.1767                                         !
 ! D232  D(83,82,85,87)        164.2451                                         !
 ! D233  D(83,82,85,88)        -75.1658                                         !
 ! D234  D(84,82,85,86)        -75.0552                                         !
 ! D235  D(84,82,85,87)         49.0131                                         !
 ! D236  D(84,82,85,88)        169.6022                                         !
 --------------------------------------------------------------------------------
 Symmetry turned off by external request.
 Stoichiometry    C29H46N7O7(1+)
 Framework group  C1[X(C29H46N7O7)]
 Deg. of freedom   261
 Full point group                 C1      NOp   1
                          Input orientation:                          
 ---------------------------------------------------------------------
 Center     Atomic      Atomic             Coordinates (Angstroms)
 Number     Number       Type             X           Y           Z
 ---------------------------------------------------------------------
      1          7           0       -5.584060   -0.144843    3.202155
      2          1           0       -6.233379    0.639346    3.315304
      3          1           0       -5.702952   -0.536219    2.218273
      4          1           0       -5.786868   -0.848422    3.917610
      5          6           0       -4.126817    0.286247    3.180803
      6          1           0       -4.056886    1.262442    3.663446
      7          6           0       -3.853065    0.374687    1.652821
      8          6           0       -3.276535   -0.772014    3.909088
      9          1           0       -3.701021   -0.908360    4.915157
     10          1           0       -3.388293   -1.725720    3.375649
     11          8           0       -4.631091   -0.239799    0.908801
     12          6           0       -1.773261   -0.444444    4.064879
     13          1           0       -1.333900   -0.323380    3.066541
     14          6           0       -1.533385    0.846670    4.863542
     15          1           0       -1.971722    0.779353    5.867370
     16          1           0       -1.947249    1.739745    4.377403
     17          1           0       -0.460245    1.023799    4.981931
     18          6           0       -1.072986   -1.636435    4.736474
     19          1           0       -1.459743   -1.805910    5.749040
     20          1           0       -1.209158   -2.560137    4.162717
     21          1           0        0.002119   -1.449358    4.818988
     22          7           0       -2.810975    1.101917    1.262763
     23          1           0       -2.117842    1.433071    1.931240
     24          6           0       -2.378066    1.233176   -0.124817
     25          1           0       -2.820941    0.412676   -0.694856
     26          6           0       -0.839855    1.130417   -0.088343
     27          6           0       -2.809069    2.603037   -0.736386
     28          1           0       -2.229811    3.390554   -0.238672
     29          1           0       -2.489715    2.602716   -1.786851
     30          8           0       -0.234780    1.270086    0.978546
     31          6           0       -4.271077    2.915208   -0.632068
     32          6           0       -4.820788    3.906252    0.144816
     33          1           0       -4.331110    4.624907    0.789063
     34          6           0       -5.368327    2.289704   -1.335587
     35          6           0       -6.555982    2.956390   -0.930898
     36          6           0       -5.464870    1.249196   -2.276743
     37          1           0       -4.577595    0.721991   -2.617929
     38          7           0       -6.193625    3.920989   -0.005394
     39          1           0       -6.797095    4.662518    0.317800
     40          6           0       -7.876337    1.588764   -2.367441
     41          1           0       -8.836987    1.306549   -2.788173
     42          6           0       -7.815755    2.618680   -1.436297
     43          1           0       -8.711982    3.148194   -1.124049
     44          6           0       -6.712313    0.910350   -2.783337
     45          1           0       -6.795777    0.114749   -3.517829
     46          7           0       -0.241302    0.939135   -1.278407
     47          1           0       -0.770491    0.877588   -2.146063
     48          6           0        1.194462    1.033247   -1.490334
     49          1           0        1.626652    1.731283   -0.767056
     50          6           0        1.376266    1.490636   -2.948140
     51          6           0        1.859926   -0.359453   -1.312667
     52          1           0        1.406425   -1.046747   -2.043213
     53          1           0        1.630489   -0.720446   -0.306649
     54          8           0        0.520064    1.197250   -3.781153
     55          8           0        3.275897   -0.325569   -1.423465
     56          1           0        3.552628    0.117763   -2.266317
     57          7           0        2.533247    2.136924   -3.223377
     58          1           0        3.192039    2.268067   -2.465156
     59          6           0        3.097812    2.204720   -4.569179
     60          1           0        2.279292    1.982005   -5.257630
     61          6           0        4.192731    1.114625   -4.713123
     62          6           0        3.669513    3.597843   -4.872815
     63          1           0        4.079719    3.626854   -5.886545
     64          1           0        4.475070    3.852347   -4.173628
     65          1           0        2.883089    4.353410   -4.788918
     66          8           0        4.612131    0.544314   -3.654622
     67          7           0        4.590187    0.916145   -5.953048
     68          1           0        4.241650    1.532245   -6.753007
     69          6           0        5.801977    0.332136   -6.568252
     70          1           0        6.677561    0.650766   -5.987833
     71          6           0        5.865497    1.023178   -8.001216
     72          6           0        5.818021   -1.205823   -6.668424
     73          1           0        5.040991   -1.556830   -7.357699
     74          1           0        6.786216   -1.486443   -7.092394
     75          8           0        6.792135    0.642686   -8.720072
     76          6           0        5.586305   -1.719816   -5.252630
     77          1           0        6.265634   -1.126137   -4.629360
     78          1           0        4.572250   -1.391243   -5.001411
     79          6           0        5.698667   -3.167233   -4.765889
     80          1           0        6.742696   -3.488528   -4.670360
     81          1           0        5.203374   -3.881167   -5.434105
     82          6           0        4.970071   -3.238755   -3.406602
     83          1           0        3.888124   -3.237211   -3.560704
     84          1           0        5.235393   -4.111153   -2.804761
     85          7           0        5.241814   -2.004585   -2.552318
     86          1           0        4.533976   -1.849423   -1.811686
     87          1           0        6.172119   -2.031762   -2.125656
     88          1           0        5.177437   -1.122349   -3.122576
     89          8           0        4.933265    1.864824   -8.191301
 ---------------------------------------------------------------------
 Rotational constants (GHZ):           0.1109511           0.0286817           0.0248549
 Standard basis: 6-31G(d) (6D, 7F)
   737 basis functions,  1388 primitive gaussians,   737 cartesian basis functions
   162 alpha electrons      162 beta electrons
       nuclear repulsion energy      5229.0018556043 Hartrees.
 NAtoms=   89 NActive=   89 NUniq=   89 SFac= 1.00D+00 NAtFMM=   60 NAOKFM=T Big=T
 Integral buffers will be    131072 words long.
 Raffenetti 2 integral format.
 Two-electron integral symmetry is turned off.
 One-electron integrals computed using PRISM.
 NBasis=   737 RedAO= T EigKep=  3.72D-04  NBF=   737
 NBsUse=   737 1.00D-06 EigRej= -1.00D+00 NBFU=   737
 Initial guess from the checkpoint file:  "conf-428.chk"
 B after Tr=     0.000000    0.000000    0.000000
         Rot=    1.000000    0.000000    0.000000    0.000000 Ang=   0.00 deg.
 Requested convergence on RMS density matrix=1.00D-08 within 128 cycles.
 Requested convergence on MAX density matrix=1.00D-06.
 Requested convergence on             energy=1.00D-06.
 No special actions if energy rises.
 SCF Done:  E(RB3LYP) =  -2042.43373756     A.U. after    2 cycles
            NFock=  2  Conv=0.80D-08     -V/T= 2.0094

 **********************************************************************

            Population analysis using the SCF Density.

 **********************************************************************

 Alpha  occ. eigenvalues --  -19.27265 -19.24823 -19.23093 -19.21200 -19.20480
 Alpha  occ. eigenvalues --  -19.09121 -19.07501 -14.60661 -14.54592 -14.50165
 Alpha  occ. eigenvalues --  -14.46939 -14.46539 -14.45238 -14.40425 -10.44141
 Alpha  occ. eigenvalues --  -10.41370 -10.40196 -10.38317 -10.36069 -10.35517
 Alpha  occ. eigenvalues --  -10.35314 -10.34262 -10.33798 -10.33530 -10.31852
 Alpha  occ. eigenvalues --  -10.30838 -10.30781 -10.30175 -10.30078 -10.29199
 Alpha  occ. eigenvalues --  -10.28613 -10.28404 -10.27334 -10.26734 -10.26683
 Alpha  occ. eigenvalues --  -10.26670 -10.26502 -10.26116 -10.25694 -10.25616
 Alpha  occ. eigenvalues --  -10.25061 -10.24632 -10.23109  -1.19869  -1.15130
 Alpha  occ. eigenvalues --   -1.14330  -1.13317  -1.11851  -1.10134  -1.09222
 Alpha  occ. eigenvalues --   -1.06827  -1.06330  -1.03367  -1.02170  -1.01512
 Alpha  occ. eigenvalues --   -0.97262  -0.95540  -0.93307  -0.91919  -0.91054
 Alpha  occ. eigenvalues --   -0.89213  -0.88915  -0.87394  -0.85385  -0.84055
 Alpha  occ. eigenvalues --   -0.82333  -0.81503  -0.81248  -0.80250  -0.79481
 Alpha  occ. eigenvalues --   -0.77048  -0.76986  -0.75745  -0.74490  -0.73810
 Alpha  occ. eigenvalues --   -0.72928  -0.72112  -0.70916  -0.70263  -0.69681
 Alpha  occ. eigenvalues --   -0.69043  -0.68703  -0.67677  -0.67487  -0.67360
 Alpha  occ. eigenvalues --   -0.66863  -0.64546  -0.64200  -0.63807  -0.62917
 Alpha  occ. eigenvalues --   -0.62388  -0.62027  -0.60598  -0.60543  -0.59963
 Alpha  occ. eigenvalues --   -0.59132  -0.58768  -0.57612  -0.57489  -0.56904
 Alpha  occ. eigenvalues --   -0.56657  -0.56429  -0.55747  -0.55412  -0.54940
 Alpha  occ. eigenvalues --   -0.54724  -0.54419  -0.53446  -0.53113  -0.52757
 Alpha  occ. eigenvalues --   -0.52358  -0.51706  -0.51494  -0.51239  -0.51167
 Alpha  occ. eigenvalues --   -0.50817  -0.50563  -0.50517  -0.50022  -0.49948
 Alpha  occ. eigenvalues --   -0.49758  -0.49208  -0.49011  -0.48755  -0.48512
 Alpha  occ. eigenvalues --   -0.48015  -0.47626  -0.46822  -0.46159  -0.45950
 Alpha  occ. eigenvalues --   -0.45657  -0.45151  -0.45034  -0.44920  -0.44598
 Alpha  occ. eigenvalues --   -0.44377  -0.43632  -0.43188  -0.43137  -0.42529
 Alpha  occ. eigenvalues --   -0.41940  -0.41490  -0.41186  -0.40491  -0.39857
 Alpha  occ. eigenvalues --   -0.39421  -0.38787  -0.38622  -0.37943  -0.37340
 Alpha  occ. eigenvalues --   -0.36395  -0.36237  -0.35381  -0.35080  -0.34891
 Alpha  occ. eigenvalues --   -0.33875  -0.32041  -0.30348  -0.28784  -0.24284
 Alpha  occ. eigenvalues --   -0.23821  -0.21732
 Alpha virt. eigenvalues --   -0.12995  -0.11569  -0.09460  -0.08692  -0.07508
 Alpha virt. eigenvalues --   -0.07085  -0.06318  -0.05821  -0.05323  -0.05270
 Alpha virt. eigenvalues --   -0.03257  -0.02355  -0.01566  -0.01220  -0.01029
 Alpha virt. eigenvalues --   -0.00884  -0.00158   0.00090   0.00351   0.00908
 Alpha virt. eigenvalues --    0.00944   0.02403   0.02881   0.03196   0.03569
 Alpha virt. eigenvalues --    0.03694   0.03898   0.04020   0.04461   0.04534
 Alpha virt. eigenvalues --    0.04730   0.05216   0.05624   0.05956   0.06059
 Alpha virt. eigenvalues --    0.06177   0.06659   0.06737   0.07077   0.07778
 Alpha virt. eigenvalues --    0.08022   0.08067   0.08230   0.08683   0.08967
 Alpha virt. eigenvalues --    0.09272   0.09495   0.09900   0.10046   0.10262
 Alpha virt. eigenvalues --    0.10481   0.10534   0.10778   0.10857   0.11282
 Alpha virt. eigenvalues --    0.11453   0.11676   0.12049   0.12576   0.12837
 Alpha virt. eigenvalues --    0.13059   0.13287   0.13394   0.14007   0.14530
 Alpha virt. eigenvalues --    0.14636   0.14809   0.15154   0.15623   0.15756
 Alpha virt. eigenvalues --    0.16112   0.16951   0.17135   0.17625   0.18196
 Alpha virt. eigenvalues --    0.19137   0.20137   0.20634   0.21037   0.22032
 Alpha virt. eigenvalues --    0.23508   0.23891   0.24545   0.25304   0.25502
 Alpha virt. eigenvalues --    0.26196   0.27053   0.27164   0.28139   0.29957
 Alpha virt. eigenvalues --    0.30837   0.32009   0.32701   0.34810   0.35226
 Alpha virt. eigenvalues --    0.35475   0.36484   0.37163   0.38284   0.39123
 Alpha virt. eigenvalues --    0.39876   0.40350   0.40544   0.40836   0.41561
 Alpha virt. eigenvalues --    0.41994   0.42355   0.42929   0.43372   0.43701
 Alpha virt. eigenvalues --    0.43925   0.44264   0.44659   0.44696   0.45525
 Alpha virt. eigenvalues --    0.45922   0.46162   0.46606   0.46788   0.47361
 Alpha virt. eigenvalues --    0.47617   0.47884   0.48528   0.48546   0.48938
 Alpha virt. eigenvalues --    0.49393   0.49402   0.49792   0.50241   0.50362
 Alpha virt. eigenvalues --    0.51026   0.51054   0.51609   0.52097   0.52290
 Alpha virt. eigenvalues --    0.52613   0.52995   0.53902   0.54069   0.54082
 Alpha virt. eigenvalues --    0.54727   0.54816   0.55009   0.55274   0.55509
 Alpha virt. eigenvalues --    0.56368   0.56712   0.57113   0.57765   0.58087
 Alpha virt. eigenvalues --    0.58269   0.58812   0.59616   0.60074   0.60273
 Alpha virt. eigenvalues --    0.60416   0.60541   0.60916   0.61272   0.61439
 Alpha virt. eigenvalues --    0.61983   0.62855   0.63509   0.63561   0.64266
 Alpha virt. eigenvalues --    0.64842   0.65022   0.65721   0.65909   0.67415
 Alpha virt. eigenvalues --    0.67757   0.68415   0.68954   0.69836   0.70081
 Alpha virt. eigenvalues --    0.70748   0.70818   0.71349   0.71778   0.72038
 Alpha virt. eigenvalues --    0.72213   0.72499   0.72660   0.73268   0.73359
 Alpha virt. eigenvalues --    0.73725   0.73825   0.74351   0.74546   0.74792
 Alpha virt. eigenvalues --    0.75215   0.75312   0.75692   0.75980   0.76348
 Alpha virt. eigenvalues --    0.76973   0.77246   0.77450   0.77652   0.77798
 Alpha virt. eigenvalues --    0.78494   0.78574   0.78725   0.79088   0.79191
 Alpha virt. eigenvalues --    0.79478   0.80025   0.80134   0.80277   0.80527
 Alpha virt. eigenvalues --    0.80738   0.81411   0.81542   0.81761   0.82195
 Alpha virt. eigenvalues --    0.82514   0.82699   0.82952   0.83134   0.83668
 Alpha virt. eigenvalues --    0.83928   0.84147   0.84371   0.85078   0.85357
 Alpha virt. eigenvalues --    0.85454   0.86027   0.86536   0.86688   0.87034
 Alpha virt. eigenvalues --    0.87344   0.87783   0.88143   0.88907   0.89187
 Alpha virt. eigenvalues --    0.89541   0.90093   0.90980   0.91228   0.91505
 Alpha virt. eigenvalues --    0.91613   0.92276   0.92871   0.93765   0.94407
 Alpha virt. eigenvalues --    0.95001   0.95373   0.96130   0.96538   0.97383
 Alpha virt. eigenvalues --    0.98173   0.98383   0.99358   0.99691   1.00827
 Alpha virt. eigenvalues --    1.01280   1.02285   1.02512   1.03986   1.04646
 Alpha virt. eigenvalues --    1.05064   1.05678   1.06097   1.06489   1.08049
 Alpha virt. eigenvalues --    1.08654   1.09974   1.10696   1.10860   1.11422
 Alpha virt. eigenvalues --    1.12446   1.13555   1.13942   1.14974   1.15663
 Alpha virt. eigenvalues --    1.16103   1.16408   1.18068   1.18598   1.19115
 Alpha virt. eigenvalues --    1.21191   1.21375   1.22175   1.22463   1.22842
 Alpha virt. eigenvalues --    1.23906   1.25183   1.25813   1.26431   1.26975
 Alpha virt. eigenvalues --    1.28225   1.28567   1.29495   1.30159   1.30895
 Alpha virt. eigenvalues --    1.32126   1.32694   1.33268   1.33532   1.34296
 Alpha virt. eigenvalues --    1.34523   1.34718   1.36003   1.36373   1.37121
 Alpha virt. eigenvalues --    1.37614   1.38310   1.39732   1.40571   1.41252
 Alpha virt. eigenvalues --    1.41770   1.42017   1.42783   1.43521   1.44135
 Alpha virt. eigenvalues --    1.45212   1.45558   1.46553   1.46778   1.48217
 Alpha virt. eigenvalues --    1.48999   1.49506   1.50021   1.50644   1.52855
 Alpha virt. eigenvalues --    1.53145   1.53376   1.54225   1.55240   1.56089
 Alpha virt. eigenvalues --    1.56566   1.56834   1.57199   1.57983   1.59048
 Alpha virt. eigenvalues --    1.59860   1.60523   1.61732   1.62002   1.62486
 Alpha virt. eigenvalues --    1.63108   1.64693   1.64927   1.65497   1.66386
 Alpha virt. eigenvalues --    1.66847   1.67165   1.67583   1.68484   1.68834
 Alpha virt. eigenvalues --    1.69749   1.70333   1.70609   1.71674   1.71692
 Alpha virt. eigenvalues --    1.72597   1.72803   1.73591   1.73714   1.74304
 Alpha virt. eigenvalues --    1.74826   1.75462   1.75704   1.76370   1.77075
 Alpha virt. eigenvalues --    1.77388   1.78778   1.79924   1.80121   1.80704
 Alpha virt. eigenvalues --    1.81225   1.81363   1.81935   1.82052   1.82529
 Alpha virt. eigenvalues --    1.82940   1.83312   1.83340   1.84281   1.84465
 Alpha virt. eigenvalues --    1.85177   1.85556   1.85874   1.86070   1.86416
 Alpha virt. eigenvalues --    1.86848   1.88017   1.88455   1.88866   1.89197
 Alpha virt. eigenvalues --    1.89265   1.90447   1.90798   1.91592   1.92092
 Alpha virt. eigenvalues --    1.92221   1.92307   1.92766   1.92961   1.93756
 Alpha virt. eigenvalues --    1.94971   1.95196   1.95606   1.96517   1.96674
 Alpha virt. eigenvalues --    1.97145   1.98301   1.98689   1.98858   1.99085
 Alpha virt. eigenvalues --    1.99921   2.00229   2.00645   2.01871   2.02094
 Alpha virt. eigenvalues --    2.02445   2.04069   2.04341   2.04772   2.05580
 Alpha virt. eigenvalues --    2.06062   2.06796   2.07116   2.07341   2.08881
 Alpha virt. eigenvalues --    2.09902   2.09992   2.10403   2.11740   2.12333
 Alpha virt. eigenvalues --    2.12735   2.13138   2.13888   2.14572   2.14943
 Alpha virt. eigenvalues --    2.15793   2.16310   2.16600   2.17194   2.17842
 Alpha virt. eigenvalues --    2.18094   2.18949   2.19378   2.20330   2.21287
 Alpha virt. eigenvalues --    2.22024   2.22174   2.23108   2.23989   2.24712
 Alpha virt. eigenvalues --    2.24763   2.25857   2.27007   2.27709   2.28579
 Alpha virt. eigenvalues --    2.29253   2.30231   2.30902   2.31940   2.32366
 Alpha virt. eigenvalues --    2.32848   2.33259   2.34270   2.35378   2.37184
 Alpha virt. eigenvalues --    2.37640   2.38196   2.38767   2.38957   2.39725
 Alpha virt. eigenvalues --    2.40406   2.42055   2.42997   2.44395   2.44702
 Alpha virt. eigenvalues --    2.44974   2.46881   2.47354   2.48052   2.48468
 Alpha virt. eigenvalues --    2.49099   2.49629   2.51054   2.51515   2.52342
 Alpha virt. eigenvalues --    2.52966   2.54337   2.55583   2.56779   2.57978
 Alpha virt. eigenvalues --    2.58595   2.59322   2.60719   2.61536   2.62154
 Alpha virt. eigenvalues --    2.63169   2.64334   2.65267   2.66326   2.67091
 Alpha virt. eigenvalues --    2.68165   2.70220   2.71103   2.72320   2.73276
 Alpha virt. eigenvalues --    2.74394   2.75630   2.77881   2.78125   2.79054
 Alpha virt. eigenvalues --    2.79615   2.80298   2.81142   2.83438   2.83961
 Alpha virt. eigenvalues --    2.86051   2.87091   2.89106   2.90077   2.91284
 Alpha virt. eigenvalues --    2.92016   2.94071   2.95339   3.01380   3.03199
 Alpha virt. eigenvalues --    3.03707   3.06584   3.10142   3.10710   3.16513
 Alpha virt. eigenvalues --    3.20693   3.36338   3.63083   3.75693   3.84380
 Alpha virt. eigenvalues --    3.90841   3.93033   3.93199   3.96728   3.97917
 Alpha virt. eigenvalues --    4.00043   4.00695   4.01881   4.02908   4.03708
 Alpha virt. eigenvalues --    4.05635   4.07726   4.09191   4.11008   4.12929
 Alpha virt. eigenvalues --    4.14578   4.15869   4.17690   4.19742   4.20170
 Alpha virt. eigenvalues --    4.22670   4.25889   4.27441   4.30661   4.31818
 Alpha virt. eigenvalues --    4.32420   4.32814   4.34533   4.35666   4.39885
 Alpha virt. eigenvalues --    4.42876   4.43459   4.48169   4.49003   4.49969
 Alpha virt. eigenvalues --    4.53679   4.56572   4.58261   4.63558   4.71927
          Condensed to atoms (all electrons):
 Mulliken charges:
               1
     1  N   -0.755048
     2  H    0.417774
     3  H    0.436315
     4  H    0.411563
     5  C   -0.118051
     6  H    0.212102
     7  C    0.656230
     8  C   -0.285243
     9  H    0.161035
    10  H    0.175035
    11  O   -0.531109
    12  C   -0.108171
    13  H    0.164938
    14  C   -0.460660
    15  H    0.157947
    16  H    0.133796
    17  H    0.187526
    18  C   -0.451661
    19  H    0.156889
    20  H    0.156218
    21  H    0.174068
    22  N   -0.589151
    23  H    0.375313
    24  C   -0.087860
    25  H    0.203308
    26  C    0.636916
    27  C   -0.368744
    28  H    0.162428
    29  H    0.180755
    30  O   -0.545763
    31  C    0.078138
    32  C   -0.022553
    33  H    0.154862
    34  C    0.096300
    35  C    0.294131
    36  C   -0.200006
    37  H    0.119764
    38  N   -0.688302
    39  H    0.338525
    40  C   -0.150643
    41  H    0.143716
    42  C   -0.167576
    43  H    0.136097
    44  C   -0.139235
    45  H    0.139664
    46  N   -0.615911
    47  H    0.366284
    48  C   -0.073979
    49  H    0.187822
    50  C    0.588893
    51  C   -0.025368
    52  H    0.142510
    53  H    0.171482
    54  O   -0.523331
    55  O   -0.694172
    56  H    0.437891
    57  N   -0.578630
    58  H    0.338147
    59  C   -0.087922
    60  H    0.214322
    61  C    0.625682
    62  C   -0.463734
    63  H    0.214989
    64  H    0.152490
    65  H    0.170107
    66  O   -0.634570
    67  N   -0.596188
    68  H    0.390947
    69  C   -0.092971
    70  H    0.153799
    71  C    0.605791
    72  C   -0.260154
    73  H    0.153769
    74  H    0.181352
    75  O   -0.560558
    76  C   -0.295933
    77  H    0.134314
    78  H    0.145276
    79  C   -0.268627
    80  H    0.167356
    81  H    0.182629
    82  C   -0.191834
    83  H    0.202371
    84  H    0.194540
    85  N   -0.791710
    86  H    0.414640
    87  H    0.395006
    88  H    0.449208
    89  O   -0.617602
 Sum of Mulliken charges =   1.00000
 Mulliken charges with hydrogens summed into heavy atoms:
               1
     1  N    0.510604
     5  C    0.094050
     7  C    0.656230
     8  C    0.050827
    11  O   -0.531109
    12  C    0.056767
    14  C    0.018609
    18  C    0.035514
    22  N   -0.213838
    24  C    0.115448
    26  C    0.636916
    27  C   -0.025560
    30  O   -0.545763
    31  C    0.078138
    32  C    0.132309
    34  C    0.096300
    35  C    0.294131
    36  C   -0.080242
    38  N   -0.349778
    40  C   -0.006927
    42  C   -0.031478
    44  C    0.000429
    46  N   -0.249627
    48  C    0.113843
    50  C    0.588893
    51  C    0.288625
    54  O   -0.523331
    55  O   -0.256281
    57  N   -0.240482
    59  C    0.126400
    61  C    0.625682
    62  C    0.073852
    66  O   -0.634570
    67  N   -0.205241
    69  C    0.060827
    71  C    0.605791
    72  C    0.074966
    75  O   -0.560558
    76  C   -0.016343
    79  C    0.081357
    82  C    0.205077
    85  N    0.467143
    89  O   -0.617602
 Electronic spatial extent (au):  <R**2>=          45958.8012
 Charge=              1.0000 electrons
 Dipole moment (field-independent basis, Debye):
    X=            -18.7405    Y=             -4.9246    Z=             24.5561  Tot=             31.2803
 Quadrupole moment (field-independent basis, Debye-Ang):
   XX=           -131.4461   YY=           -207.7993   ZZ=           -356.3038
   XY=            -68.4921   XZ=             10.6786   YZ=             44.7062
 Traceless Quadrupole moment (field-independent basis, Debye-Ang):
   XX=            100.4037   YY=             24.0504   ZZ=           -124.4540
   XY=            -68.4921   XZ=             10.6786   YZ=             44.7062
 Octapole moment (field-independent basis, Debye-Ang**2):
  XXX=           -809.4004  YYY=           -519.6773  ZZZ=           3113.3275  XYY=              8.1418
  XXY=           -309.2457  XXZ=           1325.7667  XZZ=          -1202.2308  YZZ=           -516.8583
  YYZ=            424.5075  XYZ=            213.4479
 Hexadecapole moment (field-independent basis, Debye-Ang**3):
 XXXX=         -25977.7507 YYYY=          -4955.5705 ZZZZ=         -37633.3570 XXXY=           -384.1580
 XXXZ=           9714.0097 YYYX=           1666.7399 YYYZ=           1415.4850 ZZZX=          16695.5042
 ZZZY=           3583.2173 XXYY=          -4630.9835 XXZZ=         -14164.5976 YYZZ=          -4880.2126
 XXYZ=           1915.0109 YYXZ=           2123.0780 ZZXY=           -728.5922
 N-N= 5.229001855604D+03 E-N=-1.518497718549D+04  KE= 2.023398992894D+03
 Unable to Open any file for archive entry.
 1\1\GINC-AMR-134\SP\RB3LYP\6-31G(d)\C29H46N7O7(1+)\KENGMITH\28-Jun-202
 2\0\\# B3LYP/6-31G* guess=read geom=check nosymm integral(ultrafinegri
 d)\\Candidate Structure: Conf:428 Charge calc in gas phase\\1,1\N,0,-5
 .5840602771,-0.1448434009,3.20215532\H,0,-6.2333790042,0.6393461961,3.
 3153041759\H,0,-5.7029524708,-0.5362188107,2.2182727614\H,0,-5.7868681
 974,-0.8484216004,3.9176095767\C,0,-4.126816942,0.2862473563,3.1808028
 743\H,0,-4.056886083,1.2624421316,3.6634457606\C,0,-3.8530651659,0.374
 6867972,1.6528214367\C,0,-3.2765345153,-0.7720139177,3.9090875235\H,0,
 -3.7010211481,-0.9083600218,4.9151568542\H,0,-3.3882933173,-1.72572002
 03,3.3756488345\O,0,-4.6310912555,-0.2397992156,0.9088007647\C,0,-1.77
 32608709,-0.4444439398,4.0648791469\H,0,-1.3338995684,-0.3233803726,3.
 0665411294\C,0,-1.5333846618,0.8466700436,4.8635422707\H,0,-1.97172246
 16,0.7793531286,5.8673703806\H,0,-1.9472488536,1.7397449939,4.37740326
 44\H,0,-0.4602445575,1.0237994751,4.9819307526\C,0,-1.072985847,-1.636
 4350848,4.7364737149\H,0,-1.4597428799,-1.8059101335,5.7490402126\H,0,
 -1.2091582188,-2.5601374586,4.1627169668\H,0,0.0021186171,-1.449358232
 9,4.8189876653\N,0,-2.8109750866,1.1019171469,1.2627628933\H,0,-2.1178
 417217,1.4330708833,1.9312396437\C,0,-2.3780662923,1.2331758138,-0.124
 8168019\H,0,-2.820941081,0.4126757794,-0.6948563628\C,0,-0.8398554835,
 1.1304174846,-0.0883430224\C,0,-2.809069386,2.6030373248,-0.7363856528
 \H,0,-2.2298110401,3.3905538716,-0.2386717304\H,0,-2.4897148069,2.6027
 155369,-1.7868514938\O,0,-0.2347799393,1.2700861211,0.9785457927\C,0,-
 4.2710767109,2.9152077678,-0.6320675023\C,0,-4.820788455,3.9062519101,
 0.1448157756\H,0,-4.3311097154,4.6249074458,0.7890632096\C,0,-5.368326
 8942,2.2897035917,-1.335586635\C,0,-6.5559824901,2.9563901984,-0.93089
 78963\C,0,-5.4648703219,1.2491958229,-2.2767430911\H,0,-4.5775954403,0
 .7219910816,-2.6179290847\N,0,-6.193624711,3.9209887085,-0.005393636\H
 ,0,-6.7970951598,4.6625183507,0.317799593\C,0,-7.8763369755,1.58876351
 36,-2.3674414796\H,0,-8.8369874031,1.306548838,-2.7881731718\C,0,-7.81
 57550112,2.6186803173,-1.4362965346\H,0,-8.7119820315,3.1481939944,-1.
 1240491504\C,0,-6.712312622,0.9103495998,-2.7833370746\H,0,-6.79577711
 38,0.1147485975,-3.5178286045\N,0,-0.2413016687,0.9391352109,-1.278407
 3539\H,0,-0.7704912675,0.8775876893,-2.1460634714\C,0,1.1944618212,1.0
 332468134,-1.4903335097\H,0,1.6266516056,1.731283444,-0.7670556637\C,0
 ,1.3762656417,1.4906360556,-2.9481401617\C,0,1.859926188,-0.3594526364
 ,-1.3126674926\H,0,1.4064251739,-1.0467469791,-2.0432128807\H,0,1.6304
 887021,-0.7204463349,-0.3066485749\O,0,0.5200637668,1.1972498649,-3.78
 11529594\O,0,3.2758972793,-0.3255689037,-1.4234654745\H,0,3.5526283851
 ,0.1177633567,-2.2663166673\N,0,2.5332474832,2.1369239265,-3.223376804
 1\H,0,3.1920388327,2.2680670399,-2.4651559881\C,0,3.0978121689,2.20472
 0429,-4.5691785355\H,0,2.2792924689,1.9820047646,-5.2576296329\C,0,4.1
 92730519,1.1146249151,-4.7131226038\C,0,3.66951276,3.5978429742,-4.872
 8153319\H,0,4.0797189173,3.6268541229,-5.8865453169\H,0,4.4750697241,3
 .8523470913,-4.1736279586\H,0,2.8830888618,4.3534101087,-4.7889184243\
 O,0,4.612131206,0.5443138317,-3.654621863\N,0,4.590187425,0.916145314,
 -5.9530484316\H,0,4.2416497112,1.5322452084,-6.7530065878\C,0,5.801977
 3259,0.3321364286,-6.56825175\H,0,6.6775614266,0.6507659137,-5.9878327
 177\C,0,5.8654974864,1.023177662,-8.0012155463\C,0,5.8180209723,-1.205
 8225066,-6.6684242632\H,0,5.0409906491,-1.5568301081,-7.357699475\H,0,
 6.7862164513,-1.4864427178,-7.0923941643\O,0,6.7921349498,0.6426860906
 ,-8.7200722515\C,0,5.5863052941,-1.7198157725,-5.2526303019\H,0,6.2656
 336709,-1.1261373232,-4.6293599887\H,0,4.5722503882,-1.3912429327,-5.0
 014112232\C,0,5.6986667265,-3.1672325095,-4.7658886562\H,0,6.742696447
 2,-3.4885283885,-4.67036023\H,0,5.2033741098,-3.8811671271,-5.43410547
 41\C,0,4.9700712112,-3.2387552501,-3.4066016932\H,0,3.8881242197,-3.23
 72109009,-3.5607044711\H,0,5.2353931128,-4.1111528023,-2.8047612251\N,
 0,5.2418144157,-2.0045851681,-2.5523179597\H,0,4.5339756014,-1.8494225
 314,-1.8116861228\H,0,6.1721186679,-2.0317622526,-2.125655888\H,0,5.17
 74374233,-1.1223488979,-3.1225762932\O,0,4.9332647065,1.8648242438,-8.
 191300536\\Version=ES64L-G16RevC.01\HF=-2042.4337376\RMSD=7.994e-09\Di
 pole=-7.2818832,-3.3231183,12.9464673\Quadrupole=74.6476585,17.8808727
 ,-92.5285312,-50.9221753,7.9392944,33.2379596\PG=C01 [X(C29H46N7O7)]\\
 @
 The archive entry for this job was punched.


 WE DON'T KNOW ONE MILLIONTH OF ONE PERCENT ABOUT
 ANYTHING.
                                     T. A. EDISON.
 Job cpu time:       0 days  0 hours  2 minutes 41.5 seconds.
 Elapsed time:       0 days  0 hours  0 minutes 41.0 seconds.
 File lengths (MBytes):  RWF=    400 Int=      0 D2E=      0 Chk=     64 Scr=     16
 Normal termination of Gaussian 16 at Tue Jun 28 00:56:45 2022.
