 Entering Gaussian System, Link 0=/opt/software/Gaussian/g16-AVX2-C.01/g16/g16
 Input=charge-conf-472.com
 Output=charge-conf-472.log
 Initial command:
 /opt/software/Gaussian/g16-AVX2-C.01/g16/l1.exe "/mnt/gs18/scratch/users/kengmith/Gau-91102.inp" -scrdir="/mnt/gs18/scratch/users/kengmith/"
 Entering Link 1 = /opt/software/Gaussian/g16-AVX2-C.01/g16/l1.exe PID=     91128.
  
 Copyright (c) 1988-2019, Gaussian, Inc.  All Rights Reserved.
  
 This is part of the Gaussian(R) 16 program.  It is based on
 the Gaussian(R) 09 system (copyright 2009, Gaussian, Inc.),
 the Gaussian(R) 03 system (copyright 2003, Gaussian, Inc.),
 the Gaussian(R) 98 system (copyright 1998, Gaussian, Inc.),
 the Gaussian(R) 94 system (copyright 1995, Gaussian, Inc.),
 the Gaussian 92(TM) system (copyright 1992, Gaussian, Inc.),
 the Gaussian 90(TM) system (copyright 1990, Gaussian, Inc.),
 the Gaussian 88(TM) system (copyright 1988, Gaussian, Inc.),
 the Gaussian 86(TM) system (copyright 1986, Carnegie Mellon
 University), and the Gaussian 82(TM) system (copyright 1983,
 Carnegie Mellon University). Gaussian is a federally registered
 trademark of Gaussian, Inc.
  
 This software contains proprietary and confidential information,
 including trade secrets, belonging to Gaussian, Inc.
  
 This software is provided under written license and may be
 used, copied, transmitted, or stored only in accord with that
 written license.
  
 The following legend is applicable only to US Government
 contracts under FAR:
  
                    RESTRICTED RIGHTS LEGEND
  
 Use, reproduction and disclosure by the US Government is
 subject to restrictions as set forth in subparagraphs (a)
 and (c) of the Commercial Computer Software - Restricted
 Rights clause in FAR 52.227-19.
  
 Gaussian, Inc.
 340 Quinnipiac St., Bldg. 40, Wallingford CT 06492
  
  
 ---------------------------------------------------------------
 Warning -- This program may not be used in any manner that
 competes with the business of Gaussian, Inc. or will provide
 assistance to any competitor of Gaussian, Inc.  The licensee
 of this program is prohibited from giving any competitor of
 Gaussian, Inc. access to this program.  By using this program,
 the user acknowledges that Gaussian, Inc. is engaged in the
 business of creating and licensing software in the field of
 computational chemistry and represents and warrants to the
 licensee that it is not a competitor of Gaussian, Inc. and that
 it will not use this program in any manner prohibited above.
 ---------------------------------------------------------------
  

 Cite this work as:
 Gaussian 16, Revision C.01,
 M. J. Frisch, G. W. Trucks, H. B. Schlegel, G. E. Scuseria, 
 M. A. Robb, J. R. Cheeseman, G. Scalmani, V. Barone, 
 G. A. Petersson, H. Nakatsuji, X. Li, M. Caricato, A. V. Marenich, 
 J. Bloino, B. G. Janesko, R. Gomperts, B. Mennucci, H. P. Hratchian, 
 J. V. Ortiz, A. F. Izmaylov, J. L. Sonnenberg, D. Williams-Young, 
 F. Ding, F. Lipparini, F. Egidi, J. Goings, B. Peng, A. Petrone, 
 T. Henderson, D. Ranasinghe, V. G. Zakrzewski, J. Gao, N. Rega, 
 G. Zheng, W. Liang, M. Hada, M. Ehara, K. Toyota, R. Fukuda, 
 J. Hasegawa, M. Ishida, T. Nakajima, Y. Honda, O. Kitao, H. Nakai, 
 T. Vreven, K. Throssell, J. A. Montgomery, Jr., J. E. Peralta, 
 F. Ogliaro, M. J. Bearpark, J. J. Heyd, E. N. Brothers, K. N. Kudin, 
 V. N. Staroverov, T. A. Keith, R. Kobayashi, J. Normand, 
 K. Raghavachari, A. P. Rendell, J. C. Burant, S. S. Iyengar, 
 J. Tomasi, M. Cossi, J. M. Millam, M. Klene, C. Adamo, R. Cammi, 
 J. W. Ochterski, R. L. Martin, K. Morokuma, O. Farkas, 
 J. B. Foresman, and D. J. Fox, Gaussian, Inc., Wallingford CT, 2019.
 
 ******************************************
 Gaussian 16:  ES64L-G16RevC.01  3-Jul-2019
                28-Jun-2022 
 ******************************************
 %mem=8gb
 %nproc=4
 Will use up to    4 processors via shared memory.
 %chk=conf-472.chk
 -------------------------------------------------------------------
 # B3LYP/6-31G* guess=read geom=check nosymm integral(ultrafinegrid)
 -------------------------------------------------------------------
 1/29=2,38=1,172=1/1;
 2/12=2,15=1,40=1/2;
 3/5=1,6=6,7=1,11=2,14=-4,25=1,30=1,74=-5,75=-5,116=-2/1,2,3;
 4/5=1/1;
 5/5=2,38=6/2;
 6/7=2,8=2,9=2,10=2,28=1/1;
 99/5=1,9=1/99;
 ------------------------------------------------------
 Candidate Structure: Conf:472 Charge calc in gas phase
 ------------------------------------------------------
 Structure from the checkpoint file:  "conf-472.chk"
 Charge =  1 Multiplicity = 1
 Redundant internal coordinates found in file.  (old form).
 N,0,-4.4392461411,3.7752909955,3.6697517773
 H,0,-4.2546761229,4.7798655711,3.6089378706
 H,0,-5.0483442722,3.4751377952,2.840680442
 H,0,-4.9003293613,3.5840848466,4.5634653121
 C,0,-3.2062931625,2.918704089,3.4469978282
 H,0,-2.3371937227,3.5792595174,3.4319509587
 C,0,-3.4709956861,2.320845474,2.0341673171
 C,0,-3.0756792858,1.8419675535,4.5344967801
 H,0,-3.973636889,1.2086855973,4.5025868991
 H,0,-2.2409051473,1.1915954493,4.2457632045
 O,0,-4.6001731972,2.5068232786,1.5433716531
 C,0,-2.8365826877,2.3551591751,5.9721967031
 H,0,-3.6721624896,3.0181440481,6.2592031886
 C,0,-2.8546345177,1.1648011663,6.9442433087
 H,0,-2.0368525634,0.4687575014,6.7228483654
 H,0,-3.7964559419,0.6079278721,6.8848111102
 H,0,-2.7309170643,1.507386725,7.9762336651
 C,0,-1.5308614699,3.1535566911,6.1028487873
 H,0,-0.6675094589,2.5381084628,5.822258545
 H,0,-1.5153413252,4.0569103785,5.4803006738
 H,0,-1.3831268336,3.4773741263,7.1377841773
 N,0,-2.4717424107,1.6564652232,1.481134873
 H,0,-1.5997467773,1.4483322392,1.9814491701
 C,0,-2.5418430425,0.9026877962,0.2267742473
 H,0,-3.4527642851,0.2944471458,0.2329569351
 C,0,-1.301082231,-0.0247434605,0.3005621892
 C,0,-2.5690677113,1.8319330092,-1.0251255624
 H,0,-3.1873288163,2.6981713591,-0.7618973838
 H,0,-1.5574890147,2.2082585312,-1.2155762955
 O,0,-0.5448977421,0.0523354036,1.2758187009
 C,0,-3.1368331768,1.1733459488,-2.2491881633
 C,0,-2.4543742901,0.7803845711,-3.3794721759
 H,0,-1.3968840507,0.8167983152,-3.59822091
 C,0,-4.5293226223,0.8593307959,-2.4792709994
 C,0,-4.614346298,0.2722694245,-3.7708742005
 C,0,-5.7072484314,1.0255774807,-1.7278518318
 H,0,-5.6751655695,1.4835927836,-0.7423761665
 N,0,-3.3344971992,0.2429054776,-4.290542973
 H,0,-3.0703308614,-0.147297476,-5.1823521276
 C,0,-6.9728878072,0.0146090788,-3.5511444065
 H,0,-7.9319581815,-0.3062334379,-3.9473380747
 C,0,-5.827455875,-0.1558375101,-4.3195426595
 H,0,-5.8749325987,-0.6019028807,-5.3091850058
 C,0,-6.9138309454,0.6010753309,-2.2702071661
 H,0,-7.8315055387,0.724176601,-1.7017694232
 N,0,-1.1310345566,-0.863813757,-0.7329821384
 H,0,-1.710101545,-0.7602686086,-1.5624609145
 C,0,-0.0260955156,-1.8056127593,-0.8182721472
 H,0,0.6564325161,-1.5786847573,0.0043771465
 C,0,0.6597955875,-1.6376109378,-2.1873761253
 C,0,-0.5212275794,-3.2532925427,-0.6622437982
 H,0,0.3401556384,-3.930740884,-0.7687191
 H,0,-1.2286638226,-3.4767941223,-1.4762801346
 O,0,0.0167954629,-1.26011972,-3.1691671956
 O,0,-1.1272450366,-3.3647382289,0.6123943772
 H,0,-1.4810208772,-4.2630121666,0.6986307303
 N,0,1.964033914,-1.972421864,-2.2248201051
 H,0,2.4639228878,-2.312972682,-1.4071424909
 C,0,2.7488760324,-1.9983301649,-3.450603379
 H,0,2.1407138773,-2.4496424749,-4.2432330376
 C,0,3.969124986,-2.8918243389,-3.1558448259
 C,0,3.1797605812,-0.5870724519,-3.8923662792
 H,0,3.7580904414,-0.622634469,-4.8214384184
 H,0,3.7953500656,-0.1155953817,-3.1193686724
 H,0,2.2902129712,0.024780712,-4.0619354201
 O,0,4.2677899869,-3.1898242804,-1.9961575421
 N,0,4.662180792,-3.292176892,-4.241772389
 H,0,4.4636077403,-2.8885942797,-5.15414101
 C,0,5.9785805101,-3.9104751125,-4.1686317689
 H,0,6.4583180704,-3.5679788493,-3.2462082366
 C,0,6.793595368,-3.3762774983,-5.3594545626
 C,0,5.9372753398,-5.4617524694,-4.1846824302
 H,0,5.0952061655,-5.7653934832,-4.8173063223
 H,0,6.8391243378,-5.837935384,-4.678940105
 O,0,8.0826744305,-3.6945318443,-5.3509258668
 C,0,5.8098033283,-6.1165014877,-2.8014863078
 H,0,4.8811945872,-5.7888270611,-2.3213574567
 H,0,5.7222356404,-7.2009830197,-2.9539088858
 C,0,6.9732818653,-5.8513315413,-1.8261416466
 H,0,6.8052724715,-6.4692797168,-0.935577507
 H,0,6.9377713213,-4.8135208417,-1.4670755699
 C,0,8.3834678251,-6.1579289649,-2.3582164865
 H,0,9.0308597018,-6.4619427128,-1.5236094087
 H,0,8.3515831304,-7.0027650767,-3.0562380554
 N,0,8.9822312566,-5.0050618688,-3.0838570605
 H,0,9.9079286765,-5.2711044369,-3.4236239093
 H,0,8.3349789512,-4.2114723901,-4.5191121314
 H,0,9.1495475148,-4.2500528081,-2.4166934343
 O,0,6.2786267667,-2.725752335,-6.2475302655
 Recover connectivity data from disk.
                           ----------------------------
                           !    Current Parameters    !
                           ! (Angstroms and Degrees)  !
 --------------------------                            --------------------------
 ! Name  Definition              Value                                          !
 --------------------------------------------------------------------------------
 ! R1    R(1,2)                  1.0232                                         !
 ! R2    R(1,3)                  1.0717                                         !
 ! R3    R(1,4)                  1.0237                                         !
 ! R4    R(1,5)                  1.5177                                         !
 ! R5    R(5,6)                  1.0917                                         !
 ! R6    R(5,7)                  1.5568                                         !
 ! R7    R(5,8)                  1.5359                                         !
 ! R8    R(7,11)                 1.2452                                         !
 ! R9    R(7,22)                 1.3213                                         !
 ! R10   R(8,9)                  1.0993                                         !
 ! R11   R(8,10)                 1.0969                                         !
 ! R12   R(8,12)                 1.5452                                         !
 ! R13   R(12,13)                1.1046                                         !
 ! R14   R(12,14)                1.5369                                         !
 ! R15   R(12,18)                1.536                                          !
 ! R16   R(14,15)                1.0965                                         !
 ! R17   R(14,16)                1.0957                                         !
 ! R18   R(14,17)                1.0944                                         !
 ! R19   R(18,19)                1.0968                                         !
 ! R20   R(18,20)                1.0972                                         !
 ! R21   R(18,21)                1.0944                                         !
 ! R22   R(22,23)                1.0266                                         !
 ! R23   R(22,24)                1.4651                                         !
 ! R24   R(24,25)                1.0953                                         !
 ! R25   R(24,26)                1.5508                                         !
 ! R26   R(24,27)                1.5593                                         !
 ! R27   R(26,30)                1.2365                                         !
 ! R28   R(26,46)                1.3421                                         !
 ! R29   R(27,28)                1.0963                                         !
 ! R30   R(27,29)                1.096                                          !
 ! R31   R(27,31)                1.5015                                         !
 ! R32   R(31,32)                1.3776                                         !
 ! R33   R(31,34)                1.4459                                         !
 ! R34   R(32,33)                1.0805                                         !
 ! R35   R(32,38)                1.3761                                         !
 ! R36   R(34,35)                1.4213                                         !
 ! R37   R(34,36)                1.407                                          !
 ! R38   R(35,38)                1.3816                                         !
 ! R39   R(35,42)                1.3986                                         !
 ! R40   R(36,37)                1.0872                                         !
 ! R41   R(36,44)                1.3893                                         !
 ! R42   R(38,39)                1.0086                                         !
 ! R43   R(40,41)                1.0862                                         !
 ! R44   R(40,42)                1.3898                                         !
 ! R45   R(40,44)                1.41                                           !
 ! R46   R(42,43)                1.0866                                         !
 ! R47   R(44,45)                1.0865                                         !
 ! R48   R(46,47)                1.0169                                         !
 ! R49   R(46,48)                1.4544                                         !
 ! R50   R(48,49)                1.0927                                         !
 ! R51   R(48,50)                1.5405                                         !
 ! R52   R(48,51)                1.5379                                         !
 ! R53   R(50,54)                1.2328                                         !
 ! R54   R(50,57)                1.347                                          !
 ! R55   R(51,52)                1.101                                          !
 ! R56   R(51,53)                1.1014                                         !
 ! R57   R(51,55)                1.4158                                         !
 ! R58   R(55,56)                0.9693                                         !
 ! R59   R(57,58)                1.0171                                         !
 ! R60   R(57,59)                1.4557                                         !
 ! R61   R(59,60)                1.0963                                         !
 ! R62   R(59,61)                1.5409                                         !
 ! R63   R(59,62)                1.5403                                         !
 ! R64   R(61,66)                1.234                                          !
 ! R65   R(61,67)                1.349                                          !
 ! R66   R(62,63)                1.0949                                         !
 ! R67   R(62,64)                1.0949                                         !
 ! R68   R(62,65)                1.0929                                         !
 ! R69   R(67,68)                1.0172                                         !
 ! R70   R(67,69)                1.4562                                         !
 ! R71   R(69,70)                1.0947                                         !
 ! R72   R(69,71)                1.5387                                         !
 ! R73   R(69,72)                1.5519                                         !
 ! R74   R(71,75)                1.3278                                         !
 ! R75   R(71,89)                1.2153                                         !
 ! R76   R(72,73)                1.0961                                         !
 ! R77   R(72,74)                1.0951                                         !
 ! R78   R(72,76)                1.5356                                         !
 ! R79   R(76,77)                1.0955                                         !
 ! R80   R(76,78)                1.0986                                         !
 ! R81   R(76,79)                1.5412                                         !
 ! R82   R(79,80)                1.0969                                         !
 ! R83   R(79,81)                1.0987                                         !
 ! R84   R(79,82)                1.5381                                         !
 ! R85   R(82,83)                1.0991                                         !
 ! R86   R(82,84)                1.0964                                         !
 ! R87   R(82,85)                1.488                                          !
 ! R88   R(85,86)                1.0213                                         !
 ! R89   R(85,87)                1.7631                                         !
 ! R90   R(85,88)                1.0213                                         !
 ! A1    A(2,1,3)              109.3616                                         !
 ! A2    A(2,1,4)              108.453                                          !
 ! A3    A(2,1,5)              113.5063                                         !
 ! A4    A(3,1,4)              111.537                                          !
 ! A5    A(3,1,5)              100.9588                                         !
 ! A6    A(4,1,5)              112.869                                          !
 ! A7    A(1,5,6)              107.8929                                         !
 ! A8    A(1,5,7)              102.2285                                         !
 ! A9    A(1,5,8)              111.1504                                         !
 ! A10   A(6,5,7)              110.8062                                         !
 ! A11   A(6,5,8)              111.4827                                         !
 ! A12   A(7,5,8)              112.8181                                         !
 ! A13   A(5,7,11)             117.035                                          !
 ! A14   A(5,7,22)             116.383                                          !
 ! A15   A(11,7,22)            126.5799                                         !
 ! A16   A(5,8,9)              108.2909                                         !
 ! A17   A(5,8,10)             107.0974                                         !
 ! A18   A(5,8,12)             116.0481                                         !
 ! A19   A(9,8,10)             105.8097                                         !
 ! A20   A(9,8,12)             110.1664                                         !
 ! A21   A(10,8,12)            108.9101                                         !
 ! A22   A(8,12,13)            108.9083                                         !
 ! A23   A(8,12,14)            109.2338                                         !
 ! A24   A(8,12,18)            112.539                                          !
 ! A25   A(13,12,14)           106.9566                                         !
 ! A26   A(13,12,18)           107.9966                                         !
 ! A27   A(14,12,18)           111.0239                                         !
 ! A28   A(12,14,15)           110.8052                                         !
 ! A29   A(12,14,16)           111.6789                                         !
 ! A30   A(12,14,17)           110.6479                                         !
 ! A31   A(15,14,16)           107.9081                                         !
 ! A32   A(15,14,17)           107.7466                                         !
 ! A33   A(16,14,17)           107.9029                                         !
 ! A34   A(12,18,19)           110.8374                                         !
 ! A35   A(12,18,20)           113.0608                                         !
 ! A36   A(12,18,21)           110.4244                                         !
 ! A37   A(19,18,20)           107.8011                                         !
 ! A38   A(19,18,21)           107.5597                                         !
 ! A39   A(20,18,21)           106.9202                                         !
 ! A40   A(7,22,23)            122.7054                                         !
 ! A41   A(7,22,24)            125.512                                          !
 ! A42   A(23,22,24)           110.7057                                         !
 ! A43   A(22,24,25)           108.7024                                         !
 ! A44   A(22,24,26)           103.2182                                         !
 ! A45   A(22,24,27)           112.4331                                         !
 ! A46   A(25,24,26)           109.4515                                         !
 ! A47   A(25,24,27)           108.7192                                         !
 ! A48   A(26,24,27)           114.1136                                         !
 ! A49   A(24,26,30)           119.3102                                         !
 ! A50   A(24,26,46)           116.0157                                         !
 ! A51   A(30,26,46)           124.6734                                         !
 ! A52   A(24,27,28)           106.735                                          !
 ! A53   A(24,27,29)           109.1486                                         !
 ! A54   A(24,27,31)           113.561                                          !
 ! A55   A(28,27,29)           106.9136                                         !
 ! A56   A(28,27,31)           109.2122                                         !
 ! A57   A(29,27,31)           110.9751                                         !
 ! A58   A(27,31,32)           127.3502                                         !
 ! A59   A(27,31,34)           126.0978                                         !
 ! A60   A(32,31,34)           106.5347                                         !
 ! A61   A(31,32,33)           129.8931                                         !
 ! A62   A(31,32,38)           109.7424                                         !
 ! A63   A(33,32,38)           120.3381                                         !
 ! A64   A(31,34,35)           106.9732                                         !
 ! A65   A(31,34,36)           134.0756                                         !
 ! A66   A(35,34,36)           118.9489                                         !
 ! A67   A(34,35,38)           107.1675                                         !
 ! A68   A(34,35,42)           122.3328                                         !
 ! A69   A(38,35,42)           130.499                                          !
 ! A70   A(34,36,37)           120.6073                                         !
 ! A71   A(34,36,44)           118.8472                                         !
 ! A72   A(37,36,44)           120.5445                                         !
 ! A73   A(32,38,35)           109.5814                                         !
 ! A74   A(32,38,39)           124.6795                                         !
 ! A75   A(35,38,39)           125.6889                                         !
 ! A76   A(41,40,42)           119.3304                                         !
 ! A77   A(41,40,44)           119.4202                                         !
 ! A78   A(42,40,44)           121.2488                                         !
 ! A79   A(35,42,40)           117.4161                                         !
 ! A80   A(35,42,43)           121.3916                                         !
 ! A81   A(40,42,43)           121.1921                                         !
 ! A82   A(36,44,40)           121.2042                                         !
 ! A83   A(36,44,45)           119.6491                                         !
 ! A84   A(40,44,45)           119.1464                                         !
 ! A85   A(26,46,47)           119.496                                          !
 ! A86   A(26,46,48)           123.1128                                         !
 ! A87   A(47,46,48)           116.7909                                         !
 ! A88   A(46,48,49)           107.2119                                         !
 ! A89   A(46,48,50)           108.6489                                         !
 ! A90   A(46,48,51)           111.04                                           !
 ! A91   A(49,48,50)           111.6124                                         !
 ! A92   A(49,48,51)           108.6743                                         !
 ! A93   A(50,48,51)           109.6434                                         !
 ! A94   A(48,50,54)           120.5935                                         !
 ! A95   A(48,50,57)           115.3844                                         !
 ! A96   A(54,50,57)           123.9839                                         !
 ! A97   A(48,51,52)           108.5114                                         !
 ! A98   A(48,51,53)           108.8335                                         !
 ! A99   A(48,51,55)           107.6526                                         !
 ! A100  A(52,51,53)           107.8289                                         !
 ! A101  A(52,51,55)           111.9326                                         !
 ! A102  A(53,51,55)           111.9939                                         !
 ! A103  A(51,55,56)           108.0163                                         !
 ! A104  A(50,57,58)           122.4625                                         !
 ! A105  A(50,57,59)           123.3554                                         !
 ! A106  A(58,57,59)           113.9542                                         !
 ! A107  A(57,59,60)           108.4845                                         !
 ! A108  A(57,59,61)           106.0336                                         !
 ! A109  A(57,59,62)           112.087                                          !
 ! A110  A(60,59,61)           109.8111                                         !
 ! A111  A(60,59,62)           108.9666                                         !
 ! A112  A(61,59,62)           111.3844                                         !
 ! A113  A(59,61,66)           120.7611                                         !
 ! A114  A(59,61,67)           115.1478                                         !
 ! A115  A(66,61,67)           124.0881                                         !
 ! A116  A(59,62,63)           111.1835                                         !
 ! A117  A(59,62,64)           110.4472                                         !
 ! A118  A(59,62,65)           109.254                                          !
 ! A119  A(63,62,64)           108.4258                                         !
 ! A120  A(63,62,65)           108.4477                                         !
 ! A121  A(64,62,65)           109.0318                                         !
 ! A122  A(61,67,68)           120.263                                          !
 ! A123  A(61,67,69)           123.367                                          !
 ! A124  A(68,67,69)           112.9532                                         !
 ! A125  A(67,69,70)           107.7972                                         !
 ! A126  A(67,69,71)           107.01                                           !
 ! A127  A(67,69,72)           113.5682                                         !
 ! A128  A(70,69,71)           108.1424                                         !
 ! A129  A(70,69,72)           109.4586                                         !
 ! A130  A(71,69,72)           110.6783                                         !
 ! A131  A(69,71,75)           115.2163                                         !
 ! A132  A(69,71,89)           121.7962                                         !
 ! A133  A(75,71,89)           122.9803                                         !
 ! A134  A(69,72,73)           107.6569                                         !
 ! A135  A(69,72,74)           109.0346                                         !
 ! A136  A(69,72,76)           114.7771                                         !
 ! A137  A(73,72,74)           106.0827                                         !
 ! A138  A(73,72,76)           109.7535                                         !
 ! A139  A(74,72,76)           109.1743                                         !
 ! A140  A(72,76,77)           109.7299                                         !
 ! A141  A(72,76,78)           107.6095                                         !
 ! A142  A(72,76,79)           115.7218                                         !
 ! A143  A(77,76,78)           106.7674                                         !
 ! A144  A(77,76,79)           108.1241                                         !
 ! A145  A(78,76,79)           108.5305                                         !
 ! A146  A(76,79,80)           107.5325                                         !
 ! A147  A(76,79,81)           110.1773                                         !
 ! A148  A(76,79,82)           116.035                                          !
 ! A149  A(80,79,81)           105.1794                                         !
 ! A150  A(80,79,82)           107.9984                                         !
 ! A151  A(81,79,82)           109.3272                                         !
 ! A152  A(79,82,83)           109.4192                                         !
 ! A153  A(79,82,84)           110.3153                                         !
 ! A154  A(79,82,85)           112.5312                                         !
 ! A155  A(83,82,84)           106.7045                                         !
 ! A156  A(83,82,85)           110.3393                                         !
 ! A157  A(84,82,85)           107.3525                                         !
 ! A158  A(82,85,86)           108.973                                          !
 ! A159  A(82,85,87)           126.725                                          !
 ! A160  A(82,85,88)           108.6693                                         !
 ! A161  A(86,85,87)           100.3212                                         !
 ! A162  A(86,85,88)           105.1522                                         !
 ! A163  A(87,85,88)           105.0199                                         !
 ! D1    D(2,1,5,6)              9.379                                          !
 ! D2    D(2,1,5,7)           -107.4865                                         !
 ! D3    D(2,1,5,8)            131.8951                                         !
 ! D4    D(3,1,5,6)            126.281                                          !
 ! D5    D(3,1,5,7)              9.4155                                         !
 ! D6    D(3,1,5,8)           -111.2029                                         !
 ! D7    D(4,1,5,6)           -114.5432                                         !
 ! D8    D(4,1,5,7)            128.5913                                         !
 ! D9    D(4,1,5,8)              7.9729                                         !
 ! D10   D(1,5,7,11)            -9.1702                                         !
 ! D11   D(1,5,7,22)           171.3137                                         !
 ! D12   D(6,5,7,11)          -123.92                                           !
 ! D13   D(6,5,7,22)            56.5639                                         !
 ! D14   D(8,5,7,11)           110.2838                                         !
 ! D15   D(8,5,7,22)           -69.2324                                         !
 ! D16   D(1,5,8,9)             59.65                                           !
 ! D17   D(1,5,8,10)           173.3457                                         !
 ! D18   D(1,5,8,12)           -64.8011                                         !
 ! D19   D(6,5,8,9)           -179.9332                                         !
 ! D20   D(6,5,8,10)           -66.2375                                         !
 ! D21   D(6,5,8,12)            55.6156                                         !
 ! D22   D(7,5,8,9)            -54.5023                                         !
 ! D23   D(7,5,8,10)            59.1934                                         !
 ! D24   D(7,5,8,12)          -178.9534                                         !
 ! D25   D(5,7,22,23)            6.5286                                         !
 ! D26   D(5,7,22,24)          173.5421                                         !
 ! D27   D(11,7,22,23)        -172.9347                                         !
 ! D28   D(11,7,22,24)          -5.9212                                         !
 ! D29   D(5,8,12,13)           58.553                                          !
 ! D30   D(5,8,12,14)          175.0415                                         !
 ! D31   D(5,8,12,18)          -61.1661                                         !
 ! D32   D(9,8,12,13)          -64.927                                          !
 ! D33   D(9,8,12,14)           51.5615                                         !
 ! D34   D(9,8,12,18)          175.3539                                         !
 ! D35   D(10,8,12,13)         179.4398                                         !
 ! D36   D(10,8,12,14)         -64.0717                                         !
 ! D37   D(10,8,12,18)          59.7207                                         !
 ! D38   D(8,12,14,15)          63.0285                                         !
 ! D39   D(8,12,14,16)         -57.3043                                         !
 ! D40   D(8,12,14,17)        -177.5234                                         !
 ! D41   D(13,12,14,15)       -179.249                                          !
 ! D42   D(13,12,14,16)         60.4181                                         !
 ! D43   D(13,12,14,17)        -59.8009                                         !
 ! D44   D(18,12,14,15)        -61.6536                                         !
 ! D45   D(18,12,14,16)        178.0136                                         !
 ! D46   D(18,12,14,17)         57.7945                                         !
 ! D47   D(8,12,18,19)         -59.4346                                         !
 ! D48   D(8,12,18,20)          61.7339                                         !
 ! D49   D(8,12,18,21)        -178.5259                                         !
 ! D50   D(13,12,18,19)       -179.6809                                         !
 ! D51   D(13,12,18,20)        -58.5125                                         !
 ! D52   D(13,12,18,21)         61.2277                                         !
 ! D53   D(14,12,18,19)         63.3586                                         !
 ! D54   D(14,12,18,20)       -175.4729                                         !
 ! D55   D(14,12,18,21)        -55.7327                                         !
 ! D56   D(7,22,24,25)         -45.7145                                         !
 ! D57   D(7,22,24,26)        -161.8602                                         !
 ! D58   D(7,22,24,27)          74.7045                                         !
 ! D59   D(23,22,24,25)        122.6228                                         !
 ! D60   D(23,22,24,26)          6.477                                          !
 ! D61   D(23,22,24,27)       -116.9582                                         !
 ! D62   D(22,24,26,30)         -1.5809                                         !
 ! D63   D(22,24,26,46)        178.7016                                         !
 ! D64   D(25,24,26,30)       -117.1927                                         !
 ! D65   D(25,24,26,46)         63.0898                                         !
 ! D66   D(27,24,26,30)        120.7359                                         !
 ! D67   D(27,24,26,46)        -58.9816                                         !
 ! D68   D(22,24,27,28)        -38.2671                                         !
 ! D69   D(22,24,27,29)         76.9465                                         !
 ! D70   D(22,24,27,31)       -158.6644                                         !
 ! D71   D(25,24,27,28)         82.1422                                         !
 ! D72   D(25,24,27,29)       -162.6442                                         !
 ! D73   D(25,24,27,31)        -38.2551                                         !
 ! D74   D(26,24,27,28)       -155.3851                                         !
 ! D75   D(26,24,27,29)        -40.1715                                         !
 ! D76   D(26,24,27,31)         84.2176                                         !
 ! D77   D(24,26,46,47)          9.5939                                         !
 ! D78   D(24,26,46,48)       -179.5806                                         !
 ! D79   D(30,26,46,47)       -170.1065                                         !
 ! D80   D(30,26,46,48)          0.719                                          !
 ! D81   D(24,27,31,32)       -109.0288                                         !
 ! D82   D(24,27,31,34)         72.6915                                         !
 ! D83   D(28,27,31,32)        131.9835                                         !
 ! D84   D(28,27,31,34)        -46.2963                                         !
 ! D85   D(29,27,31,32)         14.3674                                         !
 ! D86   D(29,27,31,34)       -163.9123                                         !
 ! D87   D(27,31,32,33)          3.2641                                         !
 ! D88   D(27,31,32,38)       -178.6372                                         !
 ! D89   D(34,31,32,33)       -178.1858                                         !
 ! D90   D(34,31,32,38)         -0.0871                                         !
 ! D91   D(27,31,34,35)        178.797                                          !
 ! D92   D(27,31,34,36)         -0.621                                          !
 ! D93   D(32,31,34,35)          0.2234                                         !
 ! D94   D(32,31,34,36)       -179.1945                                         !
 ! D95   D(31,32,38,35)         -0.0881                                         !
 ! D96   D(31,32,38,39)       -177.6325                                         !
 ! D97   D(33,32,38,35)        178.2218                                         !
 ! D98   D(33,32,38,39)          0.6774                                         !
 ! D99   D(31,34,35,38)         -0.2759                                         !
 ! D100  D(31,34,35,42)       -179.9892                                         !
 ! D101  D(36,34,35,38)        179.2462                                         !
 ! D102  D(36,34,35,42)         -0.4671                                         !
 ! D103  D(31,34,36,37)          0.1835                                         !
 ! D104  D(31,34,36,44)        179.8232                                         !
 ! D105  D(35,34,36,37)       -179.1802                                         !
 ! D106  D(35,34,36,44)          0.4594                                         !
 ! D107  D(34,35,38,32)          0.2285                                         !
 ! D108  D(34,35,38,39)        177.7422                                         !
 ! D109  D(42,35,38,32)        179.9099                                         !
 ! D110  D(42,35,38,39)         -2.5764                                         !
 ! D111  D(34,35,42,40)          0.118                                          !
 ! D112  D(34,35,42,43)        179.9404                                         !
 ! D113  D(38,35,42,40)       -179.5218                                         !
 ! D114  D(38,35,42,43)          0.3007                                         !
 ! D115  D(34,36,44,40)         -0.1271                                         !
 ! D116  D(34,36,44,45)       -179.9302                                         !
 ! D117  D(37,36,44,40)        179.5128                                         !
 ! D118  D(37,36,44,45)         -0.2903                                         !
 ! D119  D(41,40,42,35)        179.9547                                         !
 ! D120  D(41,40,42,43)          0.1319                                         !
 ! D121  D(44,40,42,35)          0.2301                                         !
 ! D122  D(44,40,42,43)       -179.5927                                         !
 ! D123  D(41,40,44,36)       -179.9542                                         !
 ! D124  D(41,40,44,45)         -0.1501                                         !
 ! D125  D(42,40,44,36)         -0.2298                                         !
 ! D126  D(42,40,44,45)        179.5742                                         !
 ! D127  D(26,46,48,49)         -8.0996                                         !
 ! D128  D(26,46,48,50)       -128.864                                          !
 ! D129  D(26,46,48,51)        110.4752                                         !
 ! D130  D(47,46,48,49)        162.9566                                         !
 ! D131  D(47,46,48,50)         42.1922                                         !
 ! D132  D(47,46,48,51)        -78.4686                                         !
 ! D133  D(46,48,50,54)        -29.3975                                         !
 ! D134  D(46,48,50,57)        152.7632                                         !
 ! D135  D(49,48,50,54)       -147.4075                                         !
 ! D136  D(49,48,50,57)         34.7532                                         !
 ! D137  D(51,48,50,54)         92.122                                          !
 ! D138  D(51,48,50,57)        -85.7173                                         !
 ! D139  D(46,48,51,52)        178.0223                                         !
 ! D140  D(46,48,51,53)         60.9351                                         !
 ! D141  D(46,48,51,55)        -60.6516                                         !
 ! D142  D(49,48,51,52)        -64.2886                                         !
 ! D143  D(49,48,51,53)        178.6242                                         !
 ! D144  D(49,48,51,55)         57.0375                                         !
 ! D145  D(50,48,51,52)         57.9508                                         !
 ! D146  D(50,48,51,53)        -59.1364                                         !
 ! D147  D(50,48,51,55)        179.2769                                         !
 ! D148  D(48,50,57,58)          0.0045                                         !
 ! D149  D(48,50,57,59)        174.1847                                         !
 ! D150  D(54,50,57,58)       -177.7525                                         !
 ! D151  D(54,50,57,59)         -3.5722                                         !
 ! D152  D(48,51,55,56)        177.1892                                         !
 ! D153  D(52,51,55,56)        -63.6465                                         !
 ! D154  D(53,51,55,56)         57.5923                                         !
 ! D155  D(50,57,59,60)        -41.9655                                         !
 ! D156  D(50,57,59,61)       -159.8628                                         !
 ! D157  D(50,57,59,62)         78.3986                                         !
 ! D158  D(58,57,59,60)        132.6627                                         !
 ! D159  D(58,57,59,61)         14.7654                                         !
 ! D160  D(58,57,59,62)       -106.9732                                         !
 ! D161  D(57,59,61,66)        -14.9895                                         !
 ! D162  D(57,59,61,67)        165.6095                                         !
 ! D163  D(60,59,61,66)       -132.0003                                         !
 ! D164  D(60,59,61,67)         48.5986                                         !
 ! D165  D(62,59,61,66)        107.198                                          !
 ! D166  D(62,59,61,67)        -72.2031                                         !
 ! D167  D(57,59,62,63)       -179.3003                                         !
 ! D168  D(57,59,62,64)         60.2843                                         !
 ! D169  D(57,59,62,65)        -59.6408                                         !
 ! D170  D(60,59,62,63)        -59.2168                                         !
 ! D171  D(60,59,62,64)       -179.6322                                         !
 ! D172  D(60,59,62,65)         60.4427                                         !
 ! D173  D(61,59,62,63)         62.0786                                         !
 ! D174  D(61,59,62,64)        -58.3368                                         !
 ! D175  D(61,59,62,65)       -178.2619                                         !
 ! D176  D(59,61,67,68)          9.8172                                         !
 ! D177  D(59,61,67,69)        167.4677                                         !
 ! D178  D(66,61,67,68)       -169.5613                                         !
 ! D179  D(66,61,67,69)        -11.9108                                         !
 ! D180  D(61,67,69,70)        -26.098                                          !
 ! D181  D(61,67,69,71)       -142.2143                                         !
 ! D182  D(61,67,69,72)         95.3513                                         !
 ! D183  D(68,67,69,70)        133.0059                                         !
 ! D184  D(68,67,69,71)         16.8896                                         !
 ! D185  D(68,67,69,72)       -105.5448                                         !
 ! D186  D(67,69,71,75)        171.2583                                         !
 ! D187  D(67,69,71,89)         -9.6899                                         !
 ! D188  D(70,69,71,75)         55.3716                                         !
 ! D189  D(70,69,71,89)       -125.5767                                         !
 ! D190  D(72,69,71,75)        -64.5204                                         !
 ! D191  D(72,69,71,89)        114.5313                                         !
 ! D192  D(67,69,72,73)         33.643                                          !
 ! D193  D(67,69,72,74)        148.3106                                         !
 ! D194  D(67,69,72,76)        -88.8754                                         !
 ! D195  D(70,69,72,73)        154.1596                                         !
 ! D196  D(70,69,72,74)        -91.1728                                         !
 ! D197  D(70,69,72,76)         31.6412                                         !
 ! D198  D(71,69,72,73)        -86.7406                                         !
 ! D199  D(71,69,72,74)         27.927                                          !
 ! D200  D(71,69,72,76)        150.741                                          !
 ! D201  D(69,72,76,77)         60.3781                                         !
 ! D202  D(69,72,76,78)        176.1875                                         !
 ! D203  D(69,72,76,79)        -62.2781                                         !
 ! D204  D(73,72,76,77)        -61.0019                                         !
 ! D205  D(73,72,76,78)         54.8075                                         !
 ! D206  D(73,72,76,79)        176.3419                                         !
 ! D207  D(74,72,76,77)       -176.8831                                         !
 ! D208  D(74,72,76,78)        -61.0736                                         !
 ! D209  D(74,72,76,79)         60.4608                                         !
 ! D210  D(72,76,79,80)       -173.4584                                         !
 ! D211  D(72,76,79,81)         72.4218                                         !
 ! D212  D(72,76,79,82)        -52.4633                                         !
 ! D213  D(77,76,79,80)         63.0401                                         !
 ! D214  D(77,76,79,81)        -51.0798                                         !
 ! D215  D(77,76,79,82)       -175.9648                                         !
 ! D216  D(78,76,79,80)        -52.4185                                         !
 ! D217  D(78,76,79,81)       -166.5383                                         !
 ! D218  D(78,76,79,82)         68.5766                                         !
 ! D219  D(76,79,82,83)       -149.7019                                         !
 ! D220  D(76,79,82,84)        -32.6046                                         !
 ! D221  D(76,79,82,85)         87.2564                                         !
 ! D222  D(80,79,82,83)        -28.9565                                         !
 ! D223  D(80,79,82,84)         88.1407                                         !
 ! D224  D(80,79,82,85)       -151.9982                                         !
 ! D225  D(81,79,82,83)         84.9788                                         !
 ! D226  D(81,79,82,84)       -157.924                                          !
 ! D227  D(81,79,82,85)        -38.0629                                         !
 ! D228  D(79,82,85,86)       -179.2016                                         !
 ! D229  D(79,82,85,87)        -59.6722                                         !
 ! D230  D(79,82,85,88)         66.7243                                         !
 ! D231  D(83,82,85,86)         58.2733                                         !
 ! D232  D(83,82,85,87)        177.8027                                         !
 ! D233  D(83,82,85,88)        -55.8008                                         !
 ! D234  D(84,82,85,86)        -57.6391                                         !
 ! D235  D(84,82,85,87)         61.8903                                         !
 ! D236  D(84,82,85,88)       -171.7132                                         !
 --------------------------------------------------------------------------------
 Symmetry turned off by external request.
 Stoichiometry    C29H46N7O7(1+)
 Framework group  C1[X(C29H46N7O7)]
 Deg. of freedom   261
 Full point group                 C1      NOp   1
                          Input orientation:                          
 ---------------------------------------------------------------------
 Center     Atomic      Atomic             Coordinates (Angstroms)
 Number     Number       Type             X           Y           Z
 ---------------------------------------------------------------------
      1          7           0       -4.439246    3.775291    3.669752
      2          1           0       -4.254676    4.779866    3.608938
      3          1           0       -5.048344    3.475138    2.840680
      4          1           0       -4.900329    3.584085    4.563465
      5          6           0       -3.206293    2.918704    3.446998
      6          1           0       -2.337194    3.579260    3.431951
      7          6           0       -3.470996    2.320845    2.034167
      8          6           0       -3.075679    1.841968    4.534497
      9          1           0       -3.973637    1.208686    4.502587
     10          1           0       -2.240905    1.191595    4.245763
     11          8           0       -4.600173    2.506823    1.543372
     12          6           0       -2.836583    2.355159    5.972197
     13          1           0       -3.672162    3.018144    6.259203
     14          6           0       -2.854635    1.164801    6.944243
     15          1           0       -2.036853    0.468758    6.722848
     16          1           0       -3.796456    0.607928    6.884811
     17          1           0       -2.730917    1.507387    7.976234
     18          6           0       -1.530861    3.153557    6.102849
     19          1           0       -0.667509    2.538108    5.822259
     20          1           0       -1.515341    4.056910    5.480301
     21          1           0       -1.383127    3.477374    7.137784
     22          7           0       -2.471742    1.656465    1.481135
     23          1           0       -1.599747    1.448332    1.981449
     24          6           0       -2.541843    0.902688    0.226774
     25          1           0       -3.452764    0.294447    0.232957
     26          6           0       -1.301082   -0.024743    0.300562
     27          6           0       -2.569068    1.831933   -1.025126
     28          1           0       -3.187329    2.698171   -0.761897
     29          1           0       -1.557489    2.208259   -1.215576
     30          8           0       -0.544898    0.052335    1.275819
     31          6           0       -3.136833    1.173346   -2.249188
     32          6           0       -2.454374    0.780385   -3.379472
     33          1           0       -1.396884    0.816798   -3.598221
     34          6           0       -4.529323    0.859331   -2.479271
     35          6           0       -4.614346    0.272269   -3.770874
     36          6           0       -5.707248    1.025577   -1.727852
     37          1           0       -5.675166    1.483593   -0.742376
     38          7           0       -3.334497    0.242905   -4.290543
     39          1           0       -3.070331   -0.147297   -5.182352
     40          6           0       -6.972888    0.014609   -3.551144
     41          1           0       -7.931958   -0.306233   -3.947338
     42          6           0       -5.827456   -0.155838   -4.319543
     43          1           0       -5.874933   -0.601903   -5.309185
     44          6           0       -6.913831    0.601075   -2.270207
     45          1           0       -7.831506    0.724177   -1.701769
     46          7           0       -1.131035   -0.863814   -0.732982
     47          1           0       -1.710102   -0.760269   -1.562461
     48          6           0       -0.026096   -1.805613   -0.818272
     49          1           0        0.656433   -1.578685    0.004377
     50          6           0        0.659796   -1.637611   -2.187376
     51          6           0       -0.521228   -3.253293   -0.662244
     52          1           0        0.340156   -3.930741   -0.768719
     53          1           0       -1.228664   -3.476794   -1.476280
     54          8           0        0.016795   -1.260120   -3.169167
     55          8           0       -1.127245   -3.364738    0.612394
     56          1           0       -1.481021   -4.263012    0.698631
     57          7           0        1.964034   -1.972422   -2.224820
     58          1           0        2.463923   -2.312973   -1.407142
     59          6           0        2.748876   -1.998330   -3.450603
     60          1           0        2.140714   -2.449642   -4.243233
     61          6           0        3.969125   -2.891824   -3.155845
     62          6           0        3.179761   -0.587072   -3.892366
     63          1           0        3.758090   -0.622634   -4.821438
     64          1           0        3.795350   -0.115595   -3.119369
     65          1           0        2.290213    0.024781   -4.061935
     66          8           0        4.267790   -3.189824   -1.996158
     67          7           0        4.662181   -3.292177   -4.241772
     68          1           0        4.463608   -2.888594   -5.154141
     69          6           0        5.978581   -3.910475   -4.168632
     70          1           0        6.458318   -3.567979   -3.246208
     71          6           0        6.793595   -3.376277   -5.359455
     72          6           0        5.937275   -5.461752   -4.184682
     73          1           0        5.095206   -5.765393   -4.817306
     74          1           0        6.839124   -5.837935   -4.678940
     75          8           0        8.082674   -3.694532   -5.350926
     76          6           0        5.809803   -6.116501   -2.801486
     77          1           0        4.881195   -5.788827   -2.321357
     78          1           0        5.722236   -7.200983   -2.953909
     79          6           0        6.973282   -5.851332   -1.826142
     80          1           0        6.805272   -6.469280   -0.935578
     81          1           0        6.937771   -4.813521   -1.467076
     82          6           0        8.383468   -6.157929   -2.358216
     83          1           0        9.030860   -6.461943   -1.523609
     84          1           0        8.351583   -7.002765   -3.056238
     85          7           0        8.982231   -5.005062   -3.083857
     86          1           0        9.907929   -5.271104   -3.423624
     87          1           0        8.334979   -4.211472   -4.519112
     88          1           0        9.149548   -4.250053   -2.416693
     89          8           0        6.278627   -2.725752   -6.247530
 ---------------------------------------------------------------------
 Rotational constants (GHZ):           0.0973270           0.0263447           0.0222996
 Standard basis: 6-31G(d) (6D, 7F)
   737 basis functions,  1388 primitive gaussians,   737 cartesian basis functions
   162 alpha electrons      162 beta electrons
       nuclear repulsion energy      5092.6385086525 Hartrees.
 NAtoms=   89 NActive=   89 NUniq=   89 SFac= 1.00D+00 NAtFMM=   60 NAOKFM=T Big=T
 Integral buffers will be    131072 words long.
 Raffenetti 2 integral format.
 Two-electron integral symmetry is turned off.
 One-electron integrals computed using PRISM.
 NBasis=   737 RedAO= T EigKep=  3.65D-04  NBF=   737
 NBsUse=   737 1.00D-06 EigRej= -1.00D+00 NBFU=   737
 Initial guess from the checkpoint file:  "conf-472.chk"
 B after Tr=     0.000000    0.000000    0.000000
         Rot=    1.000000    0.000000    0.000000    0.000000 Ang=   0.00 deg.
 Requested convergence on RMS density matrix=1.00D-08 within 128 cycles.
 Requested convergence on MAX density matrix=1.00D-06.
 Requested convergence on             energy=1.00D-06.
 No special actions if energy rises.
 SCF Done:  E(RB3LYP) =  -2042.50325526     A.U. after    1 cycles
            NFock=  1  Conv=0.72D-08     -V/T= 2.0094

 **********************************************************************

            Population analysis using the SCF Density.

 **********************************************************************

 Alpha  occ. eigenvalues --  -19.26583 -19.22130 -19.22033 -19.21092 -19.19132
 Alpha  occ. eigenvalues --  -19.18816 -19.18005 -14.59425 -14.48546 -14.44498
 Alpha  occ. eigenvalues --  -14.44379 -14.43225 -14.42355 -14.41346 -10.43027
 Alpha  occ. eigenvalues --  -10.40276 -10.38164 -10.36413 -10.36348 -10.35748
 Alpha  occ. eigenvalues --  -10.33587 -10.33188 -10.32059 -10.31448 -10.31154
 Alpha  occ. eigenvalues --  -10.30531 -10.29420 -10.28828 -10.28555 -10.28328
 Alpha  occ. eigenvalues --  -10.28273 -10.28099 -10.28009 -10.25343 -10.24860
 Alpha  occ. eigenvalues --  -10.24782 -10.24770 -10.24759 -10.24627 -10.24586
 Alpha  occ. eigenvalues --  -10.24326 -10.24044 -10.24018  -1.18817  -1.13738
 Alpha  occ. eigenvalues --   -1.13454  -1.12912  -1.11195  -1.10293  -1.09451
 Alpha  occ. eigenvalues --   -1.05799  -1.05325  -1.04351  -1.01080  -0.99731
 Alpha  occ. eigenvalues --   -0.99037  -0.96737  -0.94766  -0.90325  -0.89664
 Alpha  occ. eigenvalues --   -0.87913  -0.86600  -0.85501  -0.83875  -0.82381
 Alpha  occ. eigenvalues --   -0.80472  -0.80174  -0.79572  -0.79136  -0.78401
 Alpha  occ. eigenvalues --   -0.75773  -0.75515  -0.73496  -0.73364  -0.72463
 Alpha  occ. eigenvalues --   -0.72003  -0.69904  -0.69297  -0.69015  -0.68316
 Alpha  occ. eigenvalues --   -0.67295  -0.66431  -0.65537  -0.65349  -0.65085
 Alpha  occ. eigenvalues --   -0.64450  -0.63374  -0.63048  -0.62654  -0.62246
 Alpha  occ. eigenvalues --   -0.60020  -0.59925  -0.59225  -0.58629  -0.57642
 Alpha  occ. eigenvalues --   -0.56837  -0.56607  -0.56415  -0.55470  -0.55202
 Alpha  occ. eigenvalues --   -0.55160  -0.54613  -0.54480  -0.53547  -0.53234
 Alpha  occ. eigenvalues --   -0.53160  -0.52785  -0.52664  -0.52215  -0.51699
 Alpha  occ. eigenvalues --   -0.51688  -0.51292  -0.50936  -0.50177  -0.49936
 Alpha  occ. eigenvalues --   -0.49472  -0.49345  -0.49103  -0.48934  -0.48581
 Alpha  occ. eigenvalues --   -0.48351  -0.48113  -0.47707  -0.47168  -0.47005
 Alpha  occ. eigenvalues --   -0.46639  -0.46393  -0.45948  -0.45416  -0.45384
 Alpha  occ. eigenvalues --   -0.45036  -0.44857  -0.44776  -0.44467  -0.44380
 Alpha  occ. eigenvalues --   -0.44172  -0.43696  -0.43168  -0.42470  -0.41935
 Alpha  occ. eigenvalues --   -0.41427  -0.41173  -0.40965  -0.39717  -0.39537
 Alpha  occ. eigenvalues --   -0.39457  -0.39363  -0.38653  -0.38571  -0.35688
 Alpha  occ. eigenvalues --   -0.35287  -0.34767  -0.34551  -0.33618  -0.33517
 Alpha  occ. eigenvalues --   -0.33378  -0.32764  -0.32579  -0.31862  -0.31393
 Alpha  occ. eigenvalues --   -0.28405  -0.26824
 Alpha virt. eigenvalues --   -0.11654  -0.11088  -0.07348  -0.06597  -0.06291
 Alpha virt. eigenvalues --   -0.05616  -0.04329  -0.03610  -0.03512  -0.03170
 Alpha virt. eigenvalues --   -0.01882  -0.00871  -0.00574  -0.00445   0.00024
 Alpha virt. eigenvalues --    0.00599   0.00654   0.02131   0.02436   0.02583
 Alpha virt. eigenvalues --    0.02927   0.03664   0.04012   0.04179   0.04476
 Alpha virt. eigenvalues --    0.04649   0.04770   0.05275   0.05624   0.05991
 Alpha virt. eigenvalues --    0.06274   0.06645   0.07116   0.07336   0.07891
 Alpha virt. eigenvalues --    0.08075   0.08106   0.08324   0.08423   0.09054
 Alpha virt. eigenvalues --    0.09545   0.09668   0.09803   0.10225   0.10482
 Alpha virt. eigenvalues --    0.10508   0.10752   0.10781   0.11247   0.11442
 Alpha virt. eigenvalues --    0.11534   0.11626   0.11959   0.12099   0.12363
 Alpha virt. eigenvalues --    0.12640   0.12968   0.13283   0.13567   0.13724
 Alpha virt. eigenvalues --    0.14207   0.14505   0.14872   0.15016   0.15467
 Alpha virt. eigenvalues --    0.16205   0.16293   0.16869   0.17125   0.17196
 Alpha virt. eigenvalues --    0.17825   0.18051   0.18554   0.18792   0.19037
 Alpha virt. eigenvalues --    0.19855   0.20534   0.21038   0.21661   0.21772
 Alpha virt. eigenvalues --    0.23351   0.24345   0.24448   0.25693   0.27092
 Alpha virt. eigenvalues --    0.27970   0.28641   0.29127   0.29582   0.30999
 Alpha virt. eigenvalues --    0.31156   0.32326   0.33831   0.34323   0.35544
 Alpha virt. eigenvalues --    0.36447   0.36770   0.37336   0.37705   0.38439
 Alpha virt. eigenvalues --    0.39772   0.40536   0.41375   0.42466   0.43030
 Alpha virt. eigenvalues --    0.43695   0.44180   0.44601   0.44909   0.45182
 Alpha virt. eigenvalues --    0.45335   0.45503   0.46097   0.46509   0.47017
 Alpha virt. eigenvalues --    0.47247   0.47834   0.47934   0.48304   0.48743
 Alpha virt. eigenvalues --    0.48999   0.49393   0.49569   0.49878   0.50557
 Alpha virt. eigenvalues --    0.50663   0.51342   0.51477   0.51970   0.52221
 Alpha virt. eigenvalues --    0.52367   0.52980   0.53281   0.54050   0.54144
 Alpha virt. eigenvalues --    0.54703   0.54806   0.55003   0.55456   0.55788
 Alpha virt. eigenvalues --    0.56035   0.56436   0.56745   0.57082   0.57441
 Alpha virt. eigenvalues --    0.57787   0.58376   0.58920   0.59169   0.59509
 Alpha virt. eigenvalues --    0.59726   0.60242   0.60500   0.60804   0.61075
 Alpha virt. eigenvalues --    0.61598   0.61730   0.62181   0.62605   0.63110
 Alpha virt. eigenvalues --    0.63492   0.63715   0.64203   0.64605   0.64995
 Alpha virt. eigenvalues --    0.65237   0.66176   0.67377   0.67759   0.68196
 Alpha virt. eigenvalues --    0.68975   0.69230   0.69519   0.69824   0.70812
 Alpha virt. eigenvalues --    0.71134   0.71319   0.71407   0.72056   0.72312
 Alpha virt. eigenvalues --    0.72646   0.72846   0.73134   0.73334   0.73447
 Alpha virt. eigenvalues --    0.74738   0.75124   0.75164   0.75752   0.76073
 Alpha virt. eigenvalues --    0.76469   0.76855   0.77016   0.77642   0.77834
 Alpha virt. eigenvalues --    0.78159   0.78533   0.78876   0.79196   0.79547
 Alpha virt. eigenvalues --    0.79592   0.79844   0.79997   0.80114   0.80420
 Alpha virt. eigenvalues --    0.80760   0.80849   0.81586   0.81902   0.82004
 Alpha virt. eigenvalues --    0.82218   0.82440   0.82596   0.82854   0.83476
 Alpha virt. eigenvalues --    0.83532   0.83631   0.84178   0.84657   0.84876
 Alpha virt. eigenvalues --    0.85006   0.85642   0.85976   0.86752   0.86903
 Alpha virt. eigenvalues --    0.86990   0.87368   0.87561   0.87722   0.88066
 Alpha virt. eigenvalues --    0.88667   0.89262   0.89594   0.89963   0.90034
 Alpha virt. eigenvalues --    0.90588   0.90788   0.91275   0.91591   0.91714
 Alpha virt. eigenvalues --    0.92126   0.92466   0.93536   0.94132   0.94428
 Alpha virt. eigenvalues --    0.95206   0.95890   0.96166   0.96758   0.97030
 Alpha virt. eigenvalues --    0.97934   0.98717   0.99544   1.00337   1.00651
 Alpha virt. eigenvalues --    1.01397   1.01650   1.02152   1.03172   1.03481
 Alpha virt. eigenvalues --    1.03954   1.04923   1.05457   1.06687   1.07101
 Alpha virt. eigenvalues --    1.07605   1.08301   1.09013   1.09789   1.10271
 Alpha virt. eigenvalues --    1.11492   1.12610   1.12828   1.13554   1.14509
 Alpha virt. eigenvalues --    1.15463   1.16102   1.17628   1.19372   1.19733
 Alpha virt. eigenvalues --    1.20462   1.21128   1.21500   1.24074   1.24782
 Alpha virt. eigenvalues --    1.25161   1.26561   1.26921   1.27969   1.28317
 Alpha virt. eigenvalues --    1.28622   1.28855   1.29790   1.30624   1.31776
 Alpha virt. eigenvalues --    1.32135   1.33264   1.34121   1.34787   1.34931
 Alpha virt. eigenvalues --    1.35257   1.36244   1.36581   1.37349   1.38160
 Alpha virt. eigenvalues --    1.38522   1.39205   1.40526   1.40733   1.41293
 Alpha virt. eigenvalues --    1.41587   1.42131   1.42923   1.44065   1.44480
 Alpha virt. eigenvalues --    1.44838   1.44934   1.45778   1.47088   1.48095
 Alpha virt. eigenvalues --    1.48644   1.50133   1.50733   1.51463   1.53280
 Alpha virt. eigenvalues --    1.53501   1.55078   1.55594   1.55989   1.56914
 Alpha virt. eigenvalues --    1.57276   1.57809   1.59629   1.60807   1.60903
 Alpha virt. eigenvalues --    1.62173   1.62594   1.63200   1.63800   1.64239
 Alpha virt. eigenvalues --    1.64997   1.65671   1.66268   1.66450   1.66995
 Alpha virt. eigenvalues --    1.67231   1.67411   1.68092   1.68389   1.68942
 Alpha virt. eigenvalues --    1.69843   1.70105   1.71157   1.71481   1.71974
 Alpha virt. eigenvalues --    1.72445   1.72759   1.73019   1.74032   1.74211
 Alpha virt. eigenvalues --    1.74610   1.75018   1.76050   1.76302   1.76849
 Alpha virt. eigenvalues --    1.77183   1.77563   1.77752   1.78222   1.78765
 Alpha virt. eigenvalues --    1.79066   1.79360   1.80925   1.81336   1.81800
 Alpha virt. eigenvalues --    1.82334   1.82794   1.84081   1.84244   1.85092
 Alpha virt. eigenvalues --    1.85205   1.85832   1.86582   1.86768   1.86955
 Alpha virt. eigenvalues --    1.87211   1.87447   1.87886   1.88642   1.88958
 Alpha virt. eigenvalues --    1.89160   1.89568   1.90327   1.90456   1.90974
 Alpha virt. eigenvalues --    1.91754   1.92410   1.93462   1.93595   1.94391
 Alpha virt. eigenvalues --    1.95439   1.95933   1.96203   1.96428   1.97019
 Alpha virt. eigenvalues --    1.97818   1.97883   1.98534   1.98813   1.98870
 Alpha virt. eigenvalues --    2.00043   2.00346   2.01141   2.01773   2.02331
 Alpha virt. eigenvalues --    2.03760   2.04308   2.04910   2.06373   2.06458
 Alpha virt. eigenvalues --    2.06695   2.08983   2.09417   2.10230   2.10615
 Alpha virt. eigenvalues --    2.11893   2.12242   2.12358   2.12744   2.14515
 Alpha virt. eigenvalues --    2.14545   2.15236   2.15436   2.15950   2.16293
 Alpha virt. eigenvalues --    2.17127   2.18534   2.19136   2.19380   2.19925
 Alpha virt. eigenvalues --    2.20291   2.21858   2.22449   2.22646   2.23678
 Alpha virt. eigenvalues --    2.24086   2.24782   2.25635   2.26459   2.27076
 Alpha virt. eigenvalues --    2.28637   2.30491   2.31331   2.31899   2.31963
 Alpha virt. eigenvalues --    2.32489   2.33525   2.33616   2.34349   2.34552
 Alpha virt. eigenvalues --    2.34748   2.35514   2.37146   2.37671   2.38243
 Alpha virt. eigenvalues --    2.38615   2.39259   2.39427   2.40141   2.41089
 Alpha virt. eigenvalues --    2.43281   2.43819   2.44219   2.44503   2.45360
 Alpha virt. eigenvalues --    2.46299   2.47704   2.49156   2.49743   2.51021
 Alpha virt. eigenvalues --    2.52109   2.52688   2.52877   2.54010   2.54550
 Alpha virt. eigenvalues --    2.55716   2.56677   2.57879   2.58406   2.59512
 Alpha virt. eigenvalues --    2.60146   2.60810   2.61362   2.61823   2.62412
 Alpha virt. eigenvalues --    2.62712   2.63771   2.65096   2.65286   2.66106
 Alpha virt. eigenvalues --    2.67756   2.68217   2.69327   2.70337   2.72430
 Alpha virt. eigenvalues --    2.72477   2.73694   2.75464   2.76695   2.77965
 Alpha virt. eigenvalues --    2.79938   2.80859   2.81790   2.82342   2.84022
 Alpha virt. eigenvalues --    2.86461   2.86697   2.87856   2.89230   2.91513
 Alpha virt. eigenvalues --    2.92533   2.93656   2.95717   2.97684   3.03129
 Alpha virt. eigenvalues --    3.05388   3.06774   3.11367   3.13105   3.15033
 Alpha virt. eigenvalues --    3.18550   3.38238   3.65301   3.70918   3.77851
 Alpha virt. eigenvalues --    3.93003   3.93428   3.95480   3.96145   3.97936
 Alpha virt. eigenvalues --    4.00701   4.01856   4.02849   4.03908   4.04913
 Alpha virt. eigenvalues --    4.06686   4.06928   4.08267   4.09302   4.15458
 Alpha virt. eigenvalues --    4.16835   4.17725   4.18866   4.20006   4.20937
 Alpha virt. eigenvalues --    4.22030   4.23493   4.28519   4.28615   4.29275
 Alpha virt. eigenvalues --    4.31712   4.34923   4.35538   4.36969   4.39860
 Alpha virt. eigenvalues --    4.41342   4.43237   4.49658   4.50661   4.50813
 Alpha virt. eigenvalues --    4.52524   4.55428   4.60143   4.61886   4.73673
          Condensed to atoms (all electrons):
 Mulliken charges:
               1
     1  N   -0.760544
     2  H    0.414328
     3  H    0.434714
     4  H    0.411069
     5  C   -0.115469
     6  H    0.216339
     7  C    0.657427
     8  C   -0.298542
     9  H    0.172400
    10  H    0.199586
    11  O   -0.547682
    12  C   -0.096339
    13  H    0.111329
    14  C   -0.448244
    15  H    0.168165
    16  H    0.158095
    17  H    0.173703
    18  C   -0.454876
    19  H    0.170763
    20  H    0.132397
    21  H    0.181989
    22  N   -0.615723
    23  H    0.378073
    24  C   -0.058700
    25  H    0.209609
    26  C    0.627199
    27  C   -0.357357
    28  H    0.176727
    29  H    0.164197
    30  O   -0.548037
    31  C    0.009482
    32  C    0.007551
    33  H    0.186135
    34  C    0.087027
    35  C    0.310983
    36  C   -0.227106
    37  H    0.139091
    38  N   -0.684761
    39  H    0.341497
    40  C   -0.148969
    41  H    0.137692
    42  C   -0.159484
    43  H    0.136891
    44  C   -0.140344
    45  H    0.126938
    46  N   -0.597711
    47  H    0.372568
    48  C   -0.090728
    49  H    0.198158
    50  C    0.621422
    51  C   -0.020197
    52  H    0.142238
    53  H    0.141629
    54  O   -0.548987
    55  O   -0.612285
    56  H    0.405097
    57  N   -0.611890
    58  H    0.359217
    59  C   -0.040234
    60  H    0.181387
    61  C    0.611872
    62  C   -0.453228
    63  H    0.169979
    64  H    0.162364
    65  H    0.179668
    66  O   -0.546226
    67  N   -0.610868
    68  H    0.358074
    69  C   -0.068283
    70  H    0.176532
    71  C    0.598315
    72  C   -0.271777
    73  H    0.157248
    74  H    0.154283
    75  O   -0.611801
    76  C   -0.268489
    77  H    0.162975
    78  H    0.139474
    79  C   -0.272718
    80  H    0.151642
    81  H    0.152221
    82  C   -0.147236
    83  H    0.146501
    84  H    0.163146
    85  N   -0.773206
    86  H    0.335691
    87  H    0.474645
    88  H    0.326672
    89  O   -0.476376
 Sum of Mulliken charges =   1.00000
 Mulliken charges with hydrogens summed into heavy atoms:
               1
     1  N    0.499567
     5  C    0.100870
     7  C    0.657427
     8  C    0.073444
    11  O   -0.547682
    12  C    0.014990
    14  C    0.051719
    18  C    0.030273
    22  N   -0.237649
    24  C    0.150909
    26  C    0.627199
    27  C   -0.016433
    30  O   -0.548037
    31  C    0.009482
    32  C    0.193686
    34  C    0.087027
    35  C    0.310983
    36  C   -0.088016
    38  N   -0.343263
    40  C   -0.011277
    42  C   -0.022593
    44  C   -0.013406
    46  N   -0.225142
    48  C    0.107430
    50  C    0.621422
    51  C    0.263670
    54  O   -0.548987
    55  O   -0.207188
    57  N   -0.252672
    59  C    0.141153
    61  C    0.611872
    62  C    0.058783
    66  O   -0.546226
    67  N   -0.252794
    69  C    0.108249
    71  C    0.598315
    72  C    0.039754
    75  O   -0.137156
    76  C    0.033959
    79  C    0.031145
    82  C    0.162412
    85  N   -0.110843
    89  O   -0.476376
 Electronic spatial extent (au):  <R**2>=          49148.2910
 Charge=              1.0000 electrons
 Dipole moment (field-independent basis, Debye):
    X=             -7.3221    Y=              3.9936    Z=             12.4277  Tot=             14.9670
 Quadrupole moment (field-independent basis, Debye-Ang):
   XX=           -127.3104   YY=           -151.6909   ZZ=           -185.2953
   XY=            -92.3104   XZ=            -47.8626   YZ=             69.0794
 Traceless Quadrupole moment (field-independent basis, Debye-Ang):
   XX=             27.4551   YY=              3.0747   ZZ=            -30.5298
   XY=            -92.3104   XZ=            -47.8626   YZ=             69.0794
 Octapole moment (field-independent basis, Debye-Ang**2):
  XXX=            332.5386  YYY=            592.4582  ZZZ=           1334.5067  XYY=             92.6815
  XXY=            -69.2445  XXZ=            496.5951  XZZ=           -550.9324  YZZ=            466.0064
  YYZ=            391.8220  XYZ=           -146.8143
 Hexadecapole moment (field-independent basis, Debye-Ang**3):
 XXXX=         -22868.8328 YYYY=         -10397.3547 ZZZZ=         -17957.9901 XXXY=           2706.6453
 XXXZ=           3970.6317 YYYX=           5262.8085 YYYZ=          -3518.8464 ZZZX=           6191.5291
 ZZZY=          -4336.3718 XXYY=          -3696.2362 XXZZ=          -8462.8121 YYZZ=          -4385.2826
 XXYZ=            222.6260 YYXZ=             16.1951 ZZXY=           2128.6502
 N-N= 5.092638508653D+03 E-N=-1.491512845049D+04  KE= 2.023443438513D+03
 Unable to Open any file for archive entry.
 1\1\GINC-AMR-126\SP\RB3LYP\6-31G(d)\C29H46N7O7(1+)\KENGMITH\28-Jun-202
 2\0\\# B3LYP/6-31G* guess=read geom=check nosymm integral(ultrafinegri
 d)\\Candidate Structure: Conf:472 Charge calc in gas phase\\1,1\N,0,-4
 .4392461411,3.7752909955,3.6697517773\H,0,-4.2546761229,4.7798655711,3
 .6089378706\H,0,-5.0483442722,3.4751377952,2.840680442\H,0,-4.90032936
 13,3.5840848466,4.5634653121\C,0,-3.2062931625,2.918704089,3.446997828
 2\H,0,-2.3371937227,3.5792595174,3.4319509587\C,0,-3.4709956861,2.3208
 45474,2.0341673171\C,0,-3.0756792858,1.8419675535,4.5344967801\H,0,-3.
 973636889,1.2086855973,4.5025868991\H,0,-2.2409051473,1.1915954493,4.2
 457632045\O,0,-4.6001731972,2.5068232786,1.5433716531\C,0,-2.836582687
 7,2.3551591751,5.9721967031\H,0,-3.6721624896,3.0181440481,6.259203188
 6\C,0,-2.8546345177,1.1648011663,6.9442433087\H,0,-2.0368525634,0.4687
 575014,6.7228483654\H,0,-3.7964559419,0.6079278721,6.8848111102\H,0,-2
 .7309170643,1.507386725,7.9762336651\C,0,-1.5308614699,3.1535566911,6.
 1028487873\H,0,-0.6675094589,2.5381084628,5.822258545\H,0,-1.515341325
 2,4.0569103785,5.4803006738\H,0,-1.3831268336,3.4773741263,7.137784177
 3\N,0,-2.4717424107,1.6564652232,1.481134873\H,0,-1.5997467773,1.44833
 22392,1.9814491701\C,0,-2.5418430425,0.9026877962,0.2267742473\H,0,-3.
 4527642851,0.2944471458,0.2329569351\C,0,-1.301082231,-0.0247434605,0.
 3005621892\C,0,-2.5690677113,1.8319330092,-1.0251255624\H,0,-3.1873288
 163,2.6981713591,-0.7618973838\H,0,-1.5574890147,2.2082585312,-1.21557
 62955\O,0,-0.5448977421,0.0523354036,1.2758187009\C,0,-3.1368331768,1.
 1733459488,-2.2491881633\C,0,-2.4543742901,0.7803845711,-3.3794721759\
 H,0,-1.3968840507,0.8167983152,-3.59822091\C,0,-4.5293226223,0.8593307
 959,-2.4792709994\C,0,-4.614346298,0.2722694245,-3.7708742005\C,0,-5.7
 072484314,1.0255774807,-1.7278518318\H,0,-5.6751655695,1.4835927836,-0
 .7423761665\N,0,-3.3344971992,0.2429054776,-4.290542973\H,0,-3.0703308
 614,-0.147297476,-5.1823521276\C,0,-6.9728878072,0.0146090788,-3.55114
 44065\H,0,-7.9319581815,-0.3062334379,-3.9473380747\C,0,-5.827455875,-
 0.1558375101,-4.3195426595\H,0,-5.8749325987,-0.6019028807,-5.30918500
 58\C,0,-6.9138309454,0.6010753309,-2.2702071661\H,0,-7.8315055387,0.72
 4176601,-1.7017694232\N,0,-1.1310345566,-0.863813757,-0.7329821384\H,0
 ,-1.710101545,-0.7602686086,-1.5624609145\C,0,-0.0260955156,-1.8056127
 593,-0.8182721472\H,0,0.6564325161,-1.5786847573,0.0043771465\C,0,0.65
 97955875,-1.6376109378,-2.1873761253\C,0,-0.5212275794,-3.2532925427,-
 0.6622437982\H,0,0.3401556384,-3.930740884,-0.7687191\H,0,-1.228663822
 6,-3.4767941223,-1.4762801346\O,0,0.0167954629,-1.26011972,-3.16916719
 56\O,0,-1.1272450366,-3.3647382289,0.6123943772\H,0,-1.4810208772,-4.2
 630121666,0.6986307303\N,0,1.964033914,-1.972421864,-2.2248201051\H,0,
 2.4639228878,-2.312972682,-1.4071424909\C,0,2.7488760324,-1.9983301649
 ,-3.450603379\H,0,2.1407138773,-2.4496424749,-4.2432330376\C,0,3.96912
 4986,-2.8918243389,-3.1558448259\C,0,3.1797605812,-0.5870724519,-3.892
 3662792\H,0,3.7580904414,-0.622634469,-4.8214384184\H,0,3.7953500656,-
 0.1155953817,-3.1193686724\H,0,2.2902129712,0.024780712,-4.0619354201\
 O,0,4.2677899869,-3.1898242804,-1.9961575421\N,0,4.662180792,-3.292176
 892,-4.241772389\H,0,4.4636077403,-2.8885942797,-5.15414101\C,0,5.9785
 805101,-3.9104751125,-4.1686317689\H,0,6.4583180704,-3.5679788493,-3.2
 462082366\C,0,6.793595368,-3.3762774983,-5.3594545626\C,0,5.9372753398
 ,-5.4617524694,-4.1846824302\H,0,5.0952061655,-5.7653934832,-4.8173063
 223\H,0,6.8391243378,-5.837935384,-4.678940105\O,0,8.0826744305,-3.694
 5318443,-5.3509258668\C,0,5.8098033283,-6.1165014877,-2.8014863078\H,0
 ,4.8811945872,-5.7888270611,-2.3213574567\H,0,5.7222356404,-7.20098301
 97,-2.9539088858\C,0,6.9732818653,-5.8513315413,-1.8261416466\H,0,6.80
 52724715,-6.4692797168,-0.935577507\H,0,6.9377713213,-4.8135208417,-1.
 4670755699\C,0,8.3834678251,-6.1579289649,-2.3582164865\H,0,9.03085970
 18,-6.4619427128,-1.5236094087\H,0,8.3515831304,-7.0027650767,-3.05623
 80554\N,0,8.9822312566,-5.0050618688,-3.0838570605\H,0,9.9079286765,-5
 .2711044369,-3.4236239093\H,0,8.3349789512,-4.2114723901,-4.5191121314
 \H,0,9.1495475148,-4.2500528081,-2.4166934343\O,0,6.2786267667,-2.7257
 52335,-6.2475302655\\Version=ES64L-G16RevC.01\HF=-2042.5032553\RMSD=7.
 152e-09\Dipole=-3.2850712,3.3771819,7.0123868\Quadrupole=20.4121948,2.
 285928,-22.6981228,-68.6305139,-35.5846569,51.3588748\PG=C01 [X(C29H46
 N7O7)]\\@
 The archive entry for this job was punched.


 IN THE UNIVERSE THE DIFFICULT THINGS ARE DONE AS IF THEY WERE EASY.

                                                          -- LAO-TSU
 Job cpu time:       0 days  0 hours  1 minutes 37.0 seconds.
 Elapsed time:       0 days  0 hours  0 minutes 24.9 seconds.
 File lengths (MBytes):  RWF=    400 Int=      0 D2E=      0 Chk=     64 Scr=     16
 Normal termination of Gaussian 16 at Tue Jun 28 00:56:29 2022.
