 Entering Gaussian System, Link 0=/opt/software/Gaussian/g16-AVX2-C.01/g16/g16
 Input=charge-conf-474.com
 Output=charge-conf-474.log
 Initial command:
 /opt/software/Gaussian/g16-AVX2-C.01/g16/l1.exe "/mnt/gs18/scratch/users/kengmith/Gau-91091.inp" -scrdir="/mnt/gs18/scratch/users/kengmith/"
 Entering Link 1 = /opt/software/Gaussian/g16-AVX2-C.01/g16/l1.exe PID=     91118.
  
 Copyright (c) 1988-2019, Gaussian, Inc.  All Rights Reserved.
  
 This is part of the Gaussian(R) 16 program.  It is based on
 the Gaussian(R) 09 system (copyright 2009, Gaussian, Inc.),
 the Gaussian(R) 03 system (copyright 2003, Gaussian, Inc.),
 the Gaussian(R) 98 system (copyright 1998, Gaussian, Inc.),
 the Gaussian(R) 94 system (copyright 1995, Gaussian, Inc.),
 the Gaussian 92(TM) system (copyright 1992, Gaussian, Inc.),
 the Gaussian 90(TM) system (copyright 1990, Gaussian, Inc.),
 the Gaussian 88(TM) system (copyright 1988, Gaussian, Inc.),
 the Gaussian 86(TM) system (copyright 1986, Carnegie Mellon
 University), and the Gaussian 82(TM) system (copyright 1983,
 Carnegie Mellon University). Gaussian is a federally registered
 trademark of Gaussian, Inc.
  
 This software contains proprietary and confidential information,
 including trade secrets, belonging to Gaussian, Inc.
  
 This software is provided under written license and may be
 used, copied, transmitted, or stored only in accord with that
 written license.
  
 The following legend is applicable only to US Government
 contracts under FAR:
  
                    RESTRICTED RIGHTS LEGEND
  
 Use, reproduction and disclosure by the US Government is
 subject to restrictions as set forth in subparagraphs (a)
 and (c) of the Commercial Computer Software - Restricted
 Rights clause in FAR 52.227-19.
  
 Gaussian, Inc.
 340 Quinnipiac St., Bldg. 40, Wallingford CT 06492
  
  
 ---------------------------------------------------------------
 Warning -- This program may not be used in any manner that
 competes with the business of Gaussian, Inc. or will provide
 assistance to any competitor of Gaussian, Inc.  The licensee
 of this program is prohibited from giving any competitor of
 Gaussian, Inc. access to this program.  By using this program,
 the user acknowledges that Gaussian, Inc. is engaged in the
 business of creating and licensing software in the field of
 computational chemistry and represents and warrants to the
 licensee that it is not a competitor of Gaussian, Inc. and that
 it will not use this program in any manner prohibited above.
 ---------------------------------------------------------------
  

 Cite this work as:
 Gaussian 16, Revision C.01,
 M. J. Frisch, G. W. Trucks, H. B. Schlegel, G. E. Scuseria, 
 M. A. Robb, J. R. Cheeseman, G. Scalmani, V. Barone, 
 G. A. Petersson, H. Nakatsuji, X. Li, M. Caricato, A. V. Marenich, 
 J. Bloino, B. G. Janesko, R. Gomperts, B. Mennucci, H. P. Hratchian, 
 J. V. Ortiz, A. F. Izmaylov, J. L. Sonnenberg, D. Williams-Young, 
 F. Ding, F. Lipparini, F. Egidi, J. Goings, B. Peng, A. Petrone, 
 T. Henderson, D. Ranasinghe, V. G. Zakrzewski, J. Gao, N. Rega, 
 G. Zheng, W. Liang, M. Hada, M. Ehara, K. Toyota, R. Fukuda, 
 J. Hasegawa, M. Ishida, T. Nakajima, Y. Honda, O. Kitao, H. Nakai, 
 T. Vreven, K. Throssell, J. A. Montgomery, Jr., J. E. Peralta, 
 F. Ogliaro, M. J. Bearpark, J. J. Heyd, E. N. Brothers, K. N. Kudin, 
 V. N. Staroverov, T. A. Keith, R. Kobayashi, J. Normand, 
 K. Raghavachari, A. P. Rendell, J. C. Burant, S. S. Iyengar, 
 J. Tomasi, M. Cossi, J. M. Millam, M. Klene, C. Adamo, R. Cammi, 
 J. W. Ochterski, R. L. Martin, K. Morokuma, O. Farkas, 
 J. B. Foresman, and D. J. Fox, Gaussian, Inc., Wallingford CT, 2019.
 
 ******************************************
 Gaussian 16:  ES64L-G16RevC.01  3-Jul-2019
                28-Jun-2022 
 ******************************************
 %mem=8gb
 %nproc=4
 Will use up to    4 processors via shared memory.
 %chk=conf-474.chk
 -------------------------------------------------------------------
 # B3LYP/6-31G* guess=read geom=check nosymm integral(ultrafinegrid)
 -------------------------------------------------------------------
 1/29=2,38=1,172=1/1;
 2/12=2,15=1,40=1/2;
 3/5=1,6=6,7=1,11=2,14=-4,25=1,30=1,74=-5,75=-5,116=-2/1,2,3;
 4/5=1/1;
 5/5=2,38=6/2;
 6/7=2,8=2,9=2,10=2,28=1/1;
 99/5=1,9=1/99;
 ------------------------------------------------------
 Candidate Structure: Conf:474 Charge calc in gas phase
 ------------------------------------------------------
 Structure from the checkpoint file:  "conf-474.chk"
 Charge =  1 Multiplicity = 1
 Redundant internal coordinates found in file.  (old form).
 N,0,-5.9088065184,2.9917978325,1.5867800892
 H,0,-6.3590902428,3.3473528989,0.738652611
 H,0,-5.9043966499,1.9231500738,1.553567564
 H,0,-6.4195519533,3.3414953717,2.4020326767
 C,0,-4.4187810891,3.2861857762,1.645357256
 H,0,-4.2026367603,4.0821310751,0.930673919
 C,0,-3.8122623047,1.9260459814,1.1953962046
 C,0,-4.0394477333,3.6973816061,3.0815199651
 H,0,-4.7020569156,4.5250703264,3.376728507
 H,0,-4.2571614273,2.8519715965,3.7484064315
 O,0,-4.5636721114,0.9338695122,1.2341372613
 C,0,-2.5790991986,4.1590597577,3.2965388355
 H,0,-1.9050402089,3.3384112773,3.0218178643
 C,0,-2.2204212029,5.3873561632,2.445579833
 H,0,-2.8838438177,6.2326205113,2.6695531988
 H,0,-2.2711166061,5.1949499268,1.3664445217
 H,0,-1.1950441718,5.7049515699,2.6567039588
 C,0,-2.3675997194,4.4503678469,4.790775267
 H,0,-3.0063818619,5.2756765791,5.1294808674
 H,0,-2.590092355,3.5732426487,5.4089412164
 H,0,-1.3281670264,4.7360356916,4.9790886145
 N,0,-2.5469742617,1.9286043166,0.811682713
 H,0,-1.9432790614,2.7509130529,0.9093582413
 C,0,-1.7659955206,0.729733216,0.4975025646
 H,0,-1.9920246948,-0.035403421,1.2475084739
 C,0,-0.3001513305,1.2004532888,0.658726999
 C,0,-2.0908693271,0.1696581764,-0.9163731855
 H,0,-3.1708462383,0.2885912424,-1.0648704563
 H,0,-1.5907936076,0.793681822,-1.66377795
 O,0,-0.070885715,2.36350283,1.0125231476
 C,0,-1.701528366,-1.2742292387,-1.100774236
 C,0,-2.1554222091,-2.3419079556,-0.3561959497
 H,0,-2.828077341,-2.3599319632,0.4913073825
 C,0,-0.8612296517,-1.8293259726,-2.1385897738
 C,0,-0.853700207,-3.2392565235,-1.9591686451
 C,0,-0.1237590457,-1.2766729611,-3.2022801714
 H,0,-0.0818403545,-0.2023432984,-3.349698004
 N,0,-1.649327363,-3.5163753933,-0.8654798554
 H,0,-1.8158343824,-4.4346396948,-0.4830535722
 C,0,0.5652638078,-3.5276440391,-3.8477885813
 H,0,1.1235466186,-4.1669406341,-4.5258593998
 C,0,-0.1442627662,-4.1016218332,-2.8019700928
 H,0,-0.150236073,-5.176925741,-2.6463031469
 C,0,0.5752818632,-2.1301696352,-4.0441105986
 H,0,1.1429781167,-1.7157317422,-4.8722173819
 N,0,0.6548584355,0.2863350155,0.4228058335
 H,0,0.4045044718,-0.5801097511,-0.0495800894
 C,0,2.0440007744,0.6822794726,0.2786006003
 H,0,2.284739725,1.4046682311,1.0659440617
 C,0,2.2445875053,1.3520016871,-1.1047985484
 C,0,2.9195803117,-0.5830672502,0.4271741538
 H,0,2.7180644236,-1.0228913132,1.4098624974
 H,0,3.9849464362,-0.3130937846,0.4009960608
 O,0,1.3362657069,1.4596668569,-1.9169181236
 O,0,2.5941407842,-1.5474678347,-0.5432080296
 H,0,3.0570755334,-1.2980311713,-1.3698436283
 N,0,3.5150589447,1.8068817626,-1.3393129723
 H,0,4.2256777818,1.5070930912,-0.6827108763
 C,0,3.9899767132,1.9703429221,-2.7041079358
 H,0,3.1387199935,2.3394811305,-3.2840471856
 C,0,4.3848135291,0.5772105567,-3.2706983866
 C,0,5.1401213876,2.9858836458,-2.7519617942
 H,0,5.4712970657,3.1772688208,-3.7767461259
 H,0,6.0083459816,2.6285456374,-2.1856878889
 H,0,4.8123773117,3.9351859459,-2.3190992938
 O,0,4.2646913542,-0.4541718375,-2.6007792843
 N,0,4.871109606,0.5747045328,-4.5261414755
 H,0,4.9821521093,1.4328675235,-5.055676469
 C,0,5.3680992871,-0.6168591553,-5.2014974332
 H,0,5.8478310379,-1.266396699,-4.466245173
 C,0,6.38893317,-0.1733542893,-6.2400176836
 C,0,4.2157773133,-1.4032359991,-5.9073660789
 H,0,3.6740324902,-1.93081778,-5.1157235631
 H,0,3.5214216722,-0.6637368481,-6.3262531205
 O,0,7.259548054,-1.1326321072,-6.5156399023
 C,0,4.650717302,-2.3873955974,-7.0184307044
 H,0,5.5969165832,-2.8584957294,-6.7357720203
 H,0,3.9114112944,-3.1950910625,-7.0702758202
 C,0,4.7686978124,-1.7370329547,-8.4277274235
 H,0,4.8442966084,-0.6461216578,-8.3393510023
 H,0,3.8336240097,-1.9174002922,-8.9710231466
 C,0,5.935833594,-2.2260813927,-9.3106989523
 H,0,6.197964811,-3.259808958,-9.0599113921
 H,0,5.6282706439,-2.2212584637,-10.3654602718
 N,0,7.1598316206,-1.400498338,-9.1258323996
 H,0,7.9394017654,-1.806029845,-9.6426237663
 H,0,7.0069462666,-0.4697515119,-9.5152993517
 H,0,7.4625429122,-1.1283195034,-7.5280959822
 O,0,6.3106014604,0.9072363132,-6.8056223761
 Recover connectivity data from disk.
                           ----------------------------
                           !    Current Parameters    !
                           ! (Angstroms and Degrees)  !
 --------------------------                            --------------------------
 ! Name  Definition              Value                                          !
 --------------------------------------------------------------------------------
 ! R1    R(1,2)                  1.024                                          !
 ! R2    R(1,3)                  1.0692                                         !
 ! R3    R(1,4)                  1.0236                                         !
 ! R4    R(1,5)                  1.52                                           !
 ! R5    R(5,6)                  1.0913                                         !
 ! R6    R(5,7)                  1.5557                                         !
 ! R7    R(5,8)                  1.5413                                         !
 ! R8    R(7,11)                 1.2452                                         !
 ! R9    R(7,22)                 1.3222                                         !
 ! R10   R(8,9)                  1.1006                                         !
 ! R11   R(8,10)                 1.0986                                         !
 ! R12   R(8,12)                 1.5466                                         !
 ! R13   R(12,13)                1.0969                                         !
 ! R14   R(12,14)                1.5367                                         !
 ! R15   R(12,18)                1.537                                          !
 ! R16   R(14,15)                1.0976                                         !
 ! R17   R(14,16)                1.0973                                         !
 ! R18   R(14,17)                1.094                                          !
 ! R19   R(18,19)                1.0972                                         !
 ! R20   R(18,20)                1.0959                                         !
 ! R21   R(18,21)                1.0943                                         !
 ! R22   R(22,23)                1.0248                                         !
 ! R23   R(22,24)                1.4649                                         !
 ! R24   R(24,25)                1.095                                          !
 ! R25   R(24,26)                1.548                                          !
 ! R26   R(24,27)                1.5551                                         !
 ! R27   R(26,30)                1.2371                                         !
 ! R28   R(26,46)                1.3429                                         !
 ! R29   R(27,28)                1.0966                                         !
 ! R30   R(27,29)                1.0946                                         !
 ! R31   R(27,31)                1.5068                                         !
 ! R32   R(31,32)                1.3785                                         !
 ! R33   R(31,34)                1.4461                                         !
 ! R34   R(32,33)                1.0822                                         !
 ! R35   R(32,38)                1.3765                                         !
 ! R36   R(34,35)                1.4213                                         !
 ! R37   R(34,36)                1.4074                                         !
 ! R38   R(35,38)                1.3806                                         !
 ! R39   R(35,42)                1.399                                          !
 ! R40   R(36,37)                1.0852                                         !
 ! R41   R(36,44)                1.3877                                         !
 ! R42   R(38,39)                1.0086                                         !
 ! R43   R(40,41)                1.0864                                         !
 ! R44   R(40,42)                1.388                                          !
 ! R45   R(40,44)                1.4112                                         !
 ! R46   R(42,43)                1.0865                                         !
 ! R47   R(44,45)                1.0862                                         !
 ! R48   R(46,47)                1.0181                                         !
 ! R49   R(46,48)                1.4516                                         !
 ! R50   R(48,49)                1.0953                                         !
 ! R51   R(48,50)                1.55                                           !
 ! R52   R(48,51)                1.5459                                         !
 ! R53   R(50,54)                1.2232                                         !
 ! R54   R(50,57)                1.3697                                         !
 ! R55   R(51,52)                1.0953                                         !
 ! R56   R(51,53)                1.0994                                         !
 ! R57   R(51,55)                1.4063                                         !
 ! R58   R(55,56)                0.9797                                         !
 ! R59   R(57,58)                1.0129                                         !
 ! R60   R(57,59)                1.4543                                         !
 ! R61   R(59,60)                1.0942                                         !
 ! R62   R(59,61)                1.5549                                         !
 ! R63   R(59,62)                1.5351                                         !
 ! R64   R(61,66)                1.2357                                         !
 ! R65   R(61,67)                1.3463                                         !
 ! R66   R(62,63)                1.0938                                         !
 ! R67   R(62,64)                1.0964                                         !
 ! R68   R(62,65)                1.0936                                         !
 ! R69   R(67,68)                1.0145                                         !
 ! R70   R(67,69)                1.457                                          !
 ! R71   R(69,70)                1.0921                                         !
 ! R72   R(69,71)                1.5223                                         !
 ! R73   R(69,72)                1.5635                                         !
 ! R74   R(71,75)                1.3244                                         !
 ! R75   R(71,89)                1.2222                                         !
 ! R76   R(72,73)                1.0948                                         !
 ! R77   R(72,74)                1.0975                                         !
 ! R78   R(72,76)                1.5467                                         !
 ! R79   R(76,77)                1.0941                                         !
 ! R80   R(76,78)                1.0962                                         !
 ! R81   R(76,79)                1.5566                                         !
 ! R82   R(79,80)                1.0971                                         !
 ! R83   R(79,81)                1.0964                                         !
 ! R84   R(79,82)                1.5431                                         !
 ! R85   R(82,83)                1.0955                                         !
 ! R86   R(82,84)                1.0987                                         !
 ! R87   R(82,85)                1.4879                                         !
 ! R88   R(85,86)                1.0194                                         !
 ! R89   R(85,87)                1.0205                                         !
 ! R90   R(85,88)                1.6488                                         !
 ! A1    A(2,1,3)              108.8535                                         !
 ! A2    A(2,1,4)              108.762                                          !
 ! A3    A(2,1,5)              113.3131                                         !
 ! A4    A(3,1,4)              111.6084                                         !
 ! A5    A(3,1,5)              100.996                                          !
 ! A6    A(4,1,5)              113.0962                                         !
 ! A7    A(1,5,6)              108.0697                                         !
 ! A8    A(1,5,7)              101.6367                                         !
 ! A9    A(1,5,8)              109.1991                                         !
 ! A10   A(6,5,7)              111.7782                                         !
 ! A11   A(6,5,8)              111.5236                                         !
 ! A12   A(7,5,8)              114.0038                                         !
 ! A13   A(5,7,11)             116.8955                                         !
 ! A14   A(5,7,22)             117.0859                                         !
 ! A15   A(11,7,22)            126.0182                                         !
 ! A16   A(5,8,9)              107.6018                                         !
 ! A17   A(5,8,10)             108.1536                                         !
 ! A18   A(5,8,12)             116.2043                                         !
 ! A19   A(9,8,10)             107.2535                                         !
 ! A20   A(9,8,12)             107.86                                           !
 ! A21   A(10,8,12)            109.4176                                         !
 ! A22   A(8,12,13)            108.7885                                         !
 ! A23   A(8,12,14)            112.4577                                         !
 ! A24   A(8,12,18)            108.7638                                         !
 ! A25   A(13,12,14)           108.4131                                         !
 ! A26   A(13,12,18)           107.5003                                         !
 ! A27   A(14,12,18)           110.7774                                         !
 ! A28   A(12,14,15)           111.19                                           !
 ! A29   A(12,14,16)           113.1811                                         !
 ! A30   A(12,14,17)           110.1172                                         !
 ! A31   A(15,14,16)           107.9253                                         !
 ! A32   A(15,14,17)           107.6719                                         !
 ! A33   A(16,14,17)           106.4984                                         !
 ! A34   A(12,18,19)           111.2573                                         !
 ! A35   A(12,18,20)           111.6386                                         !
 ! A36   A(12,18,21)           110.3335                                         !
 ! A37   A(19,18,20)           108.0413                                         !
 ! A38   A(19,18,21)           107.6687                                         !
 ! A39   A(20,18,21)           107.741                                          !
 ! A40   A(7,22,23)            122.5227                                         !
 ! A41   A(7,22,24)            124.8089                                         !
 ! A42   A(23,22,24)           111.2895                                         !
 ! A43   A(22,24,25)           108.3555                                         !
 ! A44   A(22,24,26)           103.5113                                         !
 ! A45   A(22,24,27)           112.233                                          !
 ! A46   A(25,24,26)           109.6704                                         !
 ! A47   A(25,24,27)           109.1448                                         !
 ! A48   A(26,24,27)           113.7056                                         !
 ! A49   A(24,26,30)           119.4168                                         !
 ! A50   A(24,26,46)           116.6241                                         !
 ! A51   A(30,26,46)           123.9464                                         !
 ! A52   A(24,27,28)           106.8461                                         !
 ! A53   A(24,27,29)           108.666                                          !
 ! A54   A(24,27,31)           113.729                                          !
 ! A55   A(28,27,29)           107.1961                                         !
 ! A56   A(28,27,31)           109.9884                                         !
 ! A57   A(29,27,31)           110.163                                          !
 ! A58   A(27,31,32)           126.2277                                         !
 ! A59   A(27,31,34)           127.2861                                         !
 ! A60   A(32,31,34)           106.3586                                         !
 ! A61   A(31,32,33)           129.8343                                         !
 ! A62   A(31,32,38)           109.8721                                         !
 ! A63   A(33,32,38)           120.2697                                         !
 ! A64   A(31,34,35)           107.0532                                         !
 ! A65   A(31,34,36)           134.1185                                         !
 ! A66   A(35,34,36)           118.827                                          !
 ! A67   A(34,35,38)           107.2217                                         !
 ! A68   A(34,35,42)           122.5545                                         !
 ! A69   A(38,35,42)           130.2216                                         !
 ! A70   A(34,36,37)           120.7742                                         !
 ! A71   A(34,36,44)           118.7459                                         !
 ! A72   A(37,36,44)           120.4644                                         !
 ! A73   A(32,38,35)           109.4943                                         !
 ! A74   A(32,38,39)           125.1579                                         !
 ! A75   A(35,38,39)           125.3304                                         !
 ! A76   A(41,40,42)           119.3166                                         !
 ! A77   A(41,40,44)           119.4895                                         !
 ! A78   A(42,40,44)           121.1938                                         !
 ! A79   A(35,42,40)           117.272                                          !
 ! A80   A(35,42,43)           121.3951                                         !
 ! A81   A(40,42,43)           121.3327                                         !
 ! A82   A(36,44,40)           121.404                                          !
 ! A83   A(36,44,45)           119.4128                                         !
 ! A84   A(40,44,45)           119.1832                                         !
 ! A85   A(26,46,47)           119.0747                                         !
 ! A86   A(26,46,48)           120.8191                                         !
 ! A87   A(47,46,48)           114.9194                                         !
 ! A88   A(46,48,49)           108.5908                                         !
 ! A89   A(46,48,50)           109.2899                                         !
 ! A90   A(46,48,51)           108.0109                                         !
 ! A91   A(49,48,50)           109.1566                                         !
 ! A92   A(49,48,51)           110.2589                                         !
 ! A93   A(50,48,51)           111.4778                                         !
 ! A94   A(48,50,54)           122.3102                                         !
 ! A95   A(48,50,57)           114.6041                                         !
 ! A96   A(54,50,57)           123.0857                                         !
 ! A97   A(48,51,52)           108.1011                                         !
 ! A98   A(48,51,53)           110.2173                                         !
 ! A99   A(48,51,55)           111.3419                                         !
 ! A100  A(52,51,53)           107.3534                                         !
 ! A101  A(52,51,55)           107.5253                                         !
 ! A102  A(53,51,55)           112.1012                                         !
 ! A103  A(51,55,56)           107.3534                                         !
 ! A104  A(50,57,58)           116.1975                                         !
 ! A105  A(50,57,59)           120.0612                                         !
 ! A106  A(58,57,59)           114.3625                                         !
 ! A107  A(57,59,60)           106.3357                                         !
 ! A108  A(57,59,61)           108.9162                                         !
 ! A109  A(57,59,62)           110.3829                                         !
 ! A110  A(60,59,61)           107.8595                                         !
 ! A111  A(60,59,62)           110.0715                                         !
 ! A112  A(61,59,62)           113.0239                                         !
 ! A113  A(59,61,66)           121.7073                                         !
 ! A114  A(59,61,67)           115.6692                                         !
 ! A115  A(66,61,67)           122.6218                                         !
 ! A116  A(59,62,63)           111.8267                                         !
 ! A117  A(59,62,64)           111.1979                                         !
 ! A118  A(59,62,65)           109.7177                                         !
 ! A119  A(63,62,64)           107.526                                          !
 ! A120  A(63,62,65)           108.0401                                         !
 ! A121  A(64,62,65)           108.4089                                         !
 ! A122  A(61,67,68)           121.6477                                         !
 ! A123  A(61,67,69)           123.8451                                         !
 ! A124  A(68,67,69)           114.3626                                         !
 ! A125  A(67,69,70)           108.9158                                         !
 ! A126  A(67,69,71)           107.8602                                         !
 ! A127  A(67,69,72)           111.6659                                         !
 ! A128  A(70,69,71)           109.7556                                         !
 ! A129  A(70,69,72)           109.182                                          !
 ! A130  A(71,69,72)           109.4375                                         !
 ! A131  A(69,71,75)           111.8247                                         !
 ! A132  A(69,71,89)           122.0278                                         !
 ! A133  A(75,71,89)           125.888                                          !
 ! A134  A(69,72,73)           106.2979                                         !
 ! A135  A(69,72,74)           107.4404                                         !
 ! A136  A(69,72,76)           115.9189                                         !
 ! A137  A(73,72,74)           106.7165                                         !
 ! A138  A(73,72,76)           110.6075                                         !
 ! A139  A(74,72,76)           109.4198                                         !
 ! A140  A(72,76,77)           109.3648                                         !
 ! A141  A(72,76,78)           108.2499                                         !
 ! A142  A(72,76,79)           113.9435                                         !
 ! A143  A(77,76,78)           106.1535                                         !
 ! A144  A(77,76,79)           110.3799                                         !
 ! A145  A(78,76,79)           108.4301                                         !
 ! A146  A(76,79,80)           110.3495                                         !
 ! A147  A(76,79,81)           108.3767                                         !
 ! A148  A(76,79,82)           116.2944                                         !
 ! A149  A(80,79,81)           105.2049                                         !
 ! A150  A(80,79,82)           108.0065                                         !
 ! A151  A(81,79,82)           108.023                                          !
 ! A152  A(79,82,83)           110.4288                                         !
 ! A153  A(79,82,84)           109.6463                                         !
 ! A154  A(79,82,85)           112.0407                                         !
 ! A155  A(83,82,84)           106.911                                          !
 ! A156  A(83,82,85)           107.3542                                         !
 ! A157  A(84,82,85)           110.3112                                         !
 ! A158  A(82,85,86)           110.2035                                         !
 ! A159  A(82,85,87)           109.5974                                         !
 ! A160  A(82,85,88)           111.2859                                         !
 ! A161  A(86,85,87)           106.4941                                         !
 ! A162  A(86,85,88)           114.6146                                         !
 ! A163  A(87,85,88)           104.2872                                         !
 ! D1    D(2,1,5,6)             17.7882                                         !
 ! D2    D(2,1,5,7)            -99.9637                                         !
 ! D3    D(2,1,5,8)            139.2721                                         !
 ! D4    D(3,1,5,6)            134.0321                                         !
 ! D5    D(3,1,5,7)             16.2802                                         !
 ! D6    D(3,1,5,8)           -104.484                                          !
 ! D7    D(4,1,5,6)           -106.5812                                         !
 ! D8    D(4,1,5,7)            135.6669                                         !
 ! D9    D(4,1,5,8)             14.9027                                         !
 ! D10   D(1,5,7,11)           -16.8659                                         !
 ! D11   D(1,5,7,22)           163.3502                                         !
 ! D12   D(6,5,7,11)          -131.9091                                         !
 ! D13   D(6,5,7,22)            48.307                                          !
 ! D14   D(8,5,7,11)           100.4724                                         !
 ! D15   D(8,5,7,22)           -79.3115                                         !
 ! D16   D(1,5,8,9)            -53.6416                                         !
 ! D17   D(1,5,8,10)            61.9206                                         !
 ! D18   D(1,5,8,12)          -174.6224                                         !
 ! D19   D(6,5,8,9)             65.725                                          !
 ! D20   D(6,5,8,10)          -178.7128                                         !
 ! D21   D(6,5,8,12)           -55.2558                                         !
 ! D22   D(7,5,8,9)           -166.5258                                         !
 ! D23   D(7,5,8,10)           -50.9635                                         !
 ! D24   D(7,5,8,12)            72.4935                                         !
 ! D25   D(5,7,22,23)            7.5246                                         !
 ! D26   D(5,7,22,24)          172.9369                                         !
 ! D27   D(11,7,22,23)        -172.2371                                         !
 ! D28   D(11,7,22,24)          -6.8248                                         !
 ! D29   D(5,8,12,13)          -60.0601                                         !
 ! D30   D(5,8,12,14)           60.0489                                         !
 ! D31   D(5,8,12,18)         -176.8705                                         !
 ! D32   D(9,8,12,13)          179.097                                          !
 ! D33   D(9,8,12,14)          -60.794                                          !
 ! D34   D(9,8,12,18)           62.2866                                         !
 ! D35   D(10,8,12,13)          62.7381                                         !
 ! D36   D(10,8,12,14)        -177.153                                          !
 ! D37   D(10,8,12,18)         -54.0724                                         !
 ! D38   D(8,12,14,15)          58.4754                                         !
 ! D39   D(8,12,14,16)         -63.1991                                         !
 ! D40   D(8,12,14,17)         177.7328                                         !
 ! D41   D(13,12,14,15)        178.8013                                         !
 ! D42   D(13,12,14,16)         57.1268                                         !
 ! D43   D(13,12,14,17)        -61.9414                                         !
 ! D44   D(18,12,14,15)        -63.4696                                         !
 ! D45   D(18,12,14,16)        174.856                                          !
 ! D46   D(18,12,14,17)         55.7878                                         !
 ! D47   D(8,12,18,19)         -63.1261                                         !
 ! D48   D(8,12,18,20)          57.6601                                         !
 ! D49   D(8,12,18,21)         177.4362                                         !
 ! D50   D(13,12,18,19)        179.2428                                         !
 ! D51   D(13,12,18,20)        -59.971                                          !
 ! D52   D(13,12,18,21)         59.8051                                         !
 ! D53   D(14,12,18,19)         60.9574                                         !
 ! D54   D(14,12,18,20)       -178.2563                                         !
 ! D55   D(14,12,18,21)        -58.4802                                         !
 ! D56   D(7,22,24,25)         -42.1861                                         !
 ! D57   D(7,22,24,26)        -158.5757                                         !
 ! D58   D(7,22,24,27)          78.4055                                         !
 ! D59   D(23,22,24,25)        124.6394                                         !
 ! D60   D(23,22,24,26)          8.2498                                         !
 ! D61   D(23,22,24,27)       -114.769                                          !
 ! D62   D(22,24,26,30)          1.4308                                         !
 ! D63   D(22,24,26,46)       -179.8139                                         !
 ! D64   D(25,24,26,30)       -114.0266                                         !
 ! D65   D(25,24,26,46)         64.7286                                         !
 ! D66   D(27,24,26,30)        123.4709                                         !
 ! D67   D(27,24,26,46)        -57.7739                                         !
 ! D68   D(22,24,27,28)        -38.3879                                         !
 ! D69   D(22,24,27,29)         76.9743                                         !
 ! D70   D(22,24,27,31)       -159.9377                                         !
 ! D71   D(25,24,27,28)         81.7463                                         !
 ! D72   D(25,24,27,29)       -162.8915                                         !
 ! D73   D(25,24,27,31)        -39.8035                                         !
 ! D74   D(26,24,27,28)       -155.4622                                         !
 ! D75   D(26,24,27,29)        -40.1                                            !
 ! D76   D(26,24,27,31)         82.988                                          !
 ! D77   D(24,26,46,47)         14.1128                                         !
 ! D78   D(24,26,46,48)        167.3739                                         !
 ! D79   D(30,26,46,47)       -167.1943                                         !
 ! D80   D(30,26,46,48)        -13.9332                                         !
 ! D81   D(24,27,31,32)         58.925                                          !
 ! D82   D(24,27,31,34)       -125.7519                                         !
 ! D83   D(28,27,31,32)        -60.86                                           !
 ! D84   D(28,27,31,34)        114.4632                                         !
 ! D85   D(29,27,31,32)       -178.8097                                         !
 ! D86   D(29,27,31,34)         -3.4865                                         !
 ! D87   D(27,31,32,33)         -1.9927                                         !
 ! D88   D(27,31,32,38)        176.196                                          !
 ! D89   D(34,31,32,33)       -178.1161                                         !
 ! D90   D(34,31,32,38)          0.0727                                         !
 ! D91   D(27,31,34,35)       -176.0615                                         !
 ! D92   D(27,31,34,36)          3.4887                                         !
 ! D93   D(32,31,34,35)          0.0079                                         !
 ! D94   D(32,31,34,36)        179.5582                                         !
 ! D95   D(31,32,38,35)         -0.1294                                         !
 ! D96   D(31,32,38,39)        178.4189                                         !
 ! D97   D(33,32,38,35)        178.2602                                         !
 ! D98   D(33,32,38,39)         -3.1914                                         !
 ! D99   D(31,34,35,38)         -0.0841                                         !
 ! D100  D(31,34,35,42)        179.431                                          !
 ! D101  D(36,34,35,38)       -179.7156                                         !
 ! D102  D(36,34,35,42)         -0.2005                                         !
 ! D103  D(31,34,36,37)          2.4397                                         !
 ! D104  D(31,34,36,44)       -178.9843                                         !
 ! D105  D(35,34,36,37)       -178.051                                          !
 ! D106  D(35,34,36,44)          0.5249                                         !
 ! D107  D(34,35,38,32)          0.1308                                         !
 ! D108  D(34,35,38,39)       -178.4145                                         !
 ! D109  D(42,35,38,32)       -179.3339                                         !
 ! D110  D(42,35,38,39)          2.1208                                         !
 ! D111  D(34,35,42,40)         -0.2684                                         !
 ! D112  D(34,35,42,43)        179.8903                                         !
 ! D113  D(38,35,42,40)        179.125                                          !
 ! D114  D(38,35,42,43)         -0.7163                                         !
 ! D115  D(34,36,44,40)         -0.3927                                         !
 ! D116  D(34,36,44,45)        179.6186                                         !
 ! D117  D(37,36,44,40)        178.1878                                         !
 ! D118  D(37,36,44,45)         -1.8009                                         !
 ! D119  D(41,40,42,35)       -179.6685                                         !
 ! D120  D(41,40,42,43)          0.1729                                         !
 ! D121  D(44,40,42,35)          0.4121                                         !
 ! D122  D(44,40,42,43)       -179.7465                                         !
 ! D123  D(41,40,44,36)        179.9923                                         !
 ! D124  D(41,40,44,45)         -0.019                                          !
 ! D125  D(42,40,44,36)         -0.0884                                         !
 ! D126  D(42,40,44,45)        179.9003                                         !
 ! D127  D(26,46,48,49)         44.3295                                         !
 ! D128  D(26,46,48,50)        -74.6526                                         !
 ! D129  D(26,46,48,51)        163.901                                          !
 ! D130  D(47,46,48,49)       -161.3666                                         !
 ! D131  D(47,46,48,50)         79.6514                                         !
 ! D132  D(47,46,48,51)        -41.795                                          !
 ! D133  D(46,48,50,54)         -2.0216                                         !
 ! D134  D(46,48,50,57)        178.0878                                         !
 ! D135  D(49,48,50,54)       -120.6518                                         !
 ! D136  D(49,48,50,57)         59.4575                                         !
 ! D137  D(51,48,50,54)        117.3023                                         !
 ! D138  D(51,48,50,57)        -62.5884                                         !
 ! D139  D(46,48,51,52)        -58.6139                                         !
 ! D140  D(46,48,51,53)       -175.6643                                         !
 ! D141  D(46,48,51,55)         59.2809                                         !
 ! D142  D(49,48,51,52)         59.8983                                         !
 ! D143  D(49,48,51,53)        -57.1522                                         !
 ! D144  D(49,48,51,55)        177.793                                          !
 ! D145  D(50,48,51,52)       -178.6945                                         !
 ! D146  D(50,48,51,53)         64.2551                                         !
 ! D147  D(50,48,51,55)        -60.7997                                         !
 ! D148  D(48,50,57,58)         11.4947                                         !
 ! D149  D(48,50,57,59)        156.1755                                         !
 ! D150  D(54,50,57,58)       -168.395                                          !
 ! D151  D(54,50,57,59)        -23.7142                                         !
 ! D152  D(48,51,55,56)         81.5652                                         !
 ! D153  D(52,51,55,56)       -160.1931                                         !
 ! D154  D(53,51,55,56)        -42.4295                                         !
 ! D155  D(50,57,59,60)         37.4072                                         !
 ! D156  D(50,57,59,61)        -78.5866                                         !
 ! D157  D(50,57,59,62)        156.7754                                         !
 ! D158  D(58,57,59,60)       -177.3047                                         !
 ! D159  D(58,57,59,61)         66.7015                                         !
 ! D160  D(58,57,59,62)        -57.9365                                         !
 ! D161  D(57,59,61,66)          0.7975                                         !
 ! D162  D(57,59,61,67)       -178.7347                                         !
 ! D163  D(60,59,61,66)       -114.2136                                         !
 ! D164  D(60,59,61,67)         66.2541                                         !
 ! D165  D(62,59,61,66)        123.8684                                         !
 ! D166  D(62,59,61,67)        -55.6638                                         !
 ! D167  D(57,59,62,63)       -176.1889                                         !
 ! D168  D(57,59,62,64)         63.5947                                         !
 ! D169  D(57,59,62,65)        -56.3265                                         !
 ! D170  D(60,59,62,63)        -59.1101                                         !
 ! D171  D(60,59,62,64)       -179.3265                                         !
 ! D172  D(60,59,62,65)         60.7522                                         !
 ! D173  D(61,59,62,63)         61.5572                                         !
 ! D174  D(61,59,62,64)        -58.6592                                         !
 ! D175  D(61,59,62,65)       -178.5805                                         !
 ! D176  D(59,61,67,68)          0.871                                          !
 ! D177  D(59,61,67,69)        176.2504                                         !
 ! D178  D(66,61,67,68)       -178.6565                                         !
 ! D179  D(66,61,67,69)         -3.2771                                         !
 ! D180  D(61,67,69,70)        -34.3619                                         !
 ! D181  D(61,67,69,71)       -153.428                                          !
 ! D182  D(61,67,69,72)         86.2929                                         !
 ! D183  D(68,67,69,70)        141.3207                                         !
 ! D184  D(68,67,69,71)         22.2546                                         !
 ! D185  D(68,67,69,72)        -98.0245                                         !
 ! D186  D(67,69,71,75)        154.7225                                         !
 ! D187  D(67,69,71,89)        -30.8079                                         !
 ! D188  D(70,69,71,75)         36.1925                                         !
 ! D189  D(70,69,71,89)       -149.3379                                         !
 ! D190  D(72,69,71,75)        -83.6064                                         !
 ! D191  D(72,69,71,89)         90.8631                                         !
 ! D192  D(67,69,72,73)        -76.1543                                         !
 ! D193  D(67,69,72,74)         37.7978                                         !
 ! D194  D(67,69,72,76)        160.4922                                         !
 ! D195  D(70,69,72,73)         44.345                                          !
 ! D196  D(70,69,72,74)        158.2971                                         !
 ! D197  D(70,69,72,76)        -79.0085                                         !
 ! D198  D(71,69,72,73)        164.4956                                         !
 ! D199  D(71,69,72,74)        -81.5524                                         !
 ! D200  D(71,69,72,76)         41.1421                                         !
 ! D201  D(69,72,76,77)         36.468                                          !
 ! D202  D(69,72,76,78)        151.7079                                         !
 ! D203  D(69,72,76,79)        -87.5843                                         !
 ! D204  D(73,72,76,77)        -84.6022                                         !
 ! D205  D(73,72,76,78)         30.6376                                         !
 ! D206  D(73,72,76,79)        151.3455                                         !
 ! D207  D(74,72,76,77)        158.1137                                         !
 ! D208  D(74,72,76,78)        -86.6465                                         !
 ! D209  D(74,72,76,79)         34.0614                                         !
 ! D210  D(72,76,79,80)         18.5601                                         !
 ! D211  D(72,76,79,81)        -96.1466                                         !
 ! D212  D(72,76,79,82)        141.9967                                         !
 ! D213  D(77,76,79,80)       -104.9437                                         !
 ! D214  D(77,76,79,81)        140.3496                                         !
 ! D215  D(77,76,79,82)         18.493                                          !
 ! D216  D(78,76,79,80)        139.1671                                         !
 ! D217  D(78,76,79,81)         24.4604                                         !
 ! D218  D(78,76,79,82)        -97.3962                                         !
 ! D219  D(76,79,82,83)         28.5509                                         !
 ! D220  D(76,79,82,84)        146.1036                                         !
 ! D221  D(76,79,82,85)        -91.0653                                         !
 ! D222  D(80,79,82,83)        153.1941                                         !
 ! D223  D(80,79,82,84)        -89.2533                                         !
 ! D224  D(80,79,82,85)         33.5779                                         !
 ! D225  D(81,79,82,83)        -93.4922                                         !
 ! D226  D(81,79,82,84)         24.0605                                         !
 ! D227  D(81,79,82,85)        146.8916                                         !
 ! D228  D(79,82,85,86)        173.9026                                         !
 ! D229  D(79,82,85,87)        -69.2156                                         !
 ! D230  D(79,82,85,88)         45.6093                                         !
 ! D231  D(83,82,85,86)         52.5005                                         !
 ! D232  D(83,82,85,87)        169.3824                                         !
 ! D233  D(83,82,85,88)        -75.7928                                         !
 ! D234  D(84,82,85,86)        -63.6437                                         !
 ! D235  D(84,82,85,87)         53.2381                                         !
 ! D236  D(84,82,85,88)        168.063                                          !
 --------------------------------------------------------------------------------
 Symmetry turned off by external request.
 Stoichiometry    C29H46N7O7(1+)
 Framework group  C1[X(C29H46N7O7)]
 Deg. of freedom   261
 Full point group                 C1      NOp   1
                          Input orientation:                          
 ---------------------------------------------------------------------
 Center     Atomic      Atomic             Coordinates (Angstroms)
 Number     Number       Type             X           Y           Z
 ---------------------------------------------------------------------
      1          7           0       -5.908807    2.991798    1.586780
      2          1           0       -6.359090    3.347353    0.738653
      3          1           0       -5.904397    1.923150    1.553568
      4          1           0       -6.419552    3.341495    2.402033
      5          6           0       -4.418781    3.286186    1.645357
      6          1           0       -4.202637    4.082131    0.930674
      7          6           0       -3.812262    1.926046    1.195396
      8          6           0       -4.039448    3.697382    3.081520
      9          1           0       -4.702057    4.525070    3.376729
     10          1           0       -4.257161    2.851972    3.748406
     11          8           0       -4.563672    0.933870    1.234137
     12          6           0       -2.579099    4.159060    3.296539
     13          1           0       -1.905040    3.338411    3.021818
     14          6           0       -2.220421    5.387356    2.445580
     15          1           0       -2.883844    6.232621    2.669553
     16          1           0       -2.271117    5.194950    1.366445
     17          1           0       -1.195044    5.704952    2.656704
     18          6           0       -2.367600    4.450368    4.790775
     19          1           0       -3.006382    5.275677    5.129481
     20          1           0       -2.590092    3.573243    5.408941
     21          1           0       -1.328167    4.736036    4.979089
     22          7           0       -2.546974    1.928604    0.811683
     23          1           0       -1.943279    2.750913    0.909358
     24          6           0       -1.765996    0.729733    0.497503
     25          1           0       -1.992025   -0.035403    1.247508
     26          6           0       -0.300151    1.200453    0.658727
     27          6           0       -2.090869    0.169658   -0.916373
     28          1           0       -3.170846    0.288591   -1.064870
     29          1           0       -1.590794    0.793682   -1.663778
     30          8           0       -0.070886    2.363503    1.012523
     31          6           0       -1.701528   -1.274229   -1.100774
     32          6           0       -2.155422   -2.341908   -0.356196
     33          1           0       -2.828077   -2.359932    0.491307
     34          6           0       -0.861230   -1.829326   -2.138590
     35          6           0       -0.853700   -3.239257   -1.959169
     36          6           0       -0.123759   -1.276673   -3.202280
     37          1           0       -0.081840   -0.202343   -3.349698
     38          7           0       -1.649327   -3.516375   -0.865480
     39          1           0       -1.815834   -4.434640   -0.483054
     40          6           0        0.565264   -3.527644   -3.847789
     41          1           0        1.123547   -4.166941   -4.525859
     42          6           0       -0.144263   -4.101622   -2.801970
     43          1           0       -0.150236   -5.176926   -2.646303
     44          6           0        0.575282   -2.130170   -4.044111
     45          1           0        1.142978   -1.715732   -4.872217
     46          7           0        0.654858    0.286335    0.422806
     47          1           0        0.404504   -0.580110   -0.049580
     48          6           0        2.044001    0.682279    0.278601
     49          1           0        2.284740    1.404668    1.065944
     50          6           0        2.244588    1.352002   -1.104799
     51          6           0        2.919580   -0.583067    0.427174
     52          1           0        2.718064   -1.022891    1.409862
     53          1           0        3.984946   -0.313094    0.400996
     54          8           0        1.336266    1.459667   -1.916918
     55          8           0        2.594141   -1.547468   -0.543208
     56          1           0        3.057076   -1.298031   -1.369844
     57          7           0        3.515059    1.806882   -1.339313
     58          1           0        4.225678    1.507093   -0.682711
     59          6           0        3.989977    1.970343   -2.704108
     60          1           0        3.138720    2.339481   -3.284047
     61          6           0        4.384814    0.577211   -3.270698
     62          6           0        5.140121    2.985884   -2.751962
     63          1           0        5.471297    3.177269   -3.776746
     64          1           0        6.008346    2.628546   -2.185688
     65          1           0        4.812377    3.935186   -2.319099
     66          8           0        4.264691   -0.454172   -2.600779
     67          7           0        4.871110    0.574705   -4.526141
     68          1           0        4.982152    1.432868   -5.055676
     69          6           0        5.368099   -0.616859   -5.201497
     70          1           0        5.847831   -1.266397   -4.466245
     71          6           0        6.388933   -0.173354   -6.240018
     72          6           0        4.215777   -1.403236   -5.907366
     73          1           0        3.674032   -1.930818   -5.115724
     74          1           0        3.521422   -0.663737   -6.326253
     75          8           0        7.259548   -1.132632   -6.515640
     76          6           0        4.650717   -2.387396   -7.018431
     77          1           0        5.596917   -2.858496   -6.735772
     78          1           0        3.911411   -3.195091   -7.070276
     79          6           0        4.768698   -1.737033   -8.427727
     80          1           0        4.844297   -0.646122   -8.339351
     81          1           0        3.833624   -1.917400   -8.971023
     82          6           0        5.935834   -2.226081   -9.310699
     83          1           0        6.197965   -3.259809   -9.059911
     84          1           0        5.628271   -2.221258  -10.365460
     85          7           0        7.159832   -1.400498   -9.125832
     86          1           0        7.939402   -1.806030   -9.642624
     87          1           0        7.006946   -0.469752   -9.515299
     88          1           0        7.462543   -1.128320   -7.528096
     89          8           0        6.310601    0.907236   -6.805622
 ---------------------------------------------------------------------
 Rotational constants (GHZ):           0.1358334           0.0320647           0.0284207
 Standard basis: 6-31G(d) (6D, 7F)
   737 basis functions,  1388 primitive gaussians,   737 cartesian basis functions
   162 alpha electrons      162 beta electrons
       nuclear repulsion energy      5402.7218446261 Hartrees.
 NAtoms=   89 NActive=   89 NUniq=   89 SFac= 1.00D+00 NAtFMM=   60 NAOKFM=T Big=T
 Integral buffers will be    131072 words long.
 Raffenetti 2 integral format.
 Two-electron integral symmetry is turned off.
 One-electron integrals computed using PRISM.
 NBasis=   737 RedAO= T EigKep=  3.67D-04  NBF=   737
 NBsUse=   737 1.00D-06 EigRej= -1.00D+00 NBFU=   737
 Initial guess from the checkpoint file:  "conf-474.chk"
 B after Tr=     0.000000    0.000000    0.000000
         Rot=    1.000000    0.000000    0.000000    0.000000 Ang=   0.00 deg.
 Requested convergence on RMS density matrix=1.00D-08 within 128 cycles.
 Requested convergence on MAX density matrix=1.00D-06.
 Requested convergence on             energy=1.00D-06.
 No special actions if energy rises.
 SCF Done:  E(RB3LYP) =  -2042.50002983     A.U. after    1 cycles
            NFock=  1  Conv=0.81D-08     -V/T= 2.0094

 **********************************************************************

            Population analysis using the SCF Density.

 **********************************************************************

 Alpha  occ. eigenvalues --  -19.26242 -19.21544 -19.20924 -19.19482 -19.18884
 Alpha  occ. eigenvalues --  -19.18860 -19.18689 -14.59511 -14.48428 -14.44420
 Alpha  occ. eigenvalues --  -14.43774 -14.42761 -14.42663 -14.40981 -10.42829
 Alpha  occ. eigenvalues --  -10.40180 -10.37749 -10.36526 -10.35737 -10.35712
 Alpha  occ. eigenvalues --  -10.33425 -10.33071 -10.30507 -10.30472 -10.30328
 Alpha  occ. eigenvalues --  -10.30267 -10.29153 -10.28643 -10.28073 -10.27778
 Alpha  occ. eigenvalues --  -10.27752 -10.27682 -10.27099 -10.25612 -10.25191
 Alpha  occ. eigenvalues --  -10.24810 -10.24451 -10.24370 -10.24336 -10.24059
 Alpha  occ. eigenvalues --  -10.23869 -10.23782 -10.23374  -1.18627  -1.13863
 Alpha  occ. eigenvalues --   -1.13380  -1.12748  -1.11036  -1.09990  -1.07348
 Alpha  occ. eigenvalues --   -1.05477  -1.05134  -1.04239  -1.00485  -0.99504
 Alpha  occ. eigenvalues --   -0.99075  -0.96370  -0.94227  -0.89678  -0.89077
 Alpha  occ. eigenvalues --   -0.87389  -0.86281  -0.84889  -0.83777  -0.81719
 Alpha  occ. eigenvalues --   -0.80354  -0.79773  -0.79092  -0.78336  -0.77809
 Alpha  occ. eigenvalues --   -0.75670  -0.75432  -0.73351  -0.72657  -0.72574
 Alpha  occ. eigenvalues --   -0.71293  -0.69976  -0.68674  -0.68045  -0.67994
 Alpha  occ. eigenvalues --   -0.66987  -0.66087  -0.65265  -0.65100  -0.64979
 Alpha  occ. eigenvalues --   -0.64626  -0.63262  -0.62888  -0.62428  -0.61036
 Alpha  occ. eigenvalues --   -0.59899  -0.59317  -0.58551  -0.57466  -0.57370
 Alpha  occ. eigenvalues --   -0.56850  -0.56127  -0.55902  -0.55308  -0.54461
 Alpha  occ. eigenvalues --   -0.54424  -0.54286  -0.54069  -0.53557  -0.53149
 Alpha  occ. eigenvalues --   -0.52844  -0.52538  -0.52200  -0.51715  -0.51491
 Alpha  occ. eigenvalues --   -0.51152  -0.50658  -0.49972  -0.49722  -0.49393
 Alpha  occ. eigenvalues --   -0.49008  -0.48833  -0.48718  -0.48617  -0.48350
 Alpha  occ. eigenvalues --   -0.48008  -0.47708  -0.47411  -0.47154  -0.46962
 Alpha  occ. eigenvalues --   -0.46860  -0.46509  -0.46104  -0.45390  -0.45304
 Alpha  occ. eigenvalues --   -0.44648  -0.44372  -0.44351  -0.43900  -0.43739
 Alpha  occ. eigenvalues --   -0.43564  -0.43145  -0.42399  -0.42195  -0.41584
 Alpha  occ. eigenvalues --   -0.41016  -0.40732  -0.39576  -0.39337  -0.39073
 Alpha  occ. eigenvalues --   -0.38997  -0.38746  -0.38599  -0.38186  -0.35532
 Alpha  occ. eigenvalues --   -0.35224  -0.34564  -0.33746  -0.33370  -0.33329
 Alpha  occ. eigenvalues --   -0.32929  -0.32595  -0.32275  -0.31528  -0.31295
 Alpha  occ. eigenvalues --   -0.27993  -0.26293
 Alpha virt. eigenvalues --   -0.11760  -0.10676  -0.07300  -0.06197  -0.06081
 Alpha virt. eigenvalues --   -0.05139  -0.04949  -0.04291  -0.04021  -0.02881
 Alpha virt. eigenvalues --   -0.01406  -0.00873  -0.00024   0.00461   0.00800
 Alpha virt. eigenvalues --    0.01051   0.01635   0.01859   0.02040   0.02401
 Alpha virt. eigenvalues --    0.03165   0.03699   0.04586   0.05288   0.05420
 Alpha virt. eigenvalues --    0.05717   0.05867   0.05994   0.06122   0.06429
 Alpha virt. eigenvalues --    0.06942   0.07044   0.07596   0.07782   0.08028
 Alpha virt. eigenvalues --    0.08077   0.08484   0.08561   0.08667   0.09241
 Alpha virt. eigenvalues --    0.09386   0.09631   0.09757   0.09907   0.10183
 Alpha virt. eigenvalues --    0.10541   0.10635   0.11316   0.11739   0.11865
 Alpha virt. eigenvalues --    0.12156   0.12245   0.12332   0.12544   0.12854
 Alpha virt. eigenvalues --    0.13158   0.13679   0.13813   0.14243   0.14498
 Alpha virt. eigenvalues --    0.15208   0.15428   0.15592   0.15675   0.16014
 Alpha virt. eigenvalues --    0.16370   0.16407   0.17353   0.17492   0.18731
 Alpha virt. eigenvalues --    0.18874   0.19088   0.19849   0.20364   0.20875
 Alpha virt. eigenvalues --    0.21201   0.21837   0.22004   0.22529   0.23198
 Alpha virt. eigenvalues --    0.23343   0.24711   0.25512   0.26654   0.26893
 Alpha virt. eigenvalues --    0.28103   0.28281   0.29327   0.29634   0.30322
 Alpha virt. eigenvalues --    0.30682   0.32430   0.32890   0.34306   0.34884
 Alpha virt. eigenvalues --    0.37263   0.37664   0.37792   0.37927   0.39155
 Alpha virt. eigenvalues --    0.39570   0.41759   0.42210   0.42860   0.43619
 Alpha virt. eigenvalues --    0.43878   0.44528   0.45259   0.45465   0.45699
 Alpha virt. eigenvalues --    0.45819   0.46140   0.46478   0.46700   0.47490
 Alpha virt. eigenvalues --    0.47664   0.47921   0.48115   0.48762   0.48807
 Alpha virt. eigenvalues --    0.49187   0.49641   0.49995   0.50085   0.50615
 Alpha virt. eigenvalues --    0.50928   0.51378   0.51456   0.51889   0.52276
 Alpha virt. eigenvalues --    0.52497   0.52685   0.54024   0.54174   0.54222
 Alpha virt. eigenvalues --    0.54688   0.55323   0.55561   0.55788   0.56406
 Alpha virt. eigenvalues --    0.56489   0.56944   0.56989   0.57492   0.58173
 Alpha virt. eigenvalues --    0.58354   0.58706   0.58715   0.59472   0.59651
 Alpha virt. eigenvalues --    0.59740   0.60320   0.60562   0.60818   0.61633
 Alpha virt. eigenvalues --    0.61909   0.62218   0.62603   0.63111   0.63802
 Alpha virt. eigenvalues --    0.64009   0.64136   0.64584   0.64657   0.64789
 Alpha virt. eigenvalues --    0.65628   0.66273   0.67027   0.67381   0.67556
 Alpha virt. eigenvalues --    0.67877   0.69200   0.69610   0.70380   0.70661
 Alpha virt. eigenvalues --    0.71356   0.71846   0.72197   0.72654   0.73028
 Alpha virt. eigenvalues --    0.73380   0.73788   0.74190   0.74312   0.74407
 Alpha virt. eigenvalues --    0.75019   0.75369   0.75566   0.75841   0.76049
 Alpha virt. eigenvalues --    0.76612   0.77168   0.77303   0.77551   0.77924
 Alpha virt. eigenvalues --    0.78366   0.78625   0.79724   0.80007   0.80144
 Alpha virt. eigenvalues --    0.80258   0.80448   0.80579   0.80717   0.80948
 Alpha virt. eigenvalues --    0.81281   0.81331   0.81676   0.81815   0.81981
 Alpha virt. eigenvalues --    0.82392   0.82913   0.83103   0.83339   0.83427
 Alpha virt. eigenvalues --    0.83724   0.84021   0.84333   0.84455   0.84982
 Alpha virt. eigenvalues --    0.85938   0.86504   0.86589   0.86622   0.86869
 Alpha virt. eigenvalues --    0.87070   0.87401   0.88162   0.88439   0.88861
 Alpha virt. eigenvalues --    0.89046   0.90053   0.90499   0.91074   0.91372
 Alpha virt. eigenvalues --    0.91731   0.91904   0.92233   0.92811   0.93346
 Alpha virt. eigenvalues --    0.93585   0.93726   0.94154   0.94403   0.95453
 Alpha virt. eigenvalues --    0.96089   0.97012   0.97592   0.97730   0.98233
 Alpha virt. eigenvalues --    0.99432   0.99657   1.00146   1.00315   1.00823
 Alpha virt. eigenvalues --    1.02096   1.02979   1.03763   1.04854   1.05201
 Alpha virt. eigenvalues --    1.05696   1.06512   1.07023   1.07423   1.07718
 Alpha virt. eigenvalues --    1.08481   1.08956   1.10672   1.11187   1.11642
 Alpha virt. eigenvalues --    1.13386   1.13565   1.14404   1.15815   1.16442
 Alpha virt. eigenvalues --    1.16806   1.17493   1.18414   1.18680   1.19867
 Alpha virt. eigenvalues --    1.21183   1.22089   1.22247   1.23644   1.24624
 Alpha virt. eigenvalues --    1.25708   1.25980   1.27493   1.27942   1.28650
 Alpha virt. eigenvalues --    1.29029   1.30399   1.30726   1.31188   1.31801
 Alpha virt. eigenvalues --    1.32271   1.33728   1.34644   1.34877   1.35358
 Alpha virt. eigenvalues --    1.35878   1.36197   1.36975   1.37276   1.38363
 Alpha virt. eigenvalues --    1.39131   1.39732   1.40686   1.41550   1.41798
 Alpha virt. eigenvalues --    1.42224   1.43937   1.44238   1.44738   1.45331
 Alpha virt. eigenvalues --    1.45892   1.46255   1.46901   1.47150   1.48418
 Alpha virt. eigenvalues --    1.49170   1.49812   1.50465   1.50964   1.52977
 Alpha virt. eigenvalues --    1.53463   1.54235   1.55047   1.55184   1.56894
 Alpha virt. eigenvalues --    1.59071   1.60136   1.60470   1.60754   1.61413
 Alpha virt. eigenvalues --    1.62197   1.62277   1.62855   1.63317   1.64695
 Alpha virt. eigenvalues --    1.65003   1.65681   1.66144   1.67406   1.68130
 Alpha virt. eigenvalues --    1.68358   1.68743   1.69053   1.69282   1.69880
 Alpha virt. eigenvalues --    1.70547   1.70735   1.71726   1.72370   1.73003
 Alpha virt. eigenvalues --    1.73344   1.73552   1.74647   1.74872   1.75088
 Alpha virt. eigenvalues --    1.75348   1.75984   1.76647   1.77204   1.77742
 Alpha virt. eigenvalues --    1.78073   1.78725   1.79358   1.79571   1.80064
 Alpha virt. eigenvalues --    1.80219   1.80739   1.81744   1.82002   1.82837
 Alpha virt. eigenvalues --    1.83543   1.83786   1.84391   1.84511   1.85266
 Alpha virt. eigenvalues --    1.85878   1.86285   1.86599   1.87311   1.88103
 Alpha virt. eigenvalues --    1.88626   1.89158   1.90241   1.90746   1.90915
 Alpha virt. eigenvalues --    1.91419   1.92047   1.92195   1.92776   1.93187
 Alpha virt. eigenvalues --    1.93230   1.94397   1.94608   1.95148   1.95571
 Alpha virt. eigenvalues --    1.95716   1.96335   1.97056   1.97894   1.98128
 Alpha virt. eigenvalues --    1.99086   1.99651   2.00087   2.00600   2.00997
 Alpha virt. eigenvalues --    2.01153   2.01649   2.01916   2.02796   2.03809
 Alpha virt. eigenvalues --    2.04180   2.05744   2.06790   2.07698   2.08405
 Alpha virt. eigenvalues --    2.08526   2.08785   2.09914   2.10677   2.11147
 Alpha virt. eigenvalues --    2.12300   2.12752   2.13497   2.13930   2.14492
 Alpha virt. eigenvalues --    2.15015   2.15847   2.16319   2.17030   2.17239
 Alpha virt. eigenvalues --    2.18001   2.18585   2.18671   2.18821   2.20063
 Alpha virt. eigenvalues --    2.20203   2.21677   2.21937   2.22397   2.23255
 Alpha virt. eigenvalues --    2.24310   2.25334   2.26649   2.27105   2.27900
 Alpha virt. eigenvalues --    2.29395   2.30783   2.31256   2.31495   2.32138
 Alpha virt. eigenvalues --    2.32511   2.33388   2.33644   2.34550   2.34954
 Alpha virt. eigenvalues --    2.35112   2.35668   2.36239   2.37685   2.38744
 Alpha virt. eigenvalues --    2.39070   2.40169   2.40627   2.41297   2.41435
 Alpha virt. eigenvalues --    2.41725   2.42892   2.44769   2.45491   2.47103
 Alpha virt. eigenvalues --    2.47572   2.48580   2.49516   2.50325   2.50855
 Alpha virt. eigenvalues --    2.51962   2.52837   2.53601   2.54443   2.55613
 Alpha virt. eigenvalues --    2.56473   2.56770   2.57913   2.59197   2.59810
 Alpha virt. eigenvalues --    2.60228   2.61224   2.61738   2.62466   2.63722
 Alpha virt. eigenvalues --    2.64277   2.65014   2.65609   2.66068   2.66946
 Alpha virt. eigenvalues --    2.68489   2.68701   2.70646   2.70869   2.71775
 Alpha virt. eigenvalues --    2.72514   2.73451   2.75338   2.77086   2.78295
 Alpha virt. eigenvalues --    2.79836   2.80500   2.81789   2.84110   2.85764
 Alpha virt. eigenvalues --    2.87356   2.87909   2.88837   2.90988   2.93367
 Alpha virt. eigenvalues --    2.93957   2.95046   2.97993   2.98985   3.05596
 Alpha virt. eigenvalues --    3.06254   3.06461   3.07951   3.12292   3.13730
 Alpha virt. eigenvalues --    3.19022   3.38780   3.64241   3.77753   3.78527
 Alpha virt. eigenvalues --    3.89290   3.94187   3.96153   3.98334   3.99732
 Alpha virt. eigenvalues --    4.00393   4.01208   4.04221   4.05343   4.06580
 Alpha virt. eigenvalues --    4.06734   4.08967   4.09890   4.12695   4.14812
 Alpha virt. eigenvalues --    4.16347   4.17503   4.18433   4.19191   4.19677
 Alpha virt. eigenvalues --    4.22978   4.26737   4.29115   4.30783   4.31260
 Alpha virt. eigenvalues --    4.32706   4.35197   4.35794   4.39342   4.39853
 Alpha virt. eigenvalues --    4.43182   4.45184   4.50513   4.51417   4.52159
 Alpha virt. eigenvalues --    4.53601   4.55209   4.61496   4.64374   4.74832
          Condensed to atoms (all electrons):
 Mulliken charges:
               1
     1  N   -0.758278
     2  H    0.414894
     3  H    0.432564
     4  H    0.410532
     5  C   -0.114862
     6  H    0.213873
     7  C    0.649912
     8  C   -0.286680
     9  H    0.158802
    10  H    0.173372
    11  O   -0.551757
    12  C   -0.104776
    13  H    0.166119
    14  C   -0.460313
    15  H    0.152795
    16  H    0.141090
    17  H    0.187479
    18  C   -0.451837
    19  H    0.153710
    20  H    0.156621
    21  H    0.175640
    22  N   -0.613751
    23  H    0.389660
    24  C   -0.067140
    25  H    0.195404
    26  C    0.635757
    27  C   -0.350689
    28  H    0.170451
    29  H    0.190313
    30  O   -0.556224
    31  C    0.006073
    32  C    0.006350
    33  H    0.155425
    34  C    0.068999
    35  C    0.322535
    36  C   -0.201769
    37  H    0.156386
    38  N   -0.683891
    39  H    0.336834
    40  C   -0.147828
    41  H    0.130076
    42  C   -0.155262
    43  H    0.133011
    44  C   -0.145586
    45  H    0.126954
    46  N   -0.597197
    47  H    0.380828
    48  C   -0.090906
    49  H    0.185532
    50  C    0.625972
    51  C   -0.059170
    52  H    0.162402
    53  H    0.135981
    54  O   -0.520153
    55  O   -0.640955
    56  H    0.450706
    57  N   -0.574020
    58  H    0.329935
    59  C   -0.082482
    60  H    0.201611
    61  C    0.636923
    62  C   -0.463213
    63  H    0.167841
    64  H    0.161484
    65  H    0.178264
    66  O   -0.559531
    67  N   -0.611389
    68  H    0.353279
    69  C   -0.009950
    70  H    0.191117
    71  C    0.576088
    72  C   -0.287730
    73  H    0.174409
    74  H    0.147594
    75  O   -0.600334
    76  C   -0.283376
    77  H    0.171032
    78  H    0.144259
    79  C   -0.290808
    80  H    0.161330
    81  H    0.150893
    82  C   -0.143638
    83  H    0.165087
    84  H    0.149377
    85  N   -0.776266
    86  H    0.334591
    87  H    0.339809
    88  H    0.458211
    89  O   -0.504424
 Sum of Mulliken charges =   1.00000
 Mulliken charges with hydrogens summed into heavy atoms:
               1
     1  N    0.499712
     5  C    0.099011
     7  C    0.649912
     8  C    0.045495
    11  O   -0.551757
    12  C    0.061343
    14  C    0.021052
    18  C    0.034133
    22  N   -0.224091
    24  C    0.128263
    26  C    0.635757
    27  C    0.010075
    30  O   -0.556224
    31  C    0.006073
    32  C    0.161775
    34  C    0.068999
    35  C    0.322535
    36  C   -0.045383
    38  N   -0.347056
    40  C   -0.017751
    42  C   -0.022250
    44  C   -0.018632
    46  N   -0.216369
    48  C    0.094626
    50  C    0.625972
    51  C    0.239213
    54  O   -0.520153
    55  O   -0.190250
    57  N   -0.244085
    59  C    0.119129
    61  C    0.636923
    62  C    0.044375
    66  O   -0.559531
    67  N   -0.258110
    69  C    0.181167
    71  C    0.576088
    72  C    0.034273
    75  O   -0.142124
    76  C    0.031915
    79  C    0.021415
    82  C    0.170827
    85  N   -0.101866
    89  O   -0.504424
 Electronic spatial extent (au):  <R**2>=          43169.8632
 Charge=              1.0000 electrons
 Dipole moment (field-independent basis, Debye):
    X=            -11.6427    Y=              9.2836    Z=             -1.5262  Tot=             14.9689
 Quadrupole moment (field-independent basis, Debye-Ang):
   XX=            -96.7868   YY=           -185.0991   ZZ=           -137.5064
   XY=            -66.7198   XZ=            -95.0271   YZ=             44.6823
 Traceless Quadrupole moment (field-independent basis, Debye-Ang):
   XX=             43.0106   YY=            -45.3017   ZZ=              2.2910
   XY=            -66.7198   XZ=            -95.0271   YZ=             44.6823
 Octapole moment (field-independent basis, Debye-Ang**2):
  XXX=          -1222.0740  YYY=           -125.5270  ZZZ=            530.5230  XYY=           -512.8805
  XXY=            276.5483  XXZ=            282.1733  XZZ=            302.1834  YZZ=           -213.7908
  YYZ=            527.5180  XYZ=             27.2812
 Hexadecapole moment (field-independent basis, Debye-Ang**3):
 XXXX=         -16052.0165 YYYY=          -7648.7757 ZZZZ=         -14502.6124 XXXY=           -723.2035
 XXXZ=           5601.7916 YYYX=           1326.0852 YYYZ=          -2970.9497 ZZZX=           2392.6190
 ZZZY=          -1220.3548 XXYY=          -3573.7018 XXZZ=          -2924.8069 YYZZ=          -4915.6322
 XXYZ=            392.1115 YYXZ=           2414.4030 ZZXY=          -1119.0778
 N-N= 5.402721844626D+03 E-N=-1.553647074902D+04  KE= 2.023423505604D+03
 Unable to Open any file for archive entry.
 1\1\GINC-AMR-126\SP\RB3LYP\6-31G(d)\C29H46N7O7(1+)\KENGMITH\28-Jun-202
 2\0\\# B3LYP/6-31G* guess=read geom=check nosymm integral(ultrafinegri
 d)\\Candidate Structure: Conf:474 Charge calc in gas phase\\1,1\N,0,-5
 .9088065184,2.9917978325,1.5867800892\H,0,-6.3590902428,3.3473528989,0
 .738652611\H,0,-5.9043966499,1.9231500738,1.553567564\H,0,-6.419551953
 3,3.3414953717,2.4020326767\C,0,-4.4187810891,3.2861857762,1.645357256
 \H,0,-4.2026367603,4.0821310751,0.930673919\C,0,-3.8122623047,1.926045
 9814,1.1953962046\C,0,-4.0394477333,3.6973816061,3.0815199651\H,0,-4.7
 020569156,4.5250703264,3.376728507\H,0,-4.2571614273,2.8519715965,3.74
 84064315\O,0,-4.5636721114,0.9338695122,1.2341372613\C,0,-2.5790991986
 ,4.1590597577,3.2965388355\H,0,-1.9050402089,3.3384112773,3.0218178643
 \C,0,-2.2204212029,5.3873561632,2.445579833\H,0,-2.8838438177,6.232620
 5113,2.6695531988\H,0,-2.2711166061,5.1949499268,1.3664445217\H,0,-1.1
 950441718,5.7049515699,2.6567039588\C,0,-2.3675997194,4.4503678469,4.7
 90775267\H,0,-3.0063818619,5.2756765791,5.1294808674\H,0,-2.590092355,
 3.5732426487,5.4089412164\H,0,-1.3281670264,4.7360356916,4.9790886145\
 N,0,-2.5469742617,1.9286043166,0.811682713\H,0,-1.9432790614,2.7509130
 529,0.9093582413\C,0,-1.7659955206,0.729733216,0.4975025646\H,0,-1.992
 0246948,-0.035403421,1.2475084739\C,0,-0.3001513305,1.2004532888,0.658
 726999\C,0,-2.0908693271,0.1696581764,-0.9163731855\H,0,-3.1708462383,
 0.2885912424,-1.0648704563\H,0,-1.5907936076,0.793681822,-1.66377795\O
 ,0,-0.070885715,2.36350283,1.0125231476\C,0,-1.701528366,-1.2742292387
 ,-1.100774236\C,0,-2.1554222091,-2.3419079556,-0.3561959497\H,0,-2.828
 077341,-2.3599319632,0.4913073825\C,0,-0.8612296517,-1.8293259726,-2.1
 385897738\C,0,-0.853700207,-3.2392565235,-1.9591686451\C,0,-0.12375904
 57,-1.2766729611,-3.2022801714\H,0,-0.0818403545,-0.2023432984,-3.3496
 98004\N,0,-1.649327363,-3.5163753933,-0.8654798554\H,0,-1.8158343824,-
 4.4346396948,-0.4830535722\C,0,0.5652638078,-3.5276440391,-3.847788581
 3\H,0,1.1235466186,-4.1669406341,-4.5258593998\C,0,-0.1442627662,-4.10
 16218332,-2.8019700928\H,0,-0.150236073,-5.176925741,-2.6463031469\C,0
 ,0.5752818632,-2.1301696352,-4.0441105986\H,0,1.1429781167,-1.71573174
 22,-4.8722173819\N,0,0.6548584355,0.2863350155,0.4228058335\H,0,0.4045
 044718,-0.5801097511,-0.0495800894\C,0,2.0440007744,0.6822794726,0.278
 6006003\H,0,2.284739725,1.4046682311,1.0659440617\C,0,2.2445875053,1.3
 520016871,-1.1047985484\C,0,2.9195803117,-0.5830672502,0.4271741538\H,
 0,2.7180644236,-1.0228913132,1.4098624974\H,0,3.9849464362,-0.31309378
 46,0.4009960608\O,0,1.3362657069,1.4596668569,-1.9169181236\O,0,2.5941
 407842,-1.5474678347,-0.5432080296\H,0,3.0570755334,-1.2980311713,-1.3
 698436283\N,0,3.5150589447,1.8068817626,-1.3393129723\H,0,4.2256777818
 ,1.5070930912,-0.6827108763\C,0,3.9899767132,1.9703429221,-2.704107935
 8\H,0,3.1387199935,2.3394811305,-3.2840471856\C,0,4.3848135291,0.57721
 05567,-3.2706983866\C,0,5.1401213876,2.9858836458,-2.7519617942\H,0,5.
 4712970657,3.1772688208,-3.7767461259\H,0,6.0083459816,2.6285456374,-2
 .1856878889\H,0,4.8123773117,3.9351859459,-2.3190992938\O,0,4.26469135
 42,-0.4541718375,-2.6007792843\N,0,4.871109606,0.5747045328,-4.5261414
 755\H,0,4.9821521093,1.4328675235,-5.055676469\C,0,5.3680992871,-0.616
 8591553,-5.2014974332\H,0,5.8478310379,-1.266396699,-4.466245173\C,0,6
 .38893317,-0.1733542893,-6.2400176836\C,0,4.2157773133,-1.4032359991,-
 5.9073660789\H,0,3.6740324902,-1.93081778,-5.1157235631\H,0,3.52142167
 22,-0.6637368481,-6.3262531205\O,0,7.259548054,-1.1326321072,-6.515639
 9023\C,0,4.650717302,-2.3873955974,-7.0184307044\H,0,5.5969165832,-2.8
 584957294,-6.7357720203\H,0,3.9114112944,-3.1950910625,-7.0702758202\C
 ,0,4.7686978124,-1.7370329547,-8.4277274235\H,0,4.8442966084,-0.646121
 6578,-8.3393510023\H,0,3.8336240097,-1.9174002922,-8.9710231466\C,0,5.
 935833594,-2.2260813927,-9.3106989523\H,0,6.197964811,-3.259808958,-9.
 0599113921\H,0,5.6282706439,-2.2212584637,-10.3654602718\N,0,7.1598316
 206,-1.400498338,-9.1258323996\H,0,7.9394017654,-1.806029845,-9.642623
 7663\H,0,7.0069462666,-0.4697515119,-9.5152993517\H,0,7.4625429122,-1.
 1283195034,-7.5280959822\O,0,6.3106014604,0.9072363132,-6.8056223761\\
 Version=ES64L-G16RevC.01\HF=-2042.5000298\RMSD=8.133e-09\Dipole=-6.734
 7519,3.1116398,3.069792\Quadrupole=31.9773636,-33.6806893,1.7033257,-4
 9.6045062,-70.6503241,33.2202213\PG=C01 [X(C29H46N7O7)]\\@
 The archive entry for this job was punched.


 IF YOU GET CONFUSED, LOGIC OUT YOUR DILEMMA

           --  PICKER X-RAY CORP.    DIGITAL PRINTER MANUAL CA. 1964
 Job cpu time:       0 days  0 hours  1 minutes 50.3 seconds.
 Elapsed time:       0 days  0 hours  0 minutes 28.1 seconds.
 File lengths (MBytes):  RWF=    400 Int=      0 D2E=      0 Chk=     64 Scr=     16
 Normal termination of Gaussian 16 at Tue Jun 28 00:56:32 2022.
