 Entering Gaussian System, Link 0=/opt/software/Gaussian/g16-AVX2-C.01/g16/g16
 Input=charge-conf-950.com
 Output=charge-conf-950.log
 Initial command:
 /opt/software/Gaussian/g16-AVX2-C.01/g16/l1.exe "/mnt/gs18/scratch/users/kengmith/Gau-96408.inp" -scrdir="/mnt/gs18/scratch/users/kengmith/"
 Entering Link 1 = /opt/software/Gaussian/g16-AVX2-C.01/g16/l1.exe PID=     96418.
  
 Copyright (c) 1988-2019, Gaussian, Inc.  All Rights Reserved.
  
 This is part of the Gaussian(R) 16 program.  It is based on
 the Gaussian(R) 09 system (copyright 2009, Gaussian, Inc.),
 the Gaussian(R) 03 system (copyright 2003, Gaussian, Inc.),
 the Gaussian(R) 98 system (copyright 1998, Gaussian, Inc.),
 the Gaussian(R) 94 system (copyright 1995, Gaussian, Inc.),
 the Gaussian 92(TM) system (copyright 1992, Gaussian, Inc.),
 the Gaussian 90(TM) system (copyright 1990, Gaussian, Inc.),
 the Gaussian 88(TM) system (copyright 1988, Gaussian, Inc.),
 the Gaussian 86(TM) system (copyright 1986, Carnegie Mellon
 University), and the Gaussian 82(TM) system (copyright 1983,
 Carnegie Mellon University). Gaussian is a federally registered
 trademark of Gaussian, Inc.
  
 This software contains proprietary and confidential information,
 including trade secrets, belonging to Gaussian, Inc.
  
 This software is provided under written license and may be
 used, copied, transmitted, or stored only in accord with that
 written license.
  
 The following legend is applicable only to US Government
 contracts under FAR:
  
                    RESTRICTED RIGHTS LEGEND
  
 Use, reproduction and disclosure by the US Government is
 subject to restrictions as set forth in subparagraphs (a)
 and (c) of the Commercial Computer Software - Restricted
 Rights clause in FAR 52.227-19.
  
 Gaussian, Inc.
 340 Quinnipiac St., Bldg. 40, Wallingford CT 06492
  
  
 ---------------------------------------------------------------
 Warning -- This program may not be used in any manner that
 competes with the business of Gaussian, Inc. or will provide
 assistance to any competitor of Gaussian, Inc.  The licensee
 of this program is prohibited from giving any competitor of
 Gaussian, Inc. access to this program.  By using this program,
 the user acknowledges that Gaussian, Inc. is engaged in the
 business of creating and licensing software in the field of
 computational chemistry and represents and warrants to the
 licensee that it is not a competitor of Gaussian, Inc. and that
 it will not use this program in any manner prohibited above.
 ---------------------------------------------------------------
  

 Cite this work as:
 Gaussian 16, Revision C.01,
 M. J. Frisch, G. W. Trucks, H. B. Schlegel, G. E. Scuseria, 
 M. A. Robb, J. R. Cheeseman, G. Scalmani, V. Barone, 
 G. A. Petersson, H. Nakatsuji, X. Li, M. Caricato, A. V. Marenich, 
 J. Bloino, B. G. Janesko, R. Gomperts, B. Mennucci, H. P. Hratchian, 
 J. V. Ortiz, A. F. Izmaylov, J. L. Sonnenberg, D. Williams-Young, 
 F. Ding, F. Lipparini, F. Egidi, J. Goings, B. Peng, A. Petrone, 
 T. Henderson, D. Ranasinghe, V. G. Zakrzewski, J. Gao, N. Rega, 
 G. Zheng, W. Liang, M. Hada, M. Ehara, K. Toyota, R. Fukuda, 
 J. Hasegawa, M. Ishida, T. Nakajima, Y. Honda, O. Kitao, H. Nakai, 
 T. Vreven, K. Throssell, J. A. Montgomery, Jr., J. E. Peralta, 
 F. Ogliaro, M. J. Bearpark, J. J. Heyd, E. N. Brothers, K. N. Kudin, 
 V. N. Staroverov, T. A. Keith, R. Kobayashi, J. Normand, 
 K. Raghavachari, A. P. Rendell, J. C. Burant, S. S. Iyengar, 
 J. Tomasi, M. Cossi, J. M. Millam, M. Klene, C. Adamo, R. Cammi, 
 J. W. Ochterski, R. L. Martin, K. Morokuma, O. Farkas, 
 J. B. Foresman, and D. J. Fox, Gaussian, Inc., Wallingford CT, 2019.
 
 ******************************************
 Gaussian 16:  ES64L-G16RevC.01  3-Jul-2019
                28-Jun-2022 
 ******************************************
 %mem=8gb
 %nproc=4
 Will use up to    4 processors via shared memory.
 %chk=conf-950.chk
 -------------------------------------------------------------------
 # B3LYP/6-31G* guess=read geom=check nosymm integral(ultrafinegrid)
 -------------------------------------------------------------------
 1/29=2,38=1,172=1/1;
 2/12=2,15=1,40=1/2;
 3/5=1,6=6,7=1,11=2,14=-4,25=1,30=1,74=-5,75=-5,116=-2/1,2,3;
 4/5=1/1;
 5/5=2,38=6/2;
 6/7=2,8=2,9=2,10=2,28=1/1;
 99/5=1,9=1/99;
 ------------------------------------------------------
 Candidate Structure: Conf:950 Charge calc in gas phase
 ------------------------------------------------------
 Structure from the checkpoint file:  "conf-950.chk"
 Charge =  1 Multiplicity = 1
 Redundant internal coordinates found in file.  (old form).
 N,0,-5.3886816255,2.3179906928,3.3362008663
 H,0,-5.5992976925,3.3194228736,3.299439587
 H,0,-5.5672724467,1.8927326639,2.3728620325
 H,0,-5.976647899,1.8841053165,4.0531124375
 C,0,-3.9092812101,2.0199417502,3.5191762071
 H,0,-3.4254100959,2.9250998685,3.8901687837
 C,0,-3.4716415977,1.6847898294,2.0644664595
 C,0,-3.7478399537,0.8469084715,4.5063493405
 H,0,-4.3068342526,1.1015519338,5.4195872814
 H,0,-4.2269151674,-0.038574585,4.0670000451
 O,0,-4.3779602594,1.4178152237,1.2536213249
 C,0,-2.2995620621,0.4960164616,4.9200866165
 H,0,-1.7311971637,0.2258895197,4.0216660129
 C,0,-1.5866600813,1.6683654216,5.6120219959
 H,0,-2.1310233497,1.9899280894,6.5092418003
 H,0,-1.4622175933,2.5431421349,4.9611592057
 H,0,-0.5821701168,1.3670349396,5.9236127769
 C,0,-2.3321481977,-0.7389905263,5.8344681719
 H,0,-2.8793781102,-0.5322959192,6.7627585584
 H,0,-2.8091619461,-1.593688009,5.3418305355
 H,0,-1.3152200849,-1.0368771934,6.1075982333
 N,0,-2.1744619846,1.7026009083,1.8072621717
 H,0,-1.4694192389,1.8323261242,2.5399960403
 C,0,-1.5596912558,1.2552274832,0.5543434075
 H,0,-2.0617809072,0.3392986634,0.2257020552
 C,0,-0.1014183532,0.932620369,0.9645751704
 C,0,-1.6816850683,2.3225567425,-0.5757685269
 H,0,-2.6777806774,2.7707083519,-0.4785665423
 H,0,-0.9534937388,3.12163567,-0.3952553375
 O,0,0.2644357598,1.1484719886,2.1310993149
 C,0,-1.5244096418,1.7502103817,-1.9533367777
 C,0,-0.4542649181,1.903400342,-2.8048280909
 H,0,0.4787095155,2.4276483989,-2.6554142245
 C,0,-2.4913773706,0.9337833573,-2.652535547
 C,0,-1.9337206926,0.6273434113,-3.9232468718
 C,0,-3.7698120674,0.4412435059,-2.3327115645
 H,0,-4.2257043093,0.6662433863,-1.3716930166
 N,0,-0.6984479328,1.2431134345,-3.9863904037
 H,0,-0.0269715677,1.1356174112,-4.7311016814
 C,0,-3.8648610183,-0.6348075027,-4.5191723556
 H,0,-4.4153659508,-1.2467067279,-5.2279076551
 C,0,-2.6070564864,-0.1559601119,-4.865837051
 H,0,-2.1661900557,-0.3808152153,-5.8331704251
 C,0,-4.4410417595,-0.3375334918,-3.2671558427
 H,0,-5.4286976236,-0.7252624261,-3.0335419193
 N,0,0.6981421957,0.4357941462,0.0155171433
 H,0,0.3773465332,0.3209630003,-0.9428579238
 C,0,2.0833763661,0.0751122571,0.2753633835
 H,0,2.522427725,0.8249800783,0.9447502994
 C,0,2.810223208,0.0700194245,-1.0771612184
 C,0,2.1899052345,-1.320180421,0.954810917
 H,0,1.546758501,-1.3011993363,1.8402197976
 H,0,3.2228706537,-1.4685386822,1.3097606145
 O,0,2.2052284481,0.1939777426,-2.1375759879
 O,0,1.7568062869,-2.3608339662,0.121900737
 H,0,2.5012106337,-2.5994787049,-0.4683576364
 N,0,4.1625026062,-0.0996092204,-1.0057213307
 H,0,4.5359875959,-0.3875631007,-0.1091602213
 C,0,4.9031805458,-0.5821088788,-2.1616378837
 H,0,4.4886058701,-0.073039059,-3.0363634594
 C,0,4.6634635608,-2.107214924,-2.3247545789
 C,0,6.3942441971,-0.2486712802,-2.013627526
 H,0,6.9610551193,-0.5667918649,-2.8930495326
 H,0,6.8254492804,-0.7550103559,-1.1418284661
 H,0,6.52718712,0.8299336002,-1.8898632289
 O,0,4.0899399692,-2.7710909606,-1.4543938566
 N,0,5.1481322157,-2.6484702129,-3.4563970492
 H,0,5.6188891823,-2.0844616318,-4.157038024
 C,0,5.1000485945,-4.0725371775,-3.7631503976
 H,0,5.2556592075,-4.6395080605,-2.8427529385
 C,0,6.2213620024,-4.373385506,-4.7477946126
 C,0,3.7277842764,-4.4800624198,-4.3929772079
 H,0,3.0084123935,-4.5167633154,-3.5688129102
 H,0,3.4105658364,-3.6613803387,-5.0509349823
 O,0,6.6061528438,-5.6385838452,-4.6841343948
 C,0,3.7155114086,-5.80996349,-5.1822220731
 H,0,4.3712193205,-6.5321709869,-4.686608613
 H,0,2.7043634881,-6.2296288946,-5.1296717111
 C,0,4.1094207984,-5.6596798889,-6.6806000783
 H,0,4.6394250767,-4.7128828969,-6.8430481507
 H,0,3.1903998899,-5.5802489526,-7.2732099273
 C,0,4.9664551208,-6.7947972815,-7.2788771481
 H,0,4.7627671233,-7.7397913688,-6.7634614882
 H,0,4.6998101814,-6.9424351203,-8.3344247621
 N,0,6.4236183262,-6.5228359135,-7.1479074906
 H,0,6.9619339554,-7.3320476535,-7.4556003266
 H,0,6.6843295249,-5.750903826,-7.7623257531
 H,0,6.7983700332,-5.9858608263,-5.638206259
 O,0,6.6127315988,-3.5444405792,-5.5563504623
 Recover connectivity data from disk.
                           ----------------------------
                           !    Current Parameters    !
                           ! (Angstroms and Degrees)  !
 --------------------------                            --------------------------
 ! Name  Definition              Value                                          !
 --------------------------------------------------------------------------------
 ! R1    R(1,2)                  1.024                                          !
 ! R2    R(1,3)                  1.0681                                         !
 ! R3    R(1,4)                  1.0237                                         !
 ! R4    R(1,5)                  1.5202                                         !
 ! R5    R(5,6)                  1.0914                                         !
 ! R6    R(5,7)                  1.5556                                         !
 ! R7    R(5,8)                  1.5416                                         !
 ! R8    R(7,11)                 1.2451                                         !
 ! R9    R(7,22)                 1.3226                                         !
 ! R10   R(8,9)                  1.1006                                         !
 ! R11   R(8,10)                 1.0985                                         !
 ! R12   R(8,12)                 1.5465                                         !
 ! R13   R(12,13)                1.0969                                         !
 ! R14   R(12,14)                1.5367                                         !
 ! R15   R(12,18)                1.537                                          !
 ! R16   R(14,15)                1.0976                                         !
 ! R17   R(14,16)                1.0974                                         !
 ! R18   R(14,17)                1.094                                          !
 ! R19   R(18,19)                1.0972                                         !
 ! R20   R(18,20)                1.0958                                         !
 ! R21   R(18,21)                1.0943                                         !
 ! R22   R(22,23)                1.0251                                         !
 ! R23   R(22,24)                1.4656                                         !
 ! R24   R(24,25)                1.095                                          !
 ! R25   R(24,26)                1.5488                                         !
 ! R26   R(24,27)                1.5592                                         !
 ! R27   R(26,30)                1.2415                                         !
 ! R28   R(26,46)                1.3367                                         !
 ! R29   R(27,28)                1.0966                                         !
 ! R30   R(27,29)                1.0961                                         !
 ! R31   R(27,31)                1.5                                            !
 ! R32   R(31,32)                1.3761                                         !
 ! R33   R(31,34)                1.4458                                         !
 ! R34   R(32,33)                1.0806                                         !
 ! R35   R(32,38)                1.3754                                         !
 ! R36   R(34,35)                1.4211                                         !
 ! R37   R(34,36)                1.4069                                         !
 ! R38   R(35,38)                1.3817                                         !
 ! R39   R(35,42)                1.3984                                         !
 ! R40   R(36,37)                1.0872                                         !
 ! R41   R(36,44)                1.3893                                         !
 ! R42   R(38,39)                1.0085                                         !
 ! R43   R(40,41)                1.0862                                         !
 ! R44   R(40,42)                1.3898                                         !
 ! R45   R(40,44)                1.4099                                         !
 ! R46   R(42,43)                1.0866                                         !
 ! R47   R(44,45)                1.0864                                         !
 ! R48   R(46,47)                1.0171                                         !
 ! R49   R(46,48)                1.4548                                         !
 ! R50   R(48,49)                1.0969                                         !
 ! R51   R(48,50)                1.5355                                         !
 ! R52   R(48,51)                1.5556                                         !
 ! R53   R(50,54)                1.2271                                         !
 ! R54   R(50,57)                1.3647                                         !
 ! R55   R(51,52)                1.0945                                         !
 ! R56   R(51,53)                1.1023                                         !
 ! R57   R(51,55)                1.4015                                         !
 ! R58   R(55,56)                0.9795                                         !
 ! R59   R(57,58)                1.013                                          !
 ! R60   R(57,59)                1.4552                                         !
 ! R61   R(59,60)                1.0937                                         !
 ! R62   R(59,61)                1.5524                                         !
 ! R63   R(59,62)                1.535                                          !
 ! R64   R(61,66)                1.2358                                         !
 ! R65   R(61,67)                1.3448                                         !
 ! R66   R(62,63)                1.0936                                         !
 ! R67   R(62,64)                1.0965                                         !
 ! R68   R(62,65)                1.0938                                         !
 ! R69   R(67,68)                1.0152                                         !
 ! R70   R(67,69)                1.4575                                         !
 ! R71   R(69,70)                1.0922                                         !
 ! R72   R(69,71)                1.5223                                         !
 ! R73   R(69,72)                1.5639                                         !
 ! R74   R(71,75)                1.3239                                         !
 ! R75   R(71,89)                1.2223                                         !
 ! R76   R(72,73)                1.0946                                         !
 ! R77   R(72,74)                1.0972                                         !
 ! R78   R(72,76)                1.5465                                         !
 ! R79   R(76,77)                1.0942                                         !
 ! R80   R(76,78)                1.096                                          !
 ! R81   R(76,79)                1.5566                                         !
 ! R82   R(79,80)                1.0971                                         !
 ! R83   R(79,81)                1.0964                                         !
 ! R84   R(79,82)                1.543                                          !
 ! R85   R(82,83)                1.0955                                         !
 ! R86   R(82,84)                1.0987                                         !
 ! R87   R(82,85)                1.4881                                         !
 ! R88   R(85,86)                1.0195                                         !
 ! R89   R(85,87)                1.0205                                         !
 ! R90   R(85,88)                1.6456                                         !
 ! A1    A(2,1,3)              108.8209                                         !
 ! A2    A(2,1,4)              108.7545                                         !
 ! A3    A(2,1,5)              113.3424                                         !
 ! A4    A(3,1,4)              111.5222                                         !
 ! A5    A(3,1,5)              101.141                                          !
 ! A6    A(4,1,5)              113.0518                                         !
 ! A7    A(1,5,6)              108.0458                                         !
 ! A8    A(1,5,7)              101.7395                                         !
 ! A9    A(1,5,8)              109.158                                          !
 ! A10   A(6,5,7)              111.8287                                         !
 ! A11   A(6,5,8)              111.5294                                         !
 ! A12   A(7,5,8)              113.9167                                         !
 ! A13   A(5,7,11)             116.7699                                         !
 ! A14   A(5,7,22)             117.0573                                         !
 ! A15   A(11,7,22)            126.1715                                         !
 ! A16   A(5,8,9)              107.5838                                         !
 ! A17   A(5,8,10)             108.1549                                         !
 ! A18   A(5,8,12)             116.2326                                         !
 ! A19   A(9,8,10)             107.27                                           !
 ! A20   A(9,8,12)             107.8268                                         !
 ! A21   A(10,8,12)            109.422                                          !
 ! A22   A(8,12,13)            108.7835                                         !
 ! A23   A(8,12,14)            112.4458                                         !
 ! A24   A(8,12,18)            108.76                                           !
 ! A25   A(13,12,14)           108.4392                                         !
 ! A26   A(13,12,18)           107.4801                                         !
 ! A27   A(14,12,18)           110.7914                                         !
 ! A28   A(12,14,15)           111.192                                          !
 ! A29   A(12,14,16)           113.1838                                         !
 ! A30   A(12,14,17)           110.125                                          !
 ! A31   A(15,14,16)           107.9095                                         !
 ! A32   A(15,14,17)           107.6526                                         !
 ! A33   A(16,14,17)           106.5203                                         !
 ! A34   A(12,18,19)           111.2552                                         !
 ! A35   A(12,18,20)           111.6233                                         !
 ! A36   A(12,18,21)           110.3354                                         !
 ! A37   A(19,18,20)           108.07                                           !
 ! A38   A(19,18,21)           107.6736                                         !
 ! A39   A(20,18,21)           107.7236                                         !
 ! A40   A(7,22,23)            122.4989                                         !
 ! A41   A(7,22,24)            124.9999                                         !
 ! A42   A(23,22,24)           111.1742                                         !
 ! A43   A(22,24,25)           108.6372                                         !
 ! A44   A(22,24,26)           103.4205                                         !
 ! A45   A(22,24,27)           112.2004                                         !
 ! A46   A(25,24,26)           109.6931                                         !
 ! A47   A(25,24,27)           108.6129                                         !
 ! A48   A(26,24,27)           114.0924                                         !
 ! A49   A(24,26,30)           119.3488                                         !
 ! A50   A(24,26,46)           116.9065                                         !
 ! A51   A(30,26,46)           123.7439                                         !
 ! A52   A(24,27,28)           106.6529                                         !
 ! A53   A(24,27,29)           109.129                                          !
 ! A54   A(24,27,31)           113.343                                          !
 ! A55   A(28,27,29)           106.9144                                         !
 ! A56   A(28,27,31)           109.4257                                         !
 ! A57   A(29,27,31)           111.0857                                         !
 ! A58   A(27,31,32)           127.3958                                         !
 ! A59   A(27,31,34)           126.1184                                         !
 ! A60   A(32,31,34)           106.4823                                         !
 ! A61   A(31,32,33)           129.7836                                         !
 ! A62   A(31,32,38)           109.8804                                         !
 ! A63   A(33,32,38)           120.3309                                         !
 ! A64   A(31,34,35)           106.9617                                         !
 ! A65   A(31,34,36)           134.0665                                         !
 ! A66   A(35,34,36)           118.9706                                         !
 ! A67   A(34,35,38)           107.1927                                         !
 ! A68   A(34,35,42)           122.3141                                         !
 ! A69   A(38,35,42)           130.491                                          !
 ! A70   A(34,36,37)           120.6329                                         !
 ! A71   A(34,36,44)           118.8404                                         !
 ! A72   A(37,36,44)           120.5266                                         !
 ! A73   A(32,38,35)           109.4763                                         !
 ! A74   A(32,38,39)           124.5654                                         !
 ! A75   A(35,38,39)           125.5573                                         !
 ! A76   A(41,40,42)           119.3428                                         !
 ! A77   A(41,40,44)           119.4117                                         !
 ! A78   A(42,40,44)           121.2451                                         !
 ! A79   A(35,42,40)           117.4289                                         !
 ! A80   A(35,42,43)           121.3751                                         !
 ! A81   A(40,42,43)           121.1958                                         !
 ! A82   A(36,44,40)           121.1987                                         !
 ! A83   A(36,44,45)           119.6448                                         !
 ! A84   A(40,44,45)           119.1564                                         !
 ! A85   A(26,46,47)           121.485                                          !
 ! A86   A(26,46,48)           122.3354                                         !
 ! A87   A(47,46,48)           116.1426                                         !
 ! A88   A(46,48,49)           108.7016                                         !
 ! A89   A(46,48,50)           107.111                                          !
 ! A90   A(46,48,51)           111.4443                                         !
 ! A91   A(49,48,50)           110.5084                                         !
 ! A92   A(49,48,51)           108.6164                                         !
 ! A93   A(50,48,51)           110.4474                                         !
 ! A94   A(48,50,54)           121.8345                                         !
 ! A95   A(48,50,57)           115.0463                                         !
 ! A96   A(54,50,57)           123.1135                                         !
 ! A97   A(48,51,52)           107.3099                                         !
 ! A98   A(48,51,53)           108.9988                                         !
 ! A99   A(48,51,55)           112.6605                                         !
 ! A100  A(52,51,53)           107.0078                                         !
 ! A101  A(52,51,55)           108.1826                                         !
 ! A102  A(53,51,55)           112.3969                                         !
 ! A103  A(51,55,56)           107.7082                                         !
 ! A104  A(50,57,58)           116.5495                                         !
 ! A105  A(50,57,59)           120.2633                                         !
 ! A106  A(58,57,59)           114.9049                                         !
 ! A107  A(57,59,60)           106.7404                                         !
 ! A108  A(57,59,61)           109.3056                                         !
 ! A109  A(57,59,62)           110.2304                                         !
 ! A110  A(60,59,61)           108.3427                                         !
 ! A111  A(60,59,62)           110.1335                                         !
 ! A112  A(61,59,62)           111.9327                                         !
 ! A113  A(59,61,66)           121.6961                                         !
 ! A114  A(59,61,67)           115.3512                                         !
 ! A115  A(66,61,67)           122.9363                                         !
 ! A116  A(59,62,63)           111.2686                                         !
 ! A117  A(59,62,64)           110.9982                                         !
 ! A118  A(59,62,65)           110.0703                                         !
 ! A119  A(63,62,64)           107.5308                                         !
 ! A120  A(63,62,65)           108.3526                                         !
 ! A121  A(64,62,65)           108.5178                                         !
 ! A122  A(61,67,68)           121.6199                                         !
 ! A123  A(61,67,69)           123.9491                                         !
 ! A124  A(68,67,69)           114.3847                                         !
 ! A125  A(67,69,70)           108.9747                                         !
 ! A126  A(67,69,71)           107.7535                                         !
 ! A127  A(67,69,72)           111.6109                                         !
 ! A128  A(70,69,71)           109.7277                                         !
 ! A129  A(70,69,72)           109.2161                                         !
 ! A130  A(71,69,72)           109.5324                                         !
 ! A131  A(69,71,75)           111.8291                                         !
 ! A132  A(69,71,89)           121.984                                          !
 ! A133  A(75,71,89)           125.932                                          !
 ! A134  A(69,72,73)           106.3903                                         !
 ! A135  A(69,72,74)           107.5033                                         !
 ! A136  A(69,72,76)           115.8851                                         !
 ! A137  A(73,72,74)           106.6509                                         !
 ! A138  A(73,72,76)           110.5004                                         !
 ! A139  A(74,72,76)           109.4708                                         !
 ! A140  A(72,76,77)           109.3713                                         !
 ! A141  A(72,76,78)           108.1868                                         !
 ! A142  A(72,76,79)           113.9682                                         !
 ! A143  A(77,76,78)           106.1658                                         !
 ! A144  A(77,76,79)           110.3714                                         !
 ! A145  A(78,76,79)           108.4565                                         !
 ! A146  A(76,79,80)           110.371                                          !
 ! A147  A(76,79,81)           108.3713                                         !
 ! A148  A(76,79,82)           116.2806                                         !
 ! A149  A(80,79,81)           105.211                                          !
 ! A150  A(80,79,82)           108.0058                                         !
 ! A151  A(81,79,82)           108.0165                                         !
 ! A152  A(79,82,83)           110.4188                                         !
 ! A153  A(79,82,84)           109.6678                                         !
 ! A154  A(79,82,85)           112.0434                                         !
 ! A155  A(83,82,84)           106.9161                                         !
 ! A156  A(83,82,85)           107.3557                                         !
 ! A157  A(84,82,85)           110.2898                                         !
 ! A158  A(82,85,86)           110.2084                                         !
 ! A159  A(82,85,87)           109.5984                                         !
 ! A160  A(82,85,88)           111.3076                                         !
 ! A161  A(86,85,87)           106.4881                                         !
 ! A162  A(86,85,88)           114.561                                          !
 ! A163  A(87,85,88)           104.321                                          !
 ! D1    D(2,1,5,6)             17.9602                                         !
 ! D2    D(2,1,5,7)            -99.888                                          !
 ! D3    D(2,1,5,8)            139.4121                                         !
 ! D4    D(3,1,5,6)            134.2624                                         !
 ! D5    D(3,1,5,7)             16.4142                                         !
 ! D6    D(3,1,5,8)           -104.2857                                         !
 ! D7    D(4,1,5,6)           -106.3866                                         !
 ! D8    D(4,1,5,7)            135.7652                                         !
 ! D9    D(4,1,5,8)             15.0653                                         !
 ! D10   D(1,5,7,11)           -16.8997                                         !
 ! D11   D(1,5,7,22)           163.4742                                         !
 ! D12   D(6,5,7,11)          -131.9915                                         !
 ! D13   D(6,5,7,22)            48.3823                                         !
 ! D14   D(8,5,7,11)           100.412                                          !
 ! D15   D(8,5,7,22)           -79.2142                                         !
 ! D16   D(1,5,8,9)            -53.24                                           !
 ! D17   D(1,5,8,10)            62.3329                                         !
 ! D18   D(1,5,8,12)          -174.1827                                         !
 ! D19   D(6,5,8,9)             66.0737                                         !
 ! D20   D(6,5,8,10)          -178.3534                                         !
 ! D21   D(6,5,8,12)           -54.869                                          !
 ! D22   D(7,5,8,9)           -166.1757                                         !
 ! D23   D(7,5,8,10)           -50.6028                                         !
 ! D24   D(7,5,8,12)            72.8816                                         !
 ! D25   D(5,7,22,23)            6.2742                                         !
 ! D26   D(5,7,22,24)          171.9432                                         !
 ! D27   D(11,7,22,23)        -173.3123                                         !
 ! D28   D(11,7,22,24)          -7.6434                                         !
 ! D29   D(5,8,12,13)          -59.9575                                         !
 ! D30   D(5,8,12,14)           60.1732                                         !
 ! D31   D(5,8,12,18)         -176.7391                                         !
 ! D32   D(9,8,12,13)          179.2295                                         !
 ! D33   D(9,8,12,14)          -60.6397                                         !
 ! D34   D(9,8,12,18)           62.448                                          !
 ! D35   D(10,8,12,13)          62.867                                          !
 ! D36   D(10,8,12,14)        -177.0023                                         !
 ! D37   D(10,8,12,18)         -53.9146                                         !
 ! D38   D(8,12,14,15)          58.5005                                         !
 ! D39   D(8,12,14,16)         -63.1568                                         !
 ! D40   D(8,12,14,17)         177.7401                                         !
 ! D41   D(13,12,14,15)        178.8302                                         !
 ! D42   D(13,12,14,16)         57.1729                                         !
 ! D43   D(13,12,14,17)        -61.9302                                         !
 ! D44   D(18,12,14,15)        -63.4414                                         !
 ! D45   D(18,12,14,16)        174.9014                                         !
 ! D46   D(18,12,14,17)         55.7983                                         !
 ! D47   D(8,12,18,19)         -63.0426                                         !
 ! D48   D(8,12,18,20)          57.7682                                         !
 ! D49   D(8,12,18,21)         177.5137                                         !
 ! D50   D(13,12,18,19)        179.3452                                         !
 ! D51   D(13,12,18,20)        -59.8439                                         !
 ! D52   D(13,12,18,21)         59.9016                                         !
 ! D53   D(14,12,18,19)         61.0326                                         !
 ! D54   D(14,12,18,20)       -178.1565                                         !
 ! D55   D(14,12,18,21)        -58.411                                          !
 ! D56   D(7,22,24,25)         -40.9858                                         !
 ! D57   D(7,22,24,26)        -157.4789                                         !
 ! D58   D(7,22,24,27)          79.1096                                         !
 ! D59   D(23,22,24,25)        126.0773                                         !
 ! D60   D(23,22,24,26)          9.5843                                         !
 ! D61   D(23,22,24,27)       -113.8273                                         !
 ! D62   D(22,24,26,30)         -3.2191                                         !
 ! D63   D(22,24,26,46)        177.121                                          !
 ! D64   D(25,24,26,30)       -118.9636                                         !
 ! D65   D(25,24,26,46)         61.3765                                         !
 ! D66   D(27,24,26,30)        118.9366                                         !
 ! D67   D(27,24,26,46)        -60.7234                                         !
 ! D68   D(22,24,27,28)        -38.9494                                         !
 ! D69   D(22,24,27,29)         76.2124                                         !
 ! D70   D(22,24,27,31)       -159.4255                                         !
 ! D71   D(25,24,27,28)         81.1601                                         !
 ! D72   D(25,24,27,29)       -163.6781                                         !
 ! D73   D(25,24,27,31)        -39.3159                                         !
 ! D74   D(26,24,27,28)       -156.1487                                         !
 ! D75   D(26,24,27,29)        -40.9869                                         !
 ! D76   D(26,24,27,31)         83.3752                                         !
 ! D77   D(24,26,46,47)          3.1125                                         !
 ! D78   D(24,26,46,48)       -179.1853                                         !
 ! D79   D(30,26,46,47)       -176.531                                          !
 ! D80   D(30,26,46,48)          1.1712                                         !
 ! D81   D(24,27,31,32)       -107.8167                                         !
 ! D82   D(24,27,31,34)         72.9662                                         !
 ! D83   D(28,27,31,32)        133.2917                                         !
 ! D84   D(28,27,31,34)        -45.9255                                         !
 ! D85   D(29,27,31,32)         15.4764                                         !
 ! D86   D(29,27,31,34)       -163.7407                                         !
 ! D87   D(27,31,32,33)          1.8535                                         !
 ! D88   D(27,31,32,38)       -178.9808                                         !
 ! D89   D(34,31,32,33)       -178.806                                          !
 ! D90   D(34,31,32,38)          0.3597                                         !
 ! D91   D(27,31,34,35)        179.5066                                         !
 ! D92   D(27,31,34,36)         -0.068                                          !
 ! D93   D(32,31,34,35)          0.1551                                         !
 ! D94   D(32,31,34,36)       -179.4194                                         !
 ! D95   D(31,32,38,35)         -0.7611                                         !
 ! D96   D(31,32,38,39)       -173.8258                                         !
 ! D97   D(33,32,38,35)        178.4961                                         !
 ! D98   D(33,32,38,39)          5.4314                                         !
 ! D99   D(31,34,35,38)         -0.6035                                         !
 ! D100  D(31,34,35,42)        179.8726                                         !
 ! D101  D(36,34,35,38)        179.0471                                         !
 ! D102  D(36,34,35,42)         -0.4768                                         !
 ! D103  D(31,34,36,37)          0.0582                                         !
 ! D104  D(31,34,36,44)       -179.9912                                         !
 ! D105  D(35,34,36,37)       -179.4766                                         !
 ! D106  D(35,34,36,44)          0.474                                          !
 ! D107  D(34,35,38,32)          0.8387                                         !
 ! D108  D(34,35,38,39)        173.8182                                         !
 ! D109  D(42,35,38,32)       -179.6904                                         !
 ! D110  D(42,35,38,39)         -6.7109                                         !
 ! D111  D(34,35,42,40)          0.1183                                         !
 ! D112  D(34,35,42,43)        179.9969                                         !
 ! D113  D(38,35,42,40)       -179.2837                                         !
 ! D114  D(38,35,42,43)          0.595                                          !
 ! D115  D(34,36,44,40)         -0.1375                                         !
 ! D116  D(34,36,44,45)        179.9569                                         !
 ! D117  D(37,36,44,40)        179.8131                                         !
 ! D118  D(37,36,44,45)         -0.0925                                         !
 ! D119  D(41,40,42,35)       -179.9799                                         !
 ! D120  D(41,40,42,43)          0.1412                                         !
 ! D121  D(44,40,42,35)          0.2342                                         !
 ! D122  D(44,40,42,43)       -179.6447                                         !
 ! D123  D(41,40,44,36)        179.9855                                         !
 ! D124  D(41,40,44,45)         -0.1085                                         !
 ! D125  D(42,40,44,36)         -0.2288                                         !
 ! D126  D(42,40,44,45)        179.6772                                         !
 ! D127  D(26,46,48,49)        -39.2856                                         !
 ! D128  D(26,46,48,50)       -158.706                                          !
 ! D129  D(26,46,48,51)         80.3878                                         !
 ! D130  D(47,46,48,49)        138.5317                                         !
 ! D131  D(47,46,48,50)         19.1112                                         !
 ! D132  D(47,46,48,51)       -101.7949                                         !
 ! D133  D(46,48,50,54)         -8.0268                                         !
 ! D134  D(46,48,50,57)        172.8216                                         !
 ! D135  D(49,48,50,54)       -126.2783                                         !
 ! D136  D(49,48,50,57)         54.5701                                         !
 ! D137  D(51,48,50,54)        113.5089                                         !
 ! D138  D(51,48,50,57)        -65.6427                                         !
 ! D139  D(46,48,51,52)        -53.5378                                         !
 ! D140  D(46,48,51,53)       -169.09                                           !
 ! D141  D(46,48,51,55)         65.4293                                         !
 ! D142  D(49,48,51,52)         66.1861                                         !
 ! D143  D(49,48,51,53)        -49.3661                                         !
 ! D144  D(49,48,51,55)       -174.8469                                         !
 ! D145  D(50,48,51,52)       -172.4723                                         !
 ! D146  D(50,48,51,53)         71.9755                                         !
 ! D147  D(50,48,51,55)        -53.5052                                         !
 ! D148  D(48,50,57,58)         11.7868                                         !
 ! D149  D(48,50,57,59)        158.5676                                         !
 ! D150  D(54,50,57,58)       -167.3527                                         !
 ! D151  D(54,50,57,59)        -20.5718                                         !
 ! D152  D(48,51,55,56)         82.8237                                         !
 ! D153  D(52,51,55,56)       -158.7191                                         !
 ! D154  D(53,51,55,56)        -40.7919                                         !
 ! D155  D(50,57,59,60)         41.3947                                         !
 ! D156  D(50,57,59,61)        -75.5785                                         !
 ! D157  D(50,57,59,62)        160.9934                                         !
 ! D158  D(58,57,59,60)       -171.3105                                         !
 ! D159  D(58,57,59,61)         71.7163                                         !
 ! D160  D(58,57,59,62)        -51.7118                                         !
 ! D161  D(57,59,61,66)         -9.8132                                         !
 ! D162  D(57,59,61,67)        171.6211                                         !
 ! D163  D(60,59,61,66)       -125.7689                                         !
 ! D164  D(60,59,61,67)         55.6654                                         !
 ! D165  D(62,59,61,66)        112.6013                                         !
 ! D166  D(62,59,61,67)        -65.9644                                         !
 ! D167  D(57,59,62,63)       -177.6193                                         !
 ! D168  D(57,59,62,64)         62.6693                                         !
 ! D169  D(57,59,62,65)        -57.491                                          !
 ! D170  D(60,59,62,63)        -60.0991                                         !
 ! D171  D(60,59,62,64)       -179.8106                                         !
 ! D172  D(60,59,62,65)         60.0291                                         !
 ! D173  D(61,59,62,63)         60.495                                          !
 ! D174  D(61,59,62,64)        -59.2164                                         !
 ! D175  D(61,59,62,65)       -179.3767                                         !
 ! D176  D(59,61,67,68)         -1.2467                                         !
 ! D177  D(59,61,67,69)        176.1387                                         !
 ! D178  D(66,61,67,68)       -179.7926                                         !
 ! D179  D(66,61,67,69)         -2.4072                                         !
 ! D180  D(61,67,69,70)        -36.5174                                         !
 ! D181  D(61,67,69,71)       -155.5219                                         !
 ! D182  D(61,67,69,72)         84.1842                                         !
 ! D183  D(68,67,69,70)        141.0382                                         !
 ! D184  D(68,67,69,71)         22.0336                                         !
 ! D185  D(68,67,69,72)        -98.2602                                         !
 ! D186  D(67,69,71,75)        154.8992                                         !
 ! D187  D(67,69,71,89)        -30.5792                                         !
 ! D188  D(70,69,71,75)         36.3764                                         !
 ! D189  D(70,69,71,89)       -149.102                                          !
 ! D190  D(72,69,71,75)        -83.5058                                         !
 ! D191  D(72,69,71,89)         91.0158                                         !
 ! D192  D(67,69,72,73)        -76.5173                                         !
 ! D193  D(67,69,72,74)         37.4325                                         !
 ! D194  D(67,69,72,76)        160.2195                                         !
 ! D195  D(70,69,72,73)         44.0432                                         !
 ! D196  D(70,69,72,74)        157.993                                          !
 ! D197  D(70,69,72,76)        -79.2201                                         !
 ! D198  D(71,69,72,73)        164.2382                                         !
 ! D199  D(71,69,72,74)        -81.812                                          !
 ! D200  D(71,69,72,76)         40.9749                                         !
 ! D201  D(69,72,76,77)         36.6358                                         !
 ! D202  D(69,72,76,78)        151.8594                                         !
 ! D203  D(69,72,76,79)        -87.4283                                         !
 ! D204  D(73,72,76,77)        -84.4477                                         !
 ! D205  D(73,72,76,78)         30.7759                                         !
 ! D206  D(73,72,76,79)        151.4883                                         !
 ! D207  D(74,72,76,77)        158.3807                                         !
 ! D208  D(74,72,76,78)        -86.3957                                         !
 ! D209  D(74,72,76,79)         34.3167                                         !
 ! D210  D(72,76,79,80)         18.622                                          !
 ! D211  D(72,76,79,81)        -96.1005                                         !
 ! D212  D(72,76,79,82)        142.0652                                         !
 ! D213  D(77,76,79,80)       -104.902                                          !
 ! D214  D(77,76,79,81)        140.3755                                         !
 ! D215  D(77,76,79,82)         18.5412                                         !
 ! D216  D(78,76,79,80)        139.1835                                         !
 ! D217  D(78,76,79,81)         24.461                                          !
 ! D218  D(78,76,79,82)        -97.3732                                         !
 ! D219  D(76,79,82,83)         28.6098                                         !
 ! D220  D(76,79,82,84)        146.1759                                         !
 ! D221  D(76,79,82,85)        -91.0032                                         !
 ! D222  D(80,79,82,83)        153.2711                                         !
 ! D223  D(80,79,82,84)        -89.1629                                         !
 ! D224  D(80,79,82,85)         33.658                                          !
 ! D225  D(81,79,82,83)        -93.4116                                         !
 ! D226  D(81,79,82,84)         24.1545                                         !
 ! D227  D(81,79,82,85)        146.9753                                         !
 ! D228  D(79,82,85,86)        173.7069                                         !
 ! D229  D(79,82,85,87)        -69.4151                                         !
 ! D230  D(79,82,85,88)         45.464                                          !
 ! D231  D(83,82,85,86)         52.3146                                         !
 ! D232  D(83,82,85,87)        169.1926                                         !
 ! D233  D(83,82,85,88)        -75.9283                                         !
 ! D234  D(84,82,85,86)        -63.8252                                         !
 ! D235  D(84,82,85,87)         53.0528                                         !
 ! D236  D(84,82,85,88)        167.9319                                         !
 --------------------------------------------------------------------------------
 Symmetry turned off by external request.
 Stoichiometry    C29H46N7O7(1+)
 Framework group  C1[X(C29H46N7O7)]
 Deg. of freedom   261
 Full point group                 C1      NOp   1
                          Input orientation:                          
 ---------------------------------------------------------------------
 Center     Atomic      Atomic             Coordinates (Angstroms)
 Number     Number       Type             X           Y           Z
 ---------------------------------------------------------------------
      1          7           0       -5.388682    2.317991    3.336201
      2          1           0       -5.599298    3.319423    3.299440
      3          1           0       -5.567272    1.892733    2.372862
      4          1           0       -5.976648    1.884105    4.053112
      5          6           0       -3.909281    2.019942    3.519176
      6          1           0       -3.425410    2.925100    3.890169
      7          6           0       -3.471642    1.684790    2.064466
      8          6           0       -3.747840    0.846908    4.506349
      9          1           0       -4.306834    1.101552    5.419587
     10          1           0       -4.226915   -0.038575    4.067000
     11          8           0       -4.377960    1.417815    1.253621
     12          6           0       -2.299562    0.496016    4.920087
     13          1           0       -1.731197    0.225890    4.021666
     14          6           0       -1.586660    1.668365    5.612022
     15          1           0       -2.131023    1.989928    6.509242
     16          1           0       -1.462218    2.543142    4.961159
     17          1           0       -0.582170    1.367035    5.923613
     18          6           0       -2.332148   -0.738991    5.834468
     19          1           0       -2.879378   -0.532296    6.762759
     20          1           0       -2.809162   -1.593688    5.341831
     21          1           0       -1.315220   -1.036877    6.107598
     22          7           0       -2.174462    1.702601    1.807262
     23          1           0       -1.469419    1.832326    2.539996
     24          6           0       -1.559691    1.255227    0.554343
     25          1           0       -2.061781    0.339299    0.225702
     26          6           0       -0.101418    0.932620    0.964575
     27          6           0       -1.681685    2.322557   -0.575769
     28          1           0       -2.677781    2.770708   -0.478567
     29          1           0       -0.953494    3.121636   -0.395255
     30          8           0        0.264436    1.148472    2.131099
     31          6           0       -1.524410    1.750210   -1.953337
     32          6           0       -0.454265    1.903400   -2.804828
     33          1           0        0.478710    2.427648   -2.655414
     34          6           0       -2.491377    0.933783   -2.652536
     35          6           0       -1.933721    0.627343   -3.923247
     36          6           0       -3.769812    0.441244   -2.332712
     37          1           0       -4.225704    0.666243   -1.371693
     38          7           0       -0.698448    1.243113   -3.986390
     39          1           0       -0.026972    1.135617   -4.731102
     40          6           0       -3.864861   -0.634808   -4.519172
     41          1           0       -4.415366   -1.246707   -5.227908
     42          6           0       -2.607056   -0.155960   -4.865837
     43          1           0       -2.166190   -0.380815   -5.833170
     44          6           0       -4.441042   -0.337533   -3.267156
     45          1           0       -5.428698   -0.725262   -3.033542
     46          7           0        0.698142    0.435794    0.015517
     47          1           0        0.377347    0.320963   -0.942858
     48          6           0        2.083376    0.075112    0.275363
     49          1           0        2.522428    0.824980    0.944750
     50          6           0        2.810223    0.070019   -1.077161
     51          6           0        2.189905   -1.320180    0.954811
     52          1           0        1.546759   -1.301199    1.840220
     53          1           0        3.222871   -1.468539    1.309761
     54          8           0        2.205228    0.193978   -2.137576
     55          8           0        1.756806   -2.360834    0.121901
     56          1           0        2.501211   -2.599479   -0.468358
     57          7           0        4.162503   -0.099609   -1.005721
     58          1           0        4.535988   -0.387563   -0.109160
     59          6           0        4.903181   -0.582109   -2.161638
     60          1           0        4.488606   -0.073039   -3.036363
     61          6           0        4.663464   -2.107215   -2.324755
     62          6           0        6.394244   -0.248671   -2.013628
     63          1           0        6.961055   -0.566792   -2.893050
     64          1           0        6.825449   -0.755010   -1.141828
     65          1           0        6.527187    0.829934   -1.889863
     66          8           0        4.089940   -2.771091   -1.454394
     67          7           0        5.148132   -2.648470   -3.456397
     68          1           0        5.618889   -2.084462   -4.157038
     69          6           0        5.100049   -4.072537   -3.763150
     70          1           0        5.255659   -4.639508   -2.842753
     71          6           0        6.221362   -4.373386   -4.747795
     72          6           0        3.727784   -4.480062   -4.392977
     73          1           0        3.008412   -4.516763   -3.568813
     74          1           0        3.410566   -3.661380   -5.050935
     75          8           0        6.606153   -5.638584   -4.684134
     76          6           0        3.715511   -5.809963   -5.182222
     77          1           0        4.371219   -6.532171   -4.686609
     78          1           0        2.704363   -6.229629   -5.129672
     79          6           0        4.109421   -5.659680   -6.680600
     80          1           0        4.639425   -4.712883   -6.843048
     81          1           0        3.190400   -5.580249   -7.273210
     82          6           0        4.966455   -6.794797   -7.278877
     83          1           0        4.762767   -7.739791   -6.763461
     84          1           0        4.699810   -6.942435   -8.334425
     85          7           0        6.423618   -6.522836   -7.147907
     86          1           0        6.961934   -7.332048   -7.455600
     87          1           0        6.684330   -5.750904   -7.762326
     88          1           0        6.798370   -5.985861   -5.638206
     89          8           0        6.612732   -3.544441   -5.556350
 ---------------------------------------------------------------------
 Rotational constants (GHZ):           0.1135966           0.0301190           0.0267552
 Standard basis: 6-31G(d) (6D, 7F)
   737 basis functions,  1388 primitive gaussians,   737 cartesian basis functions
   162 alpha electrons      162 beta electrons
       nuclear repulsion energy      5266.5197977478 Hartrees.
 NAtoms=   89 NActive=   89 NUniq=   89 SFac= 1.00D+00 NAtFMM=   60 NAOKFM=T Big=T
 Integral buffers will be    131072 words long.
 Raffenetti 2 integral format.
 Two-electron integral symmetry is turned off.
 One-electron integrals computed using PRISM.
 NBasis=   737 RedAO= T EigKep=  3.65D-04  NBF=   737
 NBsUse=   737 1.00D-06 EigRej= -1.00D+00 NBFU=   737
 Initial guess from the checkpoint file:  "conf-950.chk"
 B after Tr=     0.000000    0.000000    0.000000
         Rot=    1.000000    0.000000    0.000000    0.000000 Ang=   0.00 deg.
 Requested convergence on RMS density matrix=1.00D-08 within 128 cycles.
 Requested convergence on MAX density matrix=1.00D-06.
 Requested convergence on             energy=1.00D-06.
 No special actions if energy rises.
 SCF Done:  E(RB3LYP) =  -2042.50459168     A.U. after    3 cycles
            NFock=  3  Conv=0.61D-09     -V/T= 2.0094

 **********************************************************************

            Population analysis using the SCF Density.

 **********************************************************************

 Alpha  occ. eigenvalues --  -19.26376 -19.21632 -19.21166 -19.19965 -19.19142
 Alpha  occ. eigenvalues --  -19.18940 -19.18808 -14.59564 -14.48550 -14.44369
 Alpha  occ. eigenvalues --  -14.44197 -14.43699 -14.42958 -14.41069 -10.42940
 Alpha  occ. eigenvalues --  -10.40244 -10.38096 -10.36843 -10.36649 -10.36049
 Alpha  occ. eigenvalues --  -10.33532 -10.33060 -10.31041 -10.30877 -10.30504
 Alpha  occ. eigenvalues --  -10.30106 -10.29305 -10.28567 -10.28282 -10.28132
 Alpha  occ. eigenvalues --  -10.27915 -10.27798 -10.27031 -10.26035 -10.25154
 Alpha  occ. eigenvalues --  -10.24838 -10.24706 -10.24600 -10.24497 -10.24410
 Alpha  occ. eigenvalues --  -10.24165 -10.24052 -10.23844  -1.18708  -1.13972
 Alpha  occ. eigenvalues --   -1.13478  -1.12928  -1.11942  -1.10522  -1.06967
 Alpha  occ. eigenvalues --   -1.05593  -1.05247  -1.04201  -1.00891  -1.00366
 Alpha  occ. eigenvalues --   -0.99369  -0.96448  -0.94244  -0.89993  -0.89241
 Alpha  occ. eigenvalues --   -0.87500  -0.86572  -0.85246  -0.83985  -0.81953
 Alpha  occ. eigenvalues --   -0.80578  -0.79885  -0.79364  -0.78488  -0.78001
 Alpha  occ. eigenvalues --   -0.75814  -0.75574  -0.73407  -0.73131  -0.72603
 Alpha  occ. eigenvalues --   -0.72057  -0.69854  -0.68757  -0.68207  -0.68176
 Alpha  occ. eigenvalues --   -0.67137  -0.66379  -0.65511  -0.65348  -0.65239
 Alpha  occ. eigenvalues --   -0.65029  -0.63378  -0.62976  -0.62539  -0.61516
 Alpha  occ. eigenvalues --   -0.59882  -0.59498  -0.58868  -0.57700  -0.57451
 Alpha  occ. eigenvalues --   -0.56947  -0.56017  -0.55918  -0.55201  -0.55030
 Alpha  occ. eigenvalues --   -0.54810  -0.54415  -0.54219  -0.53768  -0.53482
 Alpha  occ. eigenvalues --   -0.53072  -0.52831  -0.52565  -0.52104  -0.51625
 Alpha  occ. eigenvalues --   -0.51495  -0.51066  -0.50547  -0.50121  -0.49710
 Alpha  occ. eigenvalues --   -0.49078  -0.48921  -0.48868  -0.48736  -0.48596
 Alpha  occ. eigenvalues --   -0.48439  -0.47742  -0.47403  -0.47259  -0.47149
 Alpha  occ. eigenvalues --   -0.46711  -0.46577  -0.46388  -0.45959  -0.45627
 Alpha  occ. eigenvalues --   -0.44937  -0.44602  -0.44340  -0.44161  -0.43883
 Alpha  occ. eigenvalues --   -0.43772  -0.43575  -0.42741  -0.42331  -0.41632
 Alpha  occ. eigenvalues --   -0.41277  -0.40952  -0.39636  -0.39435  -0.39179
 Alpha  occ. eigenvalues --   -0.39112  -0.38895  -0.38563  -0.38442  -0.35590
 Alpha  occ. eigenvalues --   -0.35329  -0.35175  -0.34564  -0.33799  -0.33429
 Alpha  occ. eigenvalues --   -0.33378  -0.32824  -0.32351  -0.31681  -0.31434
 Alpha  occ. eigenvalues --   -0.28215  -0.26645
 Alpha virt. eigenvalues --   -0.11816  -0.10707  -0.07210  -0.06685  -0.06144
 Alpha virt. eigenvalues --   -0.05749  -0.05310  -0.04385  -0.04180  -0.03339
 Alpha virt. eigenvalues --   -0.01460  -0.00813  -0.00103   0.00183   0.00642
 Alpha virt. eigenvalues --    0.00983   0.01629   0.01982   0.02112   0.02395
 Alpha virt. eigenvalues --    0.03931   0.04201   0.04387   0.04497   0.05322
 Alpha virt. eigenvalues --    0.05562   0.05868   0.06053   0.06342   0.06578
 Alpha virt. eigenvalues --    0.06813   0.07042   0.07221   0.07637   0.07874
 Alpha virt. eigenvalues --    0.08173   0.08219   0.08625   0.08689   0.09101
 Alpha virt. eigenvalues --    0.09299   0.09397   0.09684   0.09715   0.09799
 Alpha virt. eigenvalues --    0.10027   0.10568   0.10834   0.11312   0.11748
 Alpha virt. eigenvalues --    0.11914   0.12154   0.12281   0.12343   0.12609
 Alpha virt. eigenvalues --    0.12656   0.12927   0.13248   0.13724   0.14116
 Alpha virt. eigenvalues --    0.14709   0.15265   0.15366   0.15819   0.16160
 Alpha virt. eigenvalues --    0.16263   0.16632   0.17071   0.17262   0.17710
 Alpha virt. eigenvalues --    0.18057   0.18828   0.19065   0.19799   0.20320
 Alpha virt. eigenvalues --    0.20684   0.20867   0.21899   0.21910   0.22746
 Alpha virt. eigenvalues --    0.23648   0.24804   0.25645   0.25732   0.26883
 Alpha virt. eigenvalues --    0.27459   0.28144   0.28573   0.29155   0.29830
 Alpha virt. eigenvalues --    0.30634   0.32738   0.33264   0.34140   0.34736
 Alpha virt. eigenvalues --    0.36911   0.37520   0.37736   0.37988   0.39336
 Alpha virt. eigenvalues --    0.39904   0.41616   0.42043   0.42216   0.43196
 Alpha virt. eigenvalues --    0.43406   0.43855   0.44691   0.45268   0.45639
 Alpha virt. eigenvalues --    0.45867   0.46347   0.46502   0.46791   0.46913
 Alpha virt. eigenvalues --    0.47161   0.47677   0.47850   0.48356   0.48688
 Alpha virt. eigenvalues --    0.49024   0.49571   0.49840   0.50001   0.50329
 Alpha virt. eigenvalues --    0.50862   0.50977   0.51368   0.51904   0.52265
 Alpha virt. eigenvalues --    0.52439   0.53245   0.53493   0.54056   0.54344
 Alpha virt. eigenvalues --    0.54508   0.54808   0.55196   0.55284   0.55522
 Alpha virt. eigenvalues --    0.55949   0.56579   0.56755   0.56987   0.57842
 Alpha virt. eigenvalues --    0.58194   0.58490   0.58840   0.59181   0.59518
 Alpha virt. eigenvalues --    0.60043   0.60289   0.60542   0.60747   0.61116
 Alpha virt. eigenvalues --    0.61432   0.61945   0.62178   0.62684   0.63650
 Alpha virt. eigenvalues --    0.64042   0.64185   0.64287   0.64509   0.64741
 Alpha virt. eigenvalues --    0.65490   0.66350   0.66800   0.67088   0.67330
 Alpha virt. eigenvalues --    0.67653   0.68840   0.69665   0.70294   0.70743
 Alpha virt. eigenvalues --    0.71193   0.71502   0.71990   0.72491   0.72978
 Alpha virt. eigenvalues --    0.73174   0.73890   0.74319   0.74440   0.74584
 Alpha virt. eigenvalues --    0.74730   0.74969   0.75300   0.76016   0.76115
 Alpha virt. eigenvalues --    0.76527   0.76979   0.77377   0.77450   0.77664
 Alpha virt. eigenvalues --    0.78238   0.78607   0.78891   0.79192   0.79366
 Alpha virt. eigenvalues --    0.79554   0.79898   0.80287   0.80406   0.80564
 Alpha virt. eigenvalues --    0.80771   0.81075   0.81170   0.81374   0.81593
 Alpha virt. eigenvalues --    0.81892   0.82174   0.82358   0.82587   0.82911
 Alpha virt. eigenvalues --    0.83269   0.83434   0.83682   0.84417   0.84724
 Alpha virt. eigenvalues --    0.85337   0.85420   0.86041   0.86346   0.86819
 Alpha virt. eigenvalues --    0.86980   0.87439   0.87666   0.87859   0.88482
 Alpha virt. eigenvalues --    0.88886   0.89421   0.89820   0.90151   0.90687
 Alpha virt. eigenvalues --    0.90988   0.91275   0.91710   0.91902   0.92444
 Alpha virt. eigenvalues --    0.92912   0.93256   0.93837   0.94146   0.94533
 Alpha virt. eigenvalues --    0.95419   0.95935   0.96804   0.97337   0.98261
 Alpha virt. eigenvalues --    0.99373   0.99708   1.00104   1.00697   1.01050
 Alpha virt. eigenvalues --    1.01545   1.02206   1.02869   1.03728   1.04051
 Alpha virt. eigenvalues --    1.05034   1.06068   1.06436   1.06889   1.07459
 Alpha virt. eigenvalues --    1.08426   1.09202   1.10267   1.10469   1.11404
 Alpha virt. eigenvalues --    1.11627   1.13235   1.14967   1.15414   1.15850
 Alpha virt. eigenvalues --    1.16127   1.16866   1.17746   1.18792   1.19751
 Alpha virt. eigenvalues --    1.21466   1.22655   1.23217   1.23778   1.24513
 Alpha virt. eigenvalues --    1.24841   1.25608   1.26061   1.27994   1.28625
 Alpha virt. eigenvalues --    1.30101   1.30494   1.31281   1.31369   1.31678
 Alpha virt. eigenvalues --    1.32519   1.33180   1.33384   1.34702   1.35673
 Alpha virt. eigenvalues --    1.35729   1.35975   1.36598   1.37686   1.38360
 Alpha virt. eigenvalues --    1.38647   1.39242   1.40262   1.40877   1.41255
 Alpha virt. eigenvalues --    1.41691   1.43124   1.44023   1.44528   1.44839
 Alpha virt. eigenvalues --    1.45702   1.45790   1.46563   1.46864   1.47432
 Alpha virt. eigenvalues --    1.48881   1.49231   1.50348   1.51073   1.53038
 Alpha virt. eigenvalues --    1.53195   1.54466   1.55905   1.56789   1.56859
 Alpha virt. eigenvalues --    1.57842   1.59148   1.60126   1.60775   1.61062
 Alpha virt. eigenvalues --    1.61430   1.62063   1.62743   1.63066   1.63763
 Alpha virt. eigenvalues --    1.64738   1.65761   1.67086   1.67347   1.67701
 Alpha virt. eigenvalues --    1.68088   1.68576   1.69142   1.69270   1.69922
 Alpha virt. eigenvalues --    1.69970   1.70466   1.71384   1.72044   1.72370
 Alpha virt. eigenvalues --    1.73180   1.73813   1.74017   1.74320   1.74939
 Alpha virt. eigenvalues --    1.75250   1.75756   1.76067   1.77137   1.77544
 Alpha virt. eigenvalues --    1.78441   1.78695   1.78890   1.79664   1.79782
 Alpha virt. eigenvalues --    1.80193   1.80600   1.81436   1.81624   1.82519
 Alpha virt. eigenvalues --    1.82979   1.83724   1.84183   1.84245   1.85080
 Alpha virt. eigenvalues --    1.85780   1.86247   1.86557   1.86902   1.87312
 Alpha virt. eigenvalues --    1.87770   1.88200   1.89589   1.89984   1.90628
 Alpha virt. eigenvalues --    1.90798   1.91415   1.91788   1.92152   1.92955
 Alpha virt. eigenvalues --    1.93442   1.93465   1.94081   1.95157   1.95479
 Alpha virt. eigenvalues --    1.95769   1.96161   1.96603   1.96842   1.97876
 Alpha virt. eigenvalues --    1.97992   1.98350   1.98940   1.99107   2.00549
 Alpha virt. eigenvalues --    2.00977   2.01408   2.01660   2.02577   2.03369
 Alpha virt. eigenvalues --    2.04190   2.04500   2.06301   2.07131   2.07352
 Alpha virt. eigenvalues --    2.08435   2.08490   2.09338   2.09807   2.10778
 Alpha virt. eigenvalues --    2.11233   2.12098   2.13380   2.13699   2.14363
 Alpha virt. eigenvalues --    2.14923   2.15959   2.16637   2.16762   2.17687
 Alpha virt. eigenvalues --    2.17893   2.18241   2.18834   2.19466   2.20028
 Alpha virt. eigenvalues --    2.20249   2.21779   2.22198   2.22981   2.23717
 Alpha virt. eigenvalues --    2.24967   2.25417   2.26407   2.27346   2.28141
 Alpha virt. eigenvalues --    2.29813   2.30390   2.31163   2.31440   2.31878
 Alpha virt. eigenvalues --    2.32591   2.33369   2.33491   2.34176   2.34430
 Alpha virt. eigenvalues --    2.34758   2.35497   2.36279   2.36818   2.38544
 Alpha virt. eigenvalues --    2.39292   2.39972   2.40754   2.41211   2.41512
 Alpha virt. eigenvalues --    2.41690   2.42198   2.43894   2.45474   2.46440
 Alpha virt. eigenvalues --    2.46787   2.48713   2.49314   2.50015   2.50659
 Alpha virt. eigenvalues --    2.52041   2.52818   2.53892   2.54375   2.55196
 Alpha virt. eigenvalues --    2.55810   2.55936   2.57200   2.58787   2.59296
 Alpha virt. eigenvalues --    2.60389   2.60843   2.62350   2.62724   2.63656
 Alpha virt. eigenvalues --    2.64192   2.64872   2.65940   2.66544   2.66789
 Alpha virt. eigenvalues --    2.68460   2.68611   2.70019   2.70646   2.72092
 Alpha virt. eigenvalues --    2.72775   2.74066   2.75420   2.77252   2.78365
 Alpha virt. eigenvalues --    2.79954   2.81024   2.82075   2.84257   2.84918
 Alpha virt. eigenvalues --    2.86439   2.87986   2.88524   2.90361   2.92228
 Alpha virt. eigenvalues --    2.93493   2.93903   2.95847   2.98298   3.04395
 Alpha virt. eigenvalues --    3.06217   3.06760   3.09350   3.13541   3.13739
 Alpha virt. eigenvalues --    3.18716   3.38430   3.64364   3.78423   3.79357
 Alpha virt. eigenvalues --    3.89080   3.94820   3.95027   3.98116   3.99568
 Alpha virt. eigenvalues --    4.00345   4.02683   4.03900   4.04971   4.05837
 Alpha virt. eigenvalues --    4.06884   4.08400   4.09193   4.12806   4.15179
 Alpha virt. eigenvalues --    4.16413   4.16492   4.18005   4.19117   4.20635
 Alpha virt. eigenvalues --    4.21501   4.26303   4.28307   4.29166   4.31054
 Alpha virt. eigenvalues --    4.32184   4.34865   4.35156   4.38680   4.39453
 Alpha virt. eigenvalues --    4.41769   4.44668   4.50064   4.51021   4.51139
 Alpha virt. eigenvalues --    4.52088   4.55422   4.60714   4.63663   4.73888
          Condensed to atoms (all electrons):
 Mulliken charges:
               1
     1  N   -0.757862
     2  H    0.415010
     3  H    0.433687
     4  H    0.411249
     5  C   -0.116473
     6  H    0.212816
     7  C    0.652107
     8  C   -0.287201
     9  H    0.158681
    10  H    0.176131
    11  O   -0.544992
    12  C   -0.104234
    13  H    0.165671
    14  C   -0.459827
    15  H    0.153286
    16  H    0.139011
    17  H    0.186954
    18  C   -0.452021
    19  H    0.153420
    20  H    0.159095
    21  H    0.175614
    22  N   -0.613915
    23  H    0.388016
    24  C   -0.062532
    25  H    0.212230
    26  C    0.625311
    27  C   -0.353979
    28  H    0.172585
    29  H    0.161342
    30  O   -0.565439
    31  C    0.017726
    32  C    0.020852
    33  H    0.167023
    34  C    0.085697
    35  C    0.313323
    36  C   -0.226392
    37  H    0.138563
    38  N   -0.681086
    39  H    0.340368
    40  C   -0.148541
    41  H    0.135923
    42  C   -0.158254
    43  H    0.133831
    44  C   -0.139659
    45  H    0.126639
    46  N   -0.607186
    47  H    0.386701
    48  C   -0.069742
    49  H    0.180463
    50  C    0.606721
    51  C   -0.043339
    52  H    0.166302
    53  H    0.124563
    54  O   -0.530108
    55  O   -0.640476
    56  H    0.447245
    57  N   -0.580449
    58  H    0.335636
    59  C   -0.078319
    60  H    0.193066
    61  C    0.643205
    62  C   -0.463582
    63  H    0.173128
    64  H    0.163631
    65  H    0.178217
    66  O   -0.562091
    67  N   -0.608804
    68  H    0.352410
    69  C   -0.010410
    70  H    0.191232
    71  C    0.576408
    72  C   -0.279735
    73  H    0.171552
    74  H    0.146853
    75  O   -0.600257
    76  C   -0.284019
    77  H    0.170578
    78  H    0.147190
    79  C   -0.290730
    80  H    0.160416
    81  H    0.150632
    82  C   -0.143806
    83  H    0.165573
    84  H    0.149454
    85  N   -0.776617
    86  H    0.334947
    87  H    0.339928
    88  H    0.458585
    89  O   -0.504722
 Sum of Mulliken charges =   1.00000
 Mulliken charges with hydrogens summed into heavy atoms:
               1
     1  N    0.502084
     5  C    0.096343
     7  C    0.652107
     8  C    0.047611
    11  O   -0.544992
    12  C    0.061437
    14  C    0.019423
    18  C    0.036108
    22  N   -0.225899
    24  C    0.149698
    26  C    0.625311
    27  C   -0.020052
    30  O   -0.565439
    31  C    0.017726
    32  C    0.187875
    34  C    0.085697
    35  C    0.313323
    36  C   -0.087829
    38  N   -0.340718
    40  C   -0.012618
    42  C   -0.024423
    44  C   -0.013020
    46  N   -0.220485
    48  C    0.110721
    50  C    0.606721
    51  C    0.247526
    54  O   -0.530108
    55  O   -0.193231
    57  N   -0.244813
    59  C    0.114748
    61  C    0.643205
    62  C    0.051395
    66  O   -0.562091
    67  N   -0.256394
    69  C    0.180821
    71  C    0.576408
    72  C    0.038670
    75  O   -0.141672
    76  C    0.033748
    79  C    0.020319
    82  C    0.171221
    85  N   -0.101741
    89  O   -0.504722
 Electronic spatial extent (au):  <R**2>=          43665.0615
 Charge=              1.0000 electrons
 Dipole moment (field-independent basis, Debye):
    X=             -8.0304    Y=              3.4773    Z=              4.4190  Tot=              9.8034
 Quadrupole moment (field-independent basis, Debye-Ang):
   XX=           -121.1092   YY=           -188.9622   ZZ=           -117.2918
   XY=            -67.2716   XZ=           -111.8588   YZ=             82.5200
 Traceless Quadrupole moment (field-independent basis, Debye-Ang):
   XX=             21.3452   YY=            -46.5078   ZZ=             25.1626
   XY=            -67.2716   XZ=           -111.8588   YZ=             82.5200
 Octapole moment (field-independent basis, Debye-Ang**2):
  XXX=           -880.2833  YYY=            390.8863  ZZZ=            647.9561  XYY=            -62.3833
  XXY=            241.7919  XXZ=            455.2061  XZZ=           -125.6129  YZZ=           -135.5204
  YYZ=              0.0825  XYZ=            134.1000
 Hexadecapole moment (field-independent basis, Debye-Ang**3):
 XXXX=         -18246.6192 YYYY=          -9454.9099 ZZZZ=         -16104.9468 XXXY=           3936.5915
 XXXZ=           3279.0899 YYYX=           3765.7294 YYYZ=          -2512.4489 ZZZX=           2615.8017
 ZZZY=          -1718.3236 XXYY=          -3616.8485 XXZZ=          -4004.1367 YYZZ=          -2174.6893
 XXYZ=            826.4828 YYXZ=           -660.4282 ZZXY=          -1028.2177
 N-N= 5.266519797748D+03 E-N=-1.526336893668D+04  KE= 2.023430373279D+03
 Unable to Open any file for archive entry.
 1\1\GINC-AMR-126\SP\RB3LYP\6-31G(d)\C29H46N7O7(1+)\KENGMITH\28-Jun-202
 2\0\\# B3LYP/6-31G* guess=read geom=check nosymm integral(ultrafinegri
 d)\\Candidate Structure: Conf:950 Charge calc in gas phase\\1,1\N,0,-5
 .3886816255,2.3179906928,3.3362008663\H,0,-5.5992976925,3.3194228736,3
 .299439587\H,0,-5.5672724467,1.8927326639,2.3728620325\H,0,-5.97664789
 9,1.8841053165,4.0531124375\C,0,-3.9092812101,2.0199417502,3.519176207
 1\H,0,-3.4254100959,2.9250998685,3.8901687837\C,0,-3.4716415977,1.6847
 898294,2.0644664595\C,0,-3.7478399537,0.8469084715,4.5063493405\H,0,-4
 .3068342526,1.1015519338,5.4195872814\H,0,-4.2269151674,-0.038574585,4
 .0670000451\O,0,-4.3779602594,1.4178152237,1.2536213249\C,0,-2.2995620
 621,0.4960164616,4.9200866165\H,0,-1.7311971637,0.2258895197,4.0216660
 129\C,0,-1.5866600813,1.6683654216,5.6120219959\H,0,-2.1310233497,1.98
 99280894,6.5092418003\H,0,-1.4622175933,2.5431421349,4.9611592057\H,0,
 -0.5821701168,1.3670349396,5.9236127769\C,0,-2.3321481977,-0.738990526
 3,5.8344681719\H,0,-2.8793781102,-0.5322959192,6.7627585584\H,0,-2.809
 1619461,-1.593688009,5.3418305355\H,0,-1.3152200849,-1.0368771934,6.10
 75982333\N,0,-2.1744619846,1.7026009083,1.8072621717\H,0,-1.4694192389
 ,1.8323261242,2.5399960403\C,0,-1.5596912558,1.2552274832,0.5543434075
 \H,0,-2.0617809072,0.3392986634,0.2257020552\C,0,-0.1014183532,0.93262
 0369,0.9645751704\C,0,-1.6816850683,2.3225567425,-0.5757685269\H,0,-2.
 6777806774,2.7707083519,-0.4785665423\H,0,-0.9534937388,3.12163567,-0.
 3952553375\O,0,0.2644357598,1.1484719886,2.1310993149\C,0,-1.524409641
 8,1.7502103817,-1.9533367777\C,0,-0.4542649181,1.903400342,-2.80482809
 09\H,0,0.4787095155,2.4276483989,-2.6554142245\C,0,-2.4913773706,0.933
 7833573,-2.652535547\C,0,-1.9337206926,0.6273434113,-3.9232468718\C,0,
 -3.7698120674,0.4412435059,-2.3327115645\H,0,-4.2257043093,0.666243386
 3,-1.3716930166\N,0,-0.6984479328,1.2431134345,-3.9863904037\H,0,-0.02
 69715677,1.1356174112,-4.7311016814\C,0,-3.8648610183,-0.6348075027,-4
 .5191723556\H,0,-4.4153659508,-1.2467067279,-5.2279076551\C,0,-2.60705
 64864,-0.1559601119,-4.865837051\H,0,-2.1661900557,-0.3808152153,-5.83
 31704251\C,0,-4.4410417595,-0.3375334918,-3.2671558427\H,0,-5.42869762
 36,-0.7252624261,-3.0335419193\N,0,0.6981421957,0.4357941462,0.0155171
 433\H,0,0.3773465332,0.3209630003,-0.9428579238\C,0,2.0833763661,0.075
 1122571,0.2753633835\H,0,2.522427725,0.8249800783,0.9447502994\C,0,2.8
 10223208,0.0700194245,-1.0771612184\C,0,2.1899052345,-1.320180421,0.95
 4810917\H,0,1.546758501,-1.3011993363,1.8402197976\H,0,3.2228706537,-1
 .4685386822,1.3097606145\O,0,2.2052284481,0.1939777426,-2.1375759879\O
 ,0,1.7568062869,-2.3608339662,0.121900737\H,0,2.5012106337,-2.59947870
 49,-0.4683576364\N,0,4.1625026062,-0.0996092204,-1.0057213307\H,0,4.53
 59875959,-0.3875631007,-0.1091602213\C,0,4.9031805458,-0.5821088788,-2
 .1616378837\H,0,4.4886058701,-0.073039059,-3.0363634594\C,0,4.66346356
 08,-2.107214924,-2.3247545789\C,0,6.3942441971,-0.2486712802,-2.013627
 526\H,0,6.9610551193,-0.5667918649,-2.8930495326\H,0,6.8254492804,-0.7
 550103559,-1.1418284661\H,0,6.52718712,0.8299336002,-1.8898632289\O,0,
 4.0899399692,-2.7710909606,-1.4543938566\N,0,5.1481322157,-2.648470212
 9,-3.4563970492\H,0,5.6188891823,-2.0844616318,-4.157038024\C,0,5.1000
 485945,-4.0725371775,-3.7631503976\H,0,5.2556592075,-4.6395080605,-2.8
 427529385\C,0,6.2213620024,-4.373385506,-4.7477946126\C,0,3.7277842764
 ,-4.4800624198,-4.3929772079\H,0,3.0084123935,-4.5167633154,-3.5688129
 102\H,0,3.4105658364,-3.6613803387,-5.0509349823\O,0,6.6061528438,-5.6
 385838452,-4.6841343948\C,0,3.7155114086,-5.80996349,-5.1822220731\H,0
 ,4.3712193205,-6.5321709869,-4.686608613\H,0,2.7043634881,-6.229628894
 6,-5.1296717111\C,0,4.1094207984,-5.6596798889,-6.6806000783\H,0,4.639
 4250767,-4.7128828969,-6.8430481507\H,0,3.1903998899,-5.5802489526,-7.
 2732099273\C,0,4.9664551208,-6.7947972815,-7.2788771481\H,0,4.76276712
 33,-7.7397913688,-6.7634614882\H,0,4.6998101814,-6.9424351203,-8.33442
 47621\N,0,6.4236183262,-6.5228359135,-7.1479074906\H,0,6.9619339554,-7
 .3320476535,-7.4556003266\H,0,6.6843295249,-5.750903826,-7.7623257531\
 H,0,6.7983700332,-5.9858608263,-5.638206259\O,0,6.6127315988,-3.544440
 5792,-5.5563504623\\Version=ES64L-G16RevC.01\HF=-2042.5045917\RMSD=6.0
 76e-10\Dipole=-4.8209571,3.066275,4.1787295\Quadrupole=15.8696025,-34.
 5774111,18.7078087,-50.0147712,-83.1642584,61.3516277\PG=C01 [X(C29H46
 N7O7)]\\@
 The archive entry for this job was punched.


 IF THERE IS ONE WAY BETTER THAN ANOTHER IT IS THE WAY OF NATURE.

                          -- ARISTOTLE
 Job cpu time:       0 days  0 hours  3 minutes 42.5 seconds.
 Elapsed time:       0 days  0 hours  0 minutes 56.2 seconds.
 File lengths (MBytes):  RWF=    400 Int=      0 D2E=      0 Chk=     64 Scr=     16
 Normal termination of Gaussian 16 at Tue Jun 28 01:16:38 2022.
