 Entering Gaussian System, Link 0=/opt/software/Gaussian/g16-AVX2-C.01/g16/g16
 Input=charge-conf-549.com
 Output=charge-conf-549.log
 Initial command:
 /opt/software/Gaussian/g16-AVX2-C.01/g16/l1.exe "/mnt/gs18/scratch/users/kengmith/Gau-24436.inp" -scrdir="/mnt/gs18/scratch/users/kengmith/"
 Entering Link 1 = /opt/software/Gaussian/g16-AVX2-C.01/g16/l1.exe PID=     24446.
  
 Copyright (c) 1988-2019, Gaussian, Inc.  All Rights Reserved.
  
 This is part of the Gaussian(R) 16 program.  It is based on
 the Gaussian(R) 09 system (copyright 2009, Gaussian, Inc.),
 the Gaussian(R) 03 system (copyright 2003, Gaussian, Inc.),
 the Gaussian(R) 98 system (copyright 1998, Gaussian, Inc.),
 the Gaussian(R) 94 system (copyright 1995, Gaussian, Inc.),
 the Gaussian 92(TM) system (copyright 1992, Gaussian, Inc.),
 the Gaussian 90(TM) system (copyright 1990, Gaussian, Inc.),
 the Gaussian 88(TM) system (copyright 1988, Gaussian, Inc.),
 the Gaussian 86(TM) system (copyright 1986, Carnegie Mellon
 University), and the Gaussian 82(TM) system (copyright 1983,
 Carnegie Mellon University). Gaussian is a federally registered
 trademark of Gaussian, Inc.
  
 This software contains proprietary and confidential information,
 including trade secrets, belonging to Gaussian, Inc.
  
 This software is provided under written license and may be
 used, copied, transmitted, or stored only in accord with that
 written license.
  
 The following legend is applicable only to US Government
 contracts under FAR:
  
                    RESTRICTED RIGHTS LEGEND
  
 Use, reproduction and disclosure by the US Government is
 subject to restrictions as set forth in subparagraphs (a)
 and (c) of the Commercial Computer Software - Restricted
 Rights clause in FAR 52.227-19.
  
 Gaussian, Inc.
 340 Quinnipiac St., Bldg. 40, Wallingford CT 06492
  
  
 ---------------------------------------------------------------
 Warning -- This program may not be used in any manner that
 competes with the business of Gaussian, Inc. or will provide
 assistance to any competitor of Gaussian, Inc.  The licensee
 of this program is prohibited from giving any competitor of
 Gaussian, Inc. access to this program.  By using this program,
 the user acknowledges that Gaussian, Inc. is engaged in the
 business of creating and licensing software in the field of
 computational chemistry and represents and warrants to the
 licensee that it is not a competitor of Gaussian, Inc. and that
 it will not use this program in any manner prohibited above.
 ---------------------------------------------------------------
  

 Cite this work as:
 Gaussian 16, Revision C.01,
 M. J. Frisch, G. W. Trucks, H. B. Schlegel, G. E. Scuseria, 
 M. A. Robb, J. R. Cheeseman, G. Scalmani, V. Barone, 
 G. A. Petersson, H. Nakatsuji, X. Li, M. Caricato, A. V. Marenich, 
 J. Bloino, B. G. Janesko, R. Gomperts, B. Mennucci, H. P. Hratchian, 
 J. V. Ortiz, A. F. Izmaylov, J. L. Sonnenberg, D. Williams-Young, 
 F. Ding, F. Lipparini, F. Egidi, J. Goings, B. Peng, A. Petrone, 
 T. Henderson, D. Ranasinghe, V. G. Zakrzewski, J. Gao, N. Rega, 
 G. Zheng, W. Liang, M. Hada, M. Ehara, K. Toyota, R. Fukuda, 
 J. Hasegawa, M. Ishida, T. Nakajima, Y. Honda, O. Kitao, H. Nakai, 
 T. Vreven, K. Throssell, J. A. Montgomery, Jr., J. E. Peralta, 
 F. Ogliaro, M. J. Bearpark, J. J. Heyd, E. N. Brothers, K. N. Kudin, 
 V. N. Staroverov, T. A. Keith, R. Kobayashi, J. Normand, 
 K. Raghavachari, A. P. Rendell, J. C. Burant, S. S. Iyengar, 
 J. Tomasi, M. Cossi, J. M. Millam, M. Klene, C. Adamo, R. Cammi, 
 J. W. Ochterski, R. L. Martin, K. Morokuma, O. Farkas, 
 J. B. Foresman, and D. J. Fox, Gaussian, Inc., Wallingford CT, 2019.
 
 ******************************************
 Gaussian 16:  ES64L-G16RevC.01  3-Jul-2019
                26-May-2022 
 ******************************************
 %mem=8gb
 %nproc=4
 Will use up to    4 processors via shared memory.
 %chk=conf-549.chk
 -------------------------------------------------------------------
 # B3LYP/6-31G* guess=read geom=check nosymm integral(ultrafinegrid)
 -------------------------------------------------------------------
 1/29=2,38=1,172=1/1;
 2/12=2,15=1,40=1/2;
 3/5=1,6=6,7=1,11=2,14=-4,25=1,30=1,74=-5,75=-5,116=-2/1,2,3;
 4/5=1/1;
 5/5=2,38=6/2;
 6/7=2,8=2,9=2,10=2,28=1/1;
 99/5=1,9=1/99;
 ------------------------------------------------------
 Candidate Structure: Conf:549 Charge calc in gas phase
 ------------------------------------------------------
 Structure from the checkpoint file:  "conf-549.chk"
 Charge =  1 Multiplicity = 1
 Redundant internal coordinates found in file.  (old form).
 N,0,-2.6801572531,-2.8882464509,3.3112893265
 H,0,-2.8219840358,-3.0896198682,4.299457876
 H,0,-3.3589875359,-2.1750460498,3.0529280903
 C,0,-1.3168451997,-2.4277103311,3.0765757083
 H,0,-1.0260452728,-1.5465878726,3.6813088535
 C,0,-1.137735309,-2.0911252158,1.5738433658
 C,0,-0.3491796699,-3.597700846,3.4160701846
 H,0,-0.4220668953,-3.8266451043,4.4854375285
 H,0,-0.7073854297,-4.4650014059,2.8572625467
 O,0,-1.1396075661,-2.9737325627,0.7286663175
 C,0,1.0642409342,-3.2771805094,3.0297983024
 C,0,1.580380801,-3.4961738484,1.8099026316
 H,0,1.1384584826,-3.918701432,0.9205190838
 C,0,2.0546389879,-2.5339432964,3.8277579496
 C,0,3.1647866017,-2.2673504392,3.0197592703
 C,0,2.071690699,-2.0972224479,5.1530240076
 H,0,1.232984684,-2.286770305,5.8155625733
 N,0,2.8797084151,-2.7983339595,1.6720621333
 H,0,3.6280032766,-3.3934083706,1.2981700759
 C,0,4.3009521196,-1.1761533574,4.7815016727
 H,0,5.1696986555,-0.6552108592,5.1706214626
 C,0,4.2967905592,-1.6002075059,3.445291334
 H,0,5.1450551228,-1.4142532203,2.7931836184
 C,0,3.2046103955,-1.4207424984,5.6166119979
 H,0,3.2377270503,-1.0831325337,6.6478239003
 N,0,-0.9513823841,-0.7576490282,1.3193772527
 H,0,-0.9761552877,-0.146002047,2.1248783146
 C,0,-0.5323059635,-0.106779042,0.0661431622
 H,0,-0.9787786273,0.8962311504,0.0967697484
 C,0,1.0054591338,0.0596947217,0.1156721174
 C,0,-1.029877873,-0.7760499326,-1.2426547131
 H,0,-0.6400528031,-1.7965344497,-1.2636478778
 O,0,1.7749906073,-0.9154761523,0.1353094897
 C,0,-0.4729096852,-0.0149614618,-2.4650042305
 H,0,-0.7879332382,1.0393471522,-2.4204325289
 H,0,0.6235803409,-0.0145092983,-2.4206890403
 C,0,-2.5639337257,-0.8344621391,-1.2480369496
 H,0,-2.9997620114,0.1735827765,-1.2392172696
 H,0,-2.9202803625,-1.3414966532,-2.1482326003
 H,0,-2.9513646263,-1.3896071746,-0.3908596253
 C,0,-0.8788219168,-0.6093802287,-3.8193414051
 H,0,-0.2997657779,-0.1331869391,-4.6161802518
 H,0,-1.9431858923,-0.4661550735,-4.0304894963
 H,0,-0.6711865291,-1.6862150682,-3.8512854246
 N,0,1.4446009495,1.3339619781,0.1551726641
 H,0,0.7659610613,2.0822466857,0.242768646
 C,0,2.8281987601,1.7407611642,0.3700774941
 H,0,3.384678847,0.8666260126,0.7185532376
 C,0,2.8141957799,2.8020690968,1.4694076586
 C,0,3.5057829983,2.3118392062,-0.9003147693
 H,0,2.9043758407,3.1589514084,-1.2577312441
 H,0,4.4791606659,2.7204307886,-0.603744454
 O,0,1.8227617497,3.4039205732,1.8185915104
 C,0,3.6828712419,1.2837043407,-2.0216400508
 H,0,2.718319657,0.8324127915,-2.275351762
 H,0,4.331764489,0.4658230849,-1.6787172342
 C,0,4.2863424394,1.909545415,-3.2952952504
 H,0,3.6918731852,2.7770473622,-3.6064837553
 H,0,5.2936500731,2.2895749306,-3.0900709015
 N,0,4.3789906452,0.9995952299,-4.4241677168
 H,0,5.0830203283,0.2769091544,-4.3294163315
 N,0,3.5068043487,-0.4994546097,-5.9588352226
 H,0,2.7059407943,-0.6915470511,-6.5509062832
 H,0,4.3526957465,-0.390868252,-6.5097655344
 N,0,2.0435535331,1.0442063074,-5.03083299
 H,0,1.9585497033,1.7567528033,-4.3074539975
 C,0,3.2381430505,0.5753562552,-5.1081021082
 O,0,4.0433152074,3.0140650265,1.9715479712
 H,0,2.6887592058,-2.0036553425,0.9953321642
 H,0,3.9722352333,3.7451348877,2.6161317361
 Recover connectivity data from disk.
                           ----------------------------
                           !    Current Parameters    !
                           ! (Angstroms and Degrees)  !
 --------------------------                            --------------------------
 ! Name  Definition              Value                                          !
 --------------------------------------------------------------------------------
 ! R1    R(1,2)                  1.0184                                         !
 ! R2    R(1,3)                  1.0179                                         !
 ! R3    R(1,4)                  1.458                                          !
 ! R4    R(4,5)                  1.1075                                         !
 ! R5    R(4,6)                  1.5503                                         !
 ! R6    R(4,7)                  1.5558                                         !
 ! R7    R(6,10)                 1.222                                          !
 ! R8    R(6,26)                 1.3703                                         !
 ! R9    R(7,8)                  1.096                                          !
 ! R10   R(7,9)                  1.0921                                         !
 ! R11   R(7,11)                 1.4999                                         !
 ! R12   R(11,12)                1.3426                                         !
 ! R13   R(11,14)                1.4731                                         !
 ! R14   R(12,13)                1.0793                                         !
 ! R15   R(12,18)                1.4813                                         !
 ! R16   R(14,15)                1.3987                                         !
 ! R17   R(14,16)                1.3955                                         !
 ! R18   R(15,18)                1.4763                                         !
 ! R19   R(15,22)                1.3812                                         !
 ! R20   R(16,17)                1.0855                                         !
 ! R21   R(16,24)                1.3986                                         !
 ! R22   R(18,19)                1.0266                                         !
 ! R23   R(18,69)                1.0611                                         !
 ! R24   R(20,21)                1.0851                                         !
 ! R25   R(20,22)                1.4019                                         !
 ! R26   R(20,24)                1.3997                                         !
 ! R27   R(22,23)                1.086                                          !
 ! R28   R(24,25)                1.0856                                         !
 ! R29   R(26,27)                1.0117                                         !
 ! R30   R(26,28)                1.473                                          !
 ! R31   R(28,29)                1.0983                                         !
 ! R32   R(28,30)                1.5475                                         !
 ! R33   R(28,31)                1.5519                                         !
 ! R34   R(30,33)                1.2424                                         !
 ! R35   R(30,45)                1.3484                                         !
 ! R36   R(31,32)                1.0926                                         !
 ! R37   R(31,34)                1.5439                                         !
 ! R38   R(31,37)                1.5352                                         !
 ! R39   R(34,35)                1.1013                                         !
 ! R40   R(34,36)                1.0974                                         !
 ! R41   R(34,41)                1.5337                                         !
 ! R42   R(37,38)                1.0983                                         !
 ! R43   R(37,39)                1.0929                                         !
 ! R44   R(37,40)                1.0923                                         !
 ! R45   R(41,42)                1.0941                                         !
 ! R46   R(41,43)                1.0945                                         !
 ! R47   R(41,44)                1.0971                                         !
 ! R48   R(45,46)                1.014                                          !
 ! R49   R(45,47)                1.4581                                         !
 ! R50   R(47,48)                1.0933                                         !
 ! R51   R(47,49)                1.5281                                         !
 ! R52   R(47,50)                1.5489                                         !
 ! R53   R(49,53)                1.2112                                         !
 ! R54   R(49,68)                1.3446                                         !
 ! R55   R(50,51)                1.0987                                         !
 ! R56   R(50,52)                1.0965                                         !
 ! R57   R(50,54)                1.5316                                         !
 ! R58   R(54,55)                1.0947                                         !
 ! R59   R(54,56)                1.0989                                         !
 ! R60   R(54,57)                1.5421                                         !
 ! R61   R(57,58)                1.0967                                         !
 ! R62   R(57,59)                1.096                                          !
 ! R63   R(57,60)                1.4529                                         !
 ! R64   R(60,61)                1.0134                                         !
 ! R65   R(60,67)                1.3962                                         !
 ! R66   R(62,63)                1.0143                                         !
 ! R67   R(62,64)                1.0153                                         !
 ! R68   R(62,67)                1.3968                                         !
 ! R69   R(65,66)                1.0189                                         !
 ! R70   R(65,67)                1.2856                                         !
 ! R71   R(68,70)                0.9772                                         !
 ! A1    A(2,1,3)              106.9741                                         !
 ! A2    A(2,1,4)              110.4187                                         !
 ! A3    A(3,1,4)              111.1853                                         !
 ! A4    A(1,4,5)              114.136                                          !
 ! A5    A(1,4,6)              109.429                                          !
 ! A6    A(1,4,7)              107.9935                                         !
 ! A7    A(5,4,6)              109.0378                                         !
 ! A8    A(5,4,7)              108.4107                                         !
 ! A9    A(6,4,7)              107.6331                                         !
 ! A10   A(4,6,10)             120.8908                                         !
 ! A11   A(4,6,26)             114.0157                                         !
 ! A12   A(10,6,26)            125.0738                                         !
 ! A13   A(4,7,8)              109.1856                                         !
 ! A14   A(4,7,9)              106.3527                                         !
 ! A15   A(4,7,11)             111.6671                                         !
 ! A16   A(8,7,9)              108.1509                                         !
 ! A17   A(8,7,11)             111.0126                                         !
 ! A18   A(9,7,11)             110.3042                                         !
 ! A19   A(7,11,12)            124.154                                          !
 ! A20   A(7,11,14)            127.0042                                         !
 ! A21   A(12,11,14)           108.4224                                         !
 ! A22   A(11,12,13)           130.9351                                         !
 ! A23   A(11,12,18)           110.1771                                         !
 ! A24   A(13,12,18)           117.8342                                         !
 ! A25   A(11,14,15)           108.4735                                         !
 ! A26   A(11,14,16)           132.8864                                         !
 ! A27   A(15,14,16)           118.6375                                         !
 ! A28   A(14,15,18)           107.7903                                         !
 ! A29   A(14,15,22)           124.3749                                         !
 ! A30   A(18,15,22)           127.8253                                         !
 ! A31   A(14,16,17)           121.0347                                         !
 ! A32   A(14,16,24)           118.4286                                         !
 ! A33   A(17,16,24)           120.5323                                         !
 ! A34   A(12,18,15)           104.7068                                         !
 ! A35   A(12,18,19)           113.59                                           !
 ! A36   A(12,18,69)           104.733                                          !
 ! A37   A(15,18,19)           113.5917                                         !
 ! A38   A(15,18,69)           110.3398                                         !
 ! A39   A(19,18,69)           109.452                                          !
 ! A40   A(21,20,22)           119.3001                                         !
 ! A41   A(21,20,24)           119.8026                                         !
 ! A42   A(22,20,24)           120.8969                                         !
 ! A43   A(15,22,20)           116.2448                                         !
 ! A44   A(15,22,23)           122.5406                                         !
 ! A45   A(20,22,23)           121.2133                                         !
 ! A46   A(16,24,20)           121.4151                                         !
 ! A47   A(16,24,25)           119.341                                          !
 ! A48   A(20,24,25)           119.2429                                         !
 ! A49   A(6,26,27)            115.9222                                         !
 ! A50   A(6,26,28)            128.8052                                         !
 ! A51   A(27,26,28)           114.6584                                         !
 ! A52   A(26,28,29)           105.3157                                         !
 ! A53   A(26,28,30)           107.638                                          !
 ! A54   A(26,28,31)           115.8319                                         !
 ! A55   A(29,28,30)           107.7465                                         !
 ! A56   A(29,28,31)           106.6793                                         !
 ! A57   A(30,28,31)           113.0774                                         !
 ! A58   A(28,30,33)           122.1106                                         !
 ! A59   A(28,30,45)           115.2277                                         !
 ! A60   A(33,30,45)           122.6551                                         !
 ! A61   A(28,31,32)           107.734                                          !
 ! A62   A(28,31,34)           109.8429                                         !
 ! A63   A(28,31,37)           109.8616                                         !
 ! A64   A(32,31,34)           108.4515                                         !
 ! A65   A(32,31,37)           108.7185                                         !
 ! A66   A(34,31,37)           112.1154                                         !
 ! A67   A(31,34,35)           109.6763                                         !
 ! A68   A(31,34,36)           109.1894                                         !
 ! A69   A(31,34,41)           114.3679                                         !
 ! A70   A(35,34,36)           106.4867                                         !
 ! A71   A(35,34,41)           109.3338                                         !
 ! A72   A(36,34,41)           107.4732                                         !
 ! A73   A(31,37,38)           111.1981                                         !
 ! A74   A(31,37,39)           110.2648                                         !
 ! A75   A(31,37,40)           111.7793                                         !
 ! A76   A(38,37,39)           107.6409                                         !
 ! A77   A(38,37,40)           108.6291                                         !
 ! A78   A(39,37,40)           107.1545                                         !
 ! A79   A(34,41,42)           109.5343                                         !
 ! A80   A(34,41,43)           112.148                                          !
 ! A81   A(34,41,44)           110.8557                                         !
 ! A82   A(42,41,43)           108.4951                                         !
 ! A83   A(42,41,44)           107.8076                                         !
 ! A84   A(43,41,44)           107.8699                                         !
 ! A85   A(30,45,46)           118.8135                                         !
 ! A86   A(30,45,47)           125.241                                          !
 ! A87   A(46,45,47)           114.6119                                         !
 ! A88   A(45,47,48)           107.8732                                         !
 ! A89   A(45,47,49)           106.9242                                         !
 ! A90   A(45,47,50)           113.3962                                         !
 ! A91   A(48,47,49)           109.3097                                         !
 ! A92   A(48,47,50)           109.4849                                         !
 ! A93   A(49,47,50)           109.7542                                         !
 ! A94   A(47,49,53)           124.0558                                         !
 ! A95   A(47,49,68)           111.7034                                         !
 ! A96   A(53,49,68)           124.2114                                         !
 ! A97   A(47,50,51)           108.158                                          !
 ! A98   A(47,50,52)           107.691                                          !
 ! A99   A(47,50,54)           113.8008                                         !
 ! A100  A(51,50,52)           106.6548                                         !
 ! A101  A(51,50,54)           110.0418                                         !
 ! A102  A(52,50,54)           110.2131                                         !
 ! A103  A(50,54,55)           110.1536                                         !
 ! A104  A(50,54,56)           109.8417                                         !
 ! A105  A(50,54,57)           112.1788                                         !
 ! A106  A(55,54,56)           106.6056                                         !
 ! A107  A(55,54,57)           108.7048                                         !
 ! A108  A(56,54,57)           109.1907                                         !
 ! A109  A(54,57,58)           110.075                                          !
 ! A110  A(54,57,59)           110.2266                                         !
 ! A111  A(54,57,60)           114.3621                                         !
 ! A112  A(58,57,59)           106.0836                                         !
 ! A113  A(58,57,60)           108.0291                                         !
 ! A114  A(59,57,60)           107.7007                                         !
 ! A115  A(57,60,61)           114.7272                                         !
 ! A116  A(57,60,67)           121.2527                                         !
 ! A117  A(61,60,67)           113.3783                                         !
 ! A118  A(63,62,64)           111.1819                                         !
 ! A119  A(63,62,67)           110.4488                                         !
 ! A120  A(64,62,67)           114.1063                                         !
 ! A121  A(66,65,67)           112.0375                                         !
 ! A122  A(60,67,62)           112.024                                          !
 ! A123  A(60,67,65)           128.244                                          !
 ! A124  A(62,67,65)           119.7313                                         !
 ! A125  A(49,68,70)           107.3252                                         !
 ! D1    D(2,1,4,5)            -55.9723                                         !
 ! D2    D(2,1,4,6)           -178.4568                                         !
 ! D3    D(2,1,4,7)             64.6524                                         !
 ! D4    D(3,1,4,5)             62.6071                                         !
 ! D5    D(3,1,4,6)            -59.8774                                         !
 ! D6    D(3,1,4,7)           -176.7683                                         !
 ! D7    D(1,4,6,10)           -69.0768                                         !
 ! D8    D(1,4,6,26)           112.4578                                         !
 ! D9    D(5,4,6,10)           165.4447                                         !
 ! D10   D(5,4,6,26)           -13.0207                                         !
 ! D11   D(7,4,6,10)            48.0413                                         !
 ! D12   D(7,4,6,26)          -130.4241                                         !
 ! D13   D(1,4,7,8)            -64.4979                                         !
 ! D14   D(1,4,7,9)             51.9794                                         !
 ! D15   D(1,4,7,11)           172.3571                                         !
 ! D16   D(5,4,7,8)             59.6434                                         !
 ! D17   D(5,4,7,9)            176.1207                                         !
 ! D18   D(5,4,7,11)           -63.5016                                         !
 ! D19   D(6,4,7,8)            177.4533                                         !
 ! D20   D(6,4,7,9)            -66.0694                                         !
 ! D21   D(6,4,7,11)            54.3083                                         !
 ! D22   D(4,6,26,27)           -1.5924                                         !
 ! D23   D(4,6,26,28)          168.8551                                         !
 ! D24   D(10,6,26,27)        -179.9832                                         !
 ! D25   D(10,6,26,28)          -9.5358                                         !
 ! D26   D(4,7,11,12)          -86.7366                                         !
 ! D27   D(4,7,11,14)           84.9543                                         !
 ! D28   D(8,7,11,12)          151.1629                                         !
 ! D29   D(8,7,11,14)          -37.1462                                         !
 ! D30   D(9,7,11,12)           31.2989                                         !
 ! D31   D(9,7,11,14)         -157.0102                                         !
 ! D32   D(7,11,12,13)          -0.4931                                         !
 ! D33   D(7,11,12,18)         167.2431                                         !
 ! D34   D(14,11,12,13)       -173.5063                                         !
 ! D35   D(14,11,12,18)         -5.7701                                         !
 ! D36   D(7,11,14,15)        -170.3514                                         !
 ! D37   D(7,11,14,16)          10.2531                                         !
 ! D38   D(12,11,14,15)          2.4073                                         !
 ! D39   D(12,11,14,16)       -176.9882                                         !
 ! D40   D(11,12,18,15)          6.8156                                         !
 ! D41   D(11,12,18,19)        131.2957                                         !
 ! D42   D(11,12,18,69)       -109.3264                                         !
 ! D43   D(13,12,18,15)        176.3606                                         !
 ! D44   D(13,12,18,19)        -59.1592                                         !
 ! D45   D(13,12,18,69)         60.2187                                         !
 ! D46   D(11,14,15,18)          1.934                                          !
 ! D47   D(11,14,15,22)       -179.1125                                         !
 ! D48   D(16,14,15,18)       -178.5707                                         !
 ! D49   D(16,14,15,22)          0.3829                                         !
 ! D50   D(11,14,16,17)         -0.3868                                         !
 ! D51   D(11,14,16,24)        178.8543                                         !
 ! D52   D(15,14,16,17)       -179.7335                                         !
 ! D53   D(15,14,16,24)         -0.4924                                         !
 ! D54   D(14,15,18,12)         -5.118                                          !
 ! D55   D(14,15,18,19)       -129.597                                          !
 ! D56   D(14,15,18,69)        107.0741                                         !
 ! D57   D(22,15,18,12)        175.9755                                         !
 ! D58   D(22,15,18,19)         51.4964                                         !
 ! D59   D(22,15,18,69)        -71.8325                                         !
 ! D60   D(14,15,22,20)          0.0261                                         !
 ! D61   D(14,15,22,23)        179.6316                                         !
 ! D62   D(18,15,22,20)        178.7646                                         !
 ! D63   D(18,15,22,23)         -1.6298                                         !
 ! D64   D(14,16,24,20)          0.2215                                         !
 ! D65   D(14,16,24,25)       -179.3976                                         !
 ! D66   D(17,16,24,20)        179.4666                                         !
 ! D67   D(17,16,24,25)         -0.1525                                         !
 ! D68   D(21,20,22,15)        179.4306                                         !
 ! D69   D(21,20,22,23)         -0.1805                                         !
 ! D70   D(24,20,22,15)         -0.3132                                         !
 ! D71   D(24,20,22,23)       -179.9244                                         !
 ! D72   D(21,20,24,16)       -179.5477                                         !
 ! D73   D(21,20,24,25)          0.0718                                         !
 ! D74   D(22,20,24,16)          0.1949                                         !
 ! D75   D(22,20,24,25)        179.8144                                         !
 ! D76   D(6,26,28,29)         151.8516                                         !
 ! D77   D(6,26,28,30)         -93.3962                                         !
 ! D78   D(6,26,28,31)          34.2578                                         !
 ! D79   D(27,26,28,29)        -37.601                                          !
 ! D80   D(27,26,28,30)         77.1512                                         !
 ! D81   D(27,26,28,31)       -155.1948                                         !
 ! D82   D(26,28,30,33)         64.6885                                         !
 ! D83   D(26,28,30,45)       -114.4011                                         !
 ! D84   D(29,28,30,33)        177.8155                                         !
 ! D85   D(29,28,30,45)         -1.2741                                         !
 ! D86   D(31,28,30,33)        -64.5438                                         !
 ! D87   D(31,28,30,45)        116.3666                                         !
 ! D88   D(26,28,31,32)        -60.0843                                         !
 ! D89   D(26,28,31,34)       -178.0323                                         !
 ! D90   D(26,28,31,37)         58.1944                                         !
 ! D91   D(29,28,31,32)       -176.9178                                         !
 ! D92   D(29,28,31,34)         65.1342                                         !
 ! D93   D(29,28,31,37)        -58.6391                                         !
 ! D94   D(30,28,31,32)         64.8185                                         !
 ! D95   D(30,28,31,34)        -53.1296                                         !
 ! D96   D(30,28,31,37)       -176.9029                                         !
 ! D97   D(28,30,45,46)          5.9701                                         !
 ! D98   D(28,30,45,47)        172.0397                                         !
 ! D99   D(33,30,45,46)       -173.114                                          !
 ! D100  D(33,30,45,47)         -7.0444                                         !
 ! D101  D(28,31,34,35)        -57.983                                          !
 ! D102  D(28,31,34,36)         58.3491                                         !
 ! D103  D(28,31,34,41)        178.7904                                         !
 ! D104  D(32,31,34,35)       -175.485                                          !
 ! D105  D(32,31,34,36)        -59.1529                                         !
 ! D106  D(32,31,34,41)         61.2884                                         !
 ! D107  D(37,31,34,35)         64.4644                                         !
 ! D108  D(37,31,34,36)       -179.2035                                         !
 ! D109  D(37,31,34,41)        -58.7623                                         !
 ! D110  D(28,31,37,38)         62.9908                                         !
 ! D111  D(28,31,37,39)       -177.6893                                         !
 ! D112  D(28,31,37,40)        -58.6048                                         !
 ! D113  D(32,31,37,38)       -179.3409                                         !
 ! D114  D(32,31,37,39)        -60.021                                          !
 ! D115  D(32,31,37,40)         59.0635                                         !
 ! D116  D(34,31,37,38)        -59.446                                          !
 ! D117  D(34,31,37,39)         59.874                                          !
 ! D118  D(34,31,37,40)        178.9585                                         !
 ! D119  D(31,34,41,42)       -169.5212                                         !
 ! D120  D(31,34,41,43)         69.9597                                         !
 ! D121  D(31,34,41,44)        -50.6777                                         !
 ! D122  D(35,34,41,42)         67.0675                                         !
 ! D123  D(35,34,41,43)        -53.4516                                         !
 ! D124  D(35,34,41,44)       -174.089                                          !
 ! D125  D(36,34,41,42)        -48.1304                                         !
 ! D126  D(36,34,41,43)       -168.6495                                         !
 ! D127  D(36,34,41,44)         70.7131                                         !
 ! D128  D(30,45,47,48)        -12.9339                                         !
 ! D129  D(30,45,47,49)       -130.4046                                         !
 ! D130  D(30,45,47,50)        108.4918                                         !
 ! D131  D(46,45,47,48)        153.6502                                         !
 ! D132  D(46,45,47,49)         36.1795                                         !
 ! D133  D(46,45,47,50)        -84.9241                                         !
 ! D134  D(45,47,49,53)        -16.8419                                         !
 ! D135  D(45,47,49,68)        165.0612                                         !
 ! D136  D(48,47,49,53)       -133.3641                                         !
 ! D137  D(48,47,49,68)         48.539                                          !
 ! D138  D(50,47,49,53)        106.5451                                         !
 ! D139  D(50,47,49,68)        -71.5518                                         !
 ! D140  D(45,47,50,51)         56.9176                                         !
 ! D141  D(45,47,50,52)        171.8286                                         !
 ! D142  D(45,47,50,54)        -65.6877                                         !
 ! D143  D(48,47,50,51)        177.4353                                         !
 ! D144  D(48,47,50,52)        -67.6537                                         !
 ! D145  D(48,47,50,54)         54.83                                           !
 ! D146  D(49,47,50,51)        -62.5806                                         !
 ! D147  D(49,47,50,52)         52.3304                                         !
 ! D148  D(49,47,50,54)        174.8141                                         !
 ! D149  D(47,49,68,70)        175.8494                                         !
 ! D150  D(53,49,68,70)         -2.244                                          !
 ! D151  D(47,50,54,55)         55.5092                                         !
 ! D152  D(47,50,54,56)        -61.6245                                         !
 ! D153  D(47,50,54,57)        176.742                                          !
 ! D154  D(51,50,54,55)        -66.0556                                         !
 ! D155  D(51,50,54,56)        176.8108                                         !
 ! D156  D(51,50,54,57)         55.1773                                         !
 ! D157  D(52,50,54,55)        176.5951                                         !
 ! D158  D(52,50,54,56)         59.4614                                         !
 ! D159  D(52,50,54,57)        -62.1721                                         !
 ! D160  D(50,54,57,58)        -53.6516                                         !
 ! D161  D(50,54,57,59)         63.0278                                         !
 ! D162  D(50,54,57,60)       -175.4692                                         !
 ! D163  D(55,54,57,58)         68.4104                                         !
 ! D164  D(55,54,57,59)       -174.9102                                         !
 ! D165  D(55,54,57,60)        -53.4072                                         !
 ! D166  D(56,54,57,58)       -175.657                                          !
 ! D167  D(56,54,57,59)        -58.9776                                         !
 ! D168  D(56,54,57,60)         62.5254                                         !
 ! D169  D(54,57,60,61)        -71.1509                                         !
 ! D170  D(54,57,60,67)         71.0806                                         !
 ! D171  D(58,57,60,61)        165.917                                          !
 ! D172  D(58,57,60,67)        -51.8515                                         !
 ! D173  D(59,57,60,61)         51.731                                          !
 ! D174  D(59,57,60,67)       -166.0376                                         !
 ! D175  D(57,60,67,62)       -167.208                                          !
 ! D176  D(57,60,67,65)         12.4983                                         !
 ! D177  D(61,60,67,62)        -24.5139                                         !
 ! D178  D(61,60,67,65)        155.1924                                         !
 ! D179  D(63,62,67,60)       -170.8891                                         !
 ! D180  D(63,62,67,65)          9.3765                                         !
 ! D181  D(64,62,67,60)        -44.7806                                         !
 ! D182  D(64,62,67,65)        135.485                                          !
 ! D183  D(66,65,67,60)         -5.7338                                         !
 ! D184  D(66,65,67,62)        173.9527                                         !
 --------------------------------------------------------------------------------
 Symmetry turned off by external request.
 Stoichiometry    C23H36N7O4(1+)
 Framework group  C1[X(C23H36N7O4)]
 Deg. of freedom   204
 Full point group                 C1      NOp   1
                          Input orientation:                          
 ---------------------------------------------------------------------
 Center     Atomic      Atomic             Coordinates (Angstroms)
 Number     Number       Type             X           Y           Z
 ---------------------------------------------------------------------
      1          7           0       -2.680157   -2.888246    3.311289
      2          1           0       -2.821984   -3.089620    4.299458
      3          1           0       -3.358988   -2.175046    3.052928
      4          6           0       -1.316845   -2.427710    3.076576
      5          1           0       -1.026045   -1.546588    3.681309
      6          6           0       -1.137735   -2.091125    1.573843
      7          6           0       -0.349180   -3.597701    3.416070
      8          1           0       -0.422067   -3.826645    4.485438
      9          1           0       -0.707385   -4.465001    2.857263
     10          8           0       -1.139608   -2.973733    0.728666
     11          6           0        1.064241   -3.277181    3.029798
     12          6           0        1.580381   -3.496174    1.809903
     13          1           0        1.138458   -3.918701    0.920519
     14          6           0        2.054639   -2.533943    3.827758
     15          6           0        3.164787   -2.267350    3.019759
     16          6           0        2.071691   -2.097222    5.153024
     17          1           0        1.232985   -2.286770    5.815563
     18          7           0        2.879708   -2.798334    1.672062
     19          1           0        3.628003   -3.393408    1.298170
     20          6           0        4.300952   -1.176153    4.781502
     21          1           0        5.169699   -0.655211    5.170621
     22          6           0        4.296791   -1.600208    3.445291
     23          1           0        5.145055   -1.414253    2.793184
     24          6           0        3.204610   -1.420742    5.616612
     25          1           0        3.237727   -1.083133    6.647824
     26          7           0       -0.951382   -0.757649    1.319377
     27          1           0       -0.976155   -0.146002    2.124878
     28          6           0       -0.532306   -0.106779    0.066143
     29          1           0       -0.978779    0.896231    0.096770
     30          6           0        1.005459    0.059695    0.115672
     31          6           0       -1.029878   -0.776050   -1.242655
     32          1           0       -0.640053   -1.796534   -1.263648
     33          8           0        1.774991   -0.915476    0.135309
     34          6           0       -0.472910   -0.014961   -2.465004
     35          1           0       -0.787933    1.039347   -2.420433
     36          1           0        0.623580   -0.014509   -2.420689
     37          6           0       -2.563934   -0.834462   -1.248037
     38          1           0       -2.999762    0.173583   -1.239217
     39          1           0       -2.920280   -1.341497   -2.148233
     40          1           0       -2.951365   -1.389607   -0.390860
     41          6           0       -0.878822   -0.609380   -3.819341
     42          1           0       -0.299766   -0.133187   -4.616180
     43          1           0       -1.943186   -0.466155   -4.030489
     44          1           0       -0.671187   -1.686215   -3.851285
     45          7           0        1.444601    1.333962    0.155173
     46          1           0        0.765961    2.082247    0.242769
     47          6           0        2.828199    1.740761    0.370077
     48          1           0        3.384679    0.866626    0.718553
     49          6           0        2.814196    2.802069    1.469408
     50          6           0        3.505783    2.311839   -0.900315
     51          1           0        2.904376    3.158951   -1.257731
     52          1           0        4.479161    2.720431   -0.603744
     53          8           0        1.822762    3.403921    1.818592
     54          6           0        3.682871    1.283704   -2.021640
     55          1           0        2.718320    0.832413   -2.275352
     56          1           0        4.331764    0.465823   -1.678717
     57          6           0        4.286342    1.909545   -3.295295
     58          1           0        3.691873    2.777047   -3.606484
     59          1           0        5.293650    2.289575   -3.090071
     60          7           0        4.378991    0.999595   -4.424168
     61          1           0        5.083020    0.276909   -4.329416
     62          7           0        3.506804   -0.499455   -5.958835
     63          1           0        2.705941   -0.691547   -6.550906
     64          1           0        4.352696   -0.390868   -6.509766
     65          7           0        2.043554    1.044206   -5.030833
     66          1           0        1.958550    1.756753   -4.307454
     67          6           0        3.238143    0.575356   -5.108102
     68          8           0        4.043315    3.014065    1.971548
     69          1           0        2.688759   -2.003655    0.995332
     70          1           0        3.972235    3.745135    2.616132
 ---------------------------------------------------------------------
 Rotational constants (GHZ):           0.1441264           0.0831052           0.0662159
 Standard basis: 6-31G(d) (6D, 7F)
   582 basis functions,  1096 primitive gaussians,   582 cartesian basis functions
   127 alpha electrons      127 beta electrons
       nuclear repulsion energy      3827.8071259323 Hartrees.
 NAtoms=   70 NActive=   70 NUniq=   70 SFac= 1.00D+00 NAtFMM=   60 NAOKFM=T Big=T
 Integral buffers will be    131072 words long.
 Raffenetti 2 integral format.
 Two-electron integral symmetry is turned off.
 One-electron integrals computed using PRISM.
 NBasis=   582 RedAO= T EigKep=  3.72D-04  NBF=   582
 NBsUse=   582 1.00D-06 EigRej= -1.00D+00 NBFU=   582
 Initial guess from the checkpoint file:  "conf-549.chk"
 B after Tr=     0.000000    0.000000    0.000000
         Rot=    1.000000    0.000000    0.000000    0.000000 Ang=   0.00 deg.
 Requested convergence on RMS density matrix=1.00D-08 within 128 cycles.
 Requested convergence on MAX density matrix=1.00D-06.
 Requested convergence on             energy=1.00D-06.
 No special actions if energy rises.
 SCF Done:  E(RB3LYP) =  -1582.09084421     A.U. after    2 cycles
            NFock=  2  Conv=0.57D-08     -V/T= 2.0095

 **********************************************************************

            Population analysis using the SCF Density.

 **********************************************************************

 Alpha  occ. eigenvalues --  -19.31224 -19.25696 -19.25070 -19.21478 -14.58708
 Alpha  occ. eigenvalues --  -14.48934 -14.47329 -14.42458 -14.41669 -14.40380
 Alpha  occ. eigenvalues --  -14.35312 -10.43710 -10.41796 -10.39007 -10.37508
 Alpha  occ. eigenvalues --  -10.36093 -10.35875 -10.34835 -10.34564 -10.34349
 Alpha  occ. eigenvalues --  -10.33967 -10.33784 -10.33736 -10.32641 -10.32469
 Alpha  occ. eigenvalues --  -10.32194 -10.30840 -10.30762 -10.30101 -10.28209
 Alpha  occ. eigenvalues --  -10.27616 -10.25767 -10.24674 -10.23071  -1.22225
 Alpha  occ. eigenvalues --   -1.16530  -1.15115  -1.13523  -1.13379  -1.05327
 Alpha  occ. eigenvalues --   -1.04480  -1.03121  -0.99583  -0.99016  -0.95856
 Alpha  occ. eigenvalues --   -0.94892  -0.91470  -0.90684  -0.89429  -0.88375
 Alpha  occ. eigenvalues --   -0.87507  -0.85105  -0.84622  -0.82287  -0.78701
 Alpha  occ. eigenvalues --   -0.77053  -0.76640  -0.75727  -0.73900  -0.73612
 Alpha  occ. eigenvalues --   -0.72442  -0.71415  -0.70490  -0.70284  -0.69455
 Alpha  occ. eigenvalues --   -0.67889  -0.67374  -0.65024  -0.64436  -0.62825
 Alpha  occ. eigenvalues --   -0.62768  -0.61978  -0.61509  -0.61062  -0.60625
 Alpha  occ. eigenvalues --   -0.60036  -0.59683  -0.59136  -0.58603  -0.57955
 Alpha  occ. eigenvalues --   -0.57373  -0.57136  -0.56882  -0.56522  -0.55571
 Alpha  occ. eigenvalues --   -0.54321  -0.54073  -0.53622  -0.52992  -0.52201
 Alpha  occ. eigenvalues --   -0.52048  -0.51293  -0.51106  -0.51019  -0.50505
 Alpha  occ. eigenvalues --   -0.50295  -0.49976  -0.49561  -0.49046  -0.48310
 Alpha  occ. eigenvalues --   -0.48218  -0.48023  -0.47187  -0.46932  -0.46565
 Alpha  occ. eigenvalues --   -0.45501  -0.45060  -0.44321  -0.44028  -0.43495
 Alpha  occ. eigenvalues --   -0.43101  -0.43004  -0.42729  -0.41005  -0.40415
 Alpha  occ. eigenvalues --   -0.40051  -0.39574  -0.39088  -0.38976  -0.38471
 Alpha  occ. eigenvalues --   -0.36202  -0.35852  -0.34745  -0.33438  -0.33016
 Alpha  occ. eigenvalues --   -0.32563  -0.29590
 Alpha virt. eigenvalues --   -0.16651  -0.14261  -0.11534  -0.10566  -0.08997
 Alpha virt. eigenvalues --   -0.07837  -0.07147  -0.04610  -0.03306  -0.03080
 Alpha virt. eigenvalues --   -0.02199  -0.01887  -0.01040  -0.00519   0.00003
 Alpha virt. eigenvalues --    0.00750   0.00966   0.01472   0.01723   0.02919
 Alpha virt. eigenvalues --    0.02970   0.03393   0.03821   0.04067   0.04505
 Alpha virt. eigenvalues --    0.04810   0.05502   0.05964   0.06471   0.06777
 Alpha virt. eigenvalues --    0.06828   0.07003   0.07389   0.07685   0.08083
 Alpha virt. eigenvalues --    0.08263   0.08366   0.08933   0.09207   0.09417
 Alpha virt. eigenvalues --    0.09729   0.10084   0.10542   0.10722   0.11703
 Alpha virt. eigenvalues --    0.11987   0.12193   0.12389   0.12719   0.13285
 Alpha virt. eigenvalues --    0.14284   0.14385   0.15049   0.15304   0.15652
 Alpha virt. eigenvalues --    0.16009   0.16972   0.17537   0.18019   0.18143
 Alpha virt. eigenvalues --    0.19074   0.19687   0.20206   0.20329   0.21662
 Alpha virt. eigenvalues --    0.21890   0.22708   0.23220   0.24918   0.25585
 Alpha virt. eigenvalues --    0.27152   0.27841   0.28080   0.28609   0.31385
 Alpha virt. eigenvalues --    0.32052   0.35996   0.36828   0.37450   0.38942
 Alpha virt. eigenvalues --    0.39343   0.39633   0.40796   0.41281   0.41641
 Alpha virt. eigenvalues --    0.42083   0.42327   0.42499   0.43036   0.43188
 Alpha virt. eigenvalues --    0.44172   0.44515   0.45169   0.45722   0.45850
 Alpha virt. eigenvalues --    0.46019   0.47265   0.47591   0.47834   0.47997
 Alpha virt. eigenvalues --    0.48500   0.48656   0.48979   0.49470   0.49923
 Alpha virt. eigenvalues --    0.50393   0.50794   0.51334   0.52076   0.52203
 Alpha virt. eigenvalues --    0.52948   0.53636   0.53904   0.54660   0.54771
 Alpha virt. eigenvalues --    0.55317   0.55983   0.56141   0.56497   0.57344
 Alpha virt. eigenvalues --    0.57611   0.57803   0.58928   0.59193   0.59591
 Alpha virt. eigenvalues --    0.60641   0.60673   0.61257   0.62645   0.62741
 Alpha virt. eigenvalues --    0.63544   0.64497   0.65272   0.65501   0.65782
 Alpha virt. eigenvalues --    0.65913   0.66600   0.67688   0.68036   0.68848
 Alpha virt. eigenvalues --    0.69424   0.69627   0.69964   0.70471   0.70761
 Alpha virt. eigenvalues --    0.71374   0.72085   0.72252   0.72424   0.72973
 Alpha virt. eigenvalues --    0.73683   0.73851   0.74499   0.74929   0.75440
 Alpha virt. eigenvalues --    0.75923   0.76432   0.77152   0.77952   0.78111
 Alpha virt. eigenvalues --    0.78590   0.78703   0.79133   0.79326   0.79533
 Alpha virt. eigenvalues --    0.79946   0.80437   0.81044   0.81561   0.81678
 Alpha virt. eigenvalues --    0.81895   0.82440   0.83042   0.83220   0.83463
 Alpha virt. eigenvalues --    0.83516   0.83639   0.84000   0.84384   0.84502
 Alpha virt. eigenvalues --    0.84634   0.85172   0.85945   0.86378   0.87078
 Alpha virt. eigenvalues --    0.87933   0.88313   0.88509   0.89158   0.89558
 Alpha virt. eigenvalues --    0.90389   0.90813   0.91000   0.91897   0.93457
 Alpha virt. eigenvalues --    0.94026   0.94329   0.94689   0.95307   0.95783
 Alpha virt. eigenvalues --    0.96565   0.97319   0.97437   0.98294   0.98988
 Alpha virt. eigenvalues --    1.01081   1.01363   1.03018   1.03553   1.03912
 Alpha virt. eigenvalues --    1.06048   1.06219   1.06850   1.07790   1.09349
 Alpha virt. eigenvalues --    1.10970   1.11356   1.12029   1.12537   1.14123
 Alpha virt. eigenvalues --    1.14732   1.16212   1.16490   1.17157   1.18571
 Alpha virt. eigenvalues --    1.19020   1.20118   1.21101   1.22208   1.22745
 Alpha virt. eigenvalues --    1.23838   1.26094   1.27663   1.27920   1.28813
 Alpha virt. eigenvalues --    1.28930   1.29582   1.30490   1.31924   1.33313
 Alpha virt. eigenvalues --    1.33903   1.33995   1.34546   1.35180   1.35757
 Alpha virt. eigenvalues --    1.36104   1.36982   1.38361   1.39090   1.40215
 Alpha virt. eigenvalues --    1.40882   1.42648   1.43349   1.45408   1.46193
 Alpha virt. eigenvalues --    1.46591   1.46800   1.48650   1.50164   1.52110
 Alpha virt. eigenvalues --    1.53421   1.54722   1.55958   1.56033   1.57166
 Alpha virt. eigenvalues --    1.57846   1.59136   1.59938   1.60244   1.61649
 Alpha virt. eigenvalues --    1.62021   1.63806   1.64519   1.65600   1.65822
 Alpha virt. eigenvalues --    1.66078   1.66410   1.67631   1.68098   1.68657
 Alpha virt. eigenvalues --    1.69005   1.69259   1.70969   1.71125   1.71524
 Alpha virt. eigenvalues --    1.72137   1.72502   1.74235   1.74678   1.76044
 Alpha virt. eigenvalues --    1.76563   1.76734   1.77556   1.78327   1.78682
 Alpha virt. eigenvalues --    1.79500   1.79578   1.80836   1.81489   1.82383
 Alpha virt. eigenvalues --    1.82783   1.83412   1.84829   1.84963   1.85876
 Alpha virt. eigenvalues --    1.86502   1.86972   1.87582   1.87979   1.88427
 Alpha virt. eigenvalues --    1.89279   1.89697   1.90798   1.91423   1.91764
 Alpha virt. eigenvalues --    1.92245   1.92967   1.93457   1.93841   1.94405
 Alpha virt. eigenvalues --    1.94852   1.95793   1.96673   1.97342   1.97618
 Alpha virt. eigenvalues --    1.98083   1.99140   2.01159   2.02533   2.03908
 Alpha virt. eigenvalues --    2.04461   2.04854   2.05218   2.06375   2.07230
 Alpha virt. eigenvalues --    2.09171   2.09587   2.10246   2.10447   2.11412
 Alpha virt. eigenvalues --    2.11836   2.12276   2.13771   2.14473   2.14848
 Alpha virt. eigenvalues --    2.17919   2.19163   2.20671   2.21698   2.22184
 Alpha virt. eigenvalues --    2.22381   2.23333   2.23571   2.24169   2.24664
 Alpha virt. eigenvalues --    2.25427   2.26193   2.27690   2.28507   2.28546
 Alpha virt. eigenvalues --    2.28927   2.30071   2.31252   2.31611   2.32995
 Alpha virt. eigenvalues --    2.33954   2.34709   2.35269   2.37503   2.38567
 Alpha virt. eigenvalues --    2.38834   2.40204   2.41911   2.42480   2.43556
 Alpha virt. eigenvalues --    2.43708   2.45622   2.46523   2.47350   2.48245
 Alpha virt. eigenvalues --    2.49403   2.50592   2.51218   2.52281   2.52788
 Alpha virt. eigenvalues --    2.53613   2.54657   2.55973   2.57075   2.58047
 Alpha virt. eigenvalues --    2.59180   2.59759   2.60473   2.62133   2.63202
 Alpha virt. eigenvalues --    2.64884   2.66340   2.67322   2.67492   2.68535
 Alpha virt. eigenvalues --    2.69570   2.70266   2.71309   2.73487   2.73569
 Alpha virt. eigenvalues --    2.75048   2.76718   2.81493   2.83700   2.85456
 Alpha virt. eigenvalues --    2.88675   2.89168   2.93084   2.94269   2.95612
 Alpha virt. eigenvalues --    2.99020   2.99472   3.05900   3.07047   3.07664
 Alpha virt. eigenvalues --    3.30403   3.70977   3.74244   3.74987   3.86569
 Alpha virt. eigenvalues --    3.86975   3.89111   3.91196   3.93442   3.95209
 Alpha virt. eigenvalues --    3.97616   4.00976   4.02323   4.04855   4.09913
 Alpha virt. eigenvalues --    4.12305   4.14537   4.18109   4.19624   4.20536
 Alpha virt. eigenvalues --    4.22520   4.23605   4.24998   4.27154   4.30598
 Alpha virt. eigenvalues --    4.30859   4.34599   4.38577   4.41112   4.42170
 Alpha virt. eigenvalues --    4.48012   4.55389   4.58427   4.64376   4.65032
          Condensed to atoms (all electrons):
 Mulliken charges:
               1
     1  N   -0.700002
     2  H    0.315604
     3  H    0.318231
     4  C   -0.053546
     5  H    0.109875
     6  C    0.635075
     7  C   -0.349186
     8  H    0.164502
     9  H    0.217808
    10  O   -0.508636
    11  C    0.127026
    12  C   -0.071764
    13  H    0.242423
    14  C    0.148920
    15  C    0.172771
    16  C   -0.206053
    17  H    0.170048
    18  N   -0.745418
    19  H    0.408911
    20  C   -0.142437
    21  H    0.176651
    22  C   -0.159809
    23  H    0.171998
    24  C   -0.117244
    25  H    0.176462
    26  N   -0.622209
    27  H    0.335621
    28  C   -0.040655
    29  H    0.150520
    30  C    0.639923
    31  C   -0.079234
    32  H    0.176509
    33  O   -0.593106
    34  C   -0.288440
    35  H    0.122878
    36  H    0.154862
    37  C   -0.461111
    38  H    0.138255
    39  H    0.175160
    40  H    0.162230
    41  C   -0.468151
    42  H    0.198123
    43  H    0.151226
    44  H    0.142953
    45  N   -0.570608
    46  H    0.361436
    47  C   -0.054701
    48  H    0.173143
    49  C    0.587605
    50  C   -0.271283
    51  H    0.158972
    52  H    0.175230
    53  O   -0.454864
    54  C   -0.281813
    55  H    0.178858
    56  H    0.131272
    57  C   -0.159212
    58  H    0.166082
    59  H    0.159552
    60  N   -0.582979
    61  H    0.322022
    62  N   -0.753258
    63  H    0.343628
    64  H    0.326930
    65  N   -0.643464
    66  H    0.272066
    67  C    0.584646
    68  O   -0.559425
    69  H    0.461169
    70  H    0.431431
 Sum of Mulliken charges =   1.00000
 Mulliken charges with hydrogens summed into heavy atoms:
               1
     1  N   -0.066167
     4  C    0.056329
     6  C    0.635075
     7  C    0.033125
    10  O   -0.508636
    11  C    0.127026
    12  C    0.170659
    14  C    0.148920
    15  C    0.172771
    16  C   -0.036005
    18  N    0.124662
    20  C    0.034214
    22  C    0.012189
    24  C    0.059217
    26  N   -0.286587
    28  C    0.109865
    30  C    0.639923
    31  C    0.097276
    33  O   -0.593106
    34  C   -0.010700
    37  C    0.014535
    41  C    0.024151
    45  N   -0.209172
    47  C    0.118442
    49  C    0.587605
    50  C    0.062918
    53  O   -0.454864
    54  C    0.028317
    57  C    0.166422
    60  N   -0.260957
    62  N   -0.082700
    65  N   -0.371398
    67  C    0.584646
    68  O   -0.127994
 Electronic spatial extent (au):  <R**2>=          19567.3039
 Charge=              1.0000 electrons
 Dipole moment (field-independent basis, Debye):
    X=             14.0334    Y=             -2.9165    Z=             10.7673  Tot=             17.9270
 Quadrupole moment (field-independent basis, Debye-Ang):
   XX=           -124.1419   YY=           -175.2994   ZZ=           -131.7337
   XY=             -9.6103   XZ=              4.4534   YZ=            -15.2414
 Traceless Quadrupole moment (field-independent basis, Debye-Ang):
   XX=             19.5831   YY=            -31.5744   ZZ=             11.9913
   XY=             -9.6103   XZ=              4.4534   YZ=            -15.2414
 Octapole moment (field-independent basis, Debye-Ang**2):
  XXX=           -582.5055  YYY=            307.9201  ZZZ=            -20.8321  XYY=           -170.9028
  XXY=             92.4560  XXZ=            -34.7787  XZZ=           -115.2773  YZZ=             -8.3517
  YYZ=            -13.1834  XYZ=              6.7246
 Hexadecapole moment (field-independent basis, Debye-Ang**3):
 XXXX=          -7032.4306 YYYY=          -4935.4477 ZZZZ=          -9388.1538 XXXY=           -686.8871
 XXXZ=            -91.3701 YYYX=           -667.6844 YYYZ=           1724.4433 ZZZX=           -241.1625
 ZZZY=           1693.4289 XXYY=          -1956.9898 XXZZ=          -2248.8052 YYZZ=          -2655.2763
 XXYZ=            595.2104 YYXZ=            156.9214 ZZXY=           -158.5097
 N-N= 3.827807125932D+03 E-N=-1.130952131467D+04  KE= 1.567202024997D+03
 Unable to Open any file for archive entry.
 1\1\GINC-LAC-316\SP\RB3LYP\6-31G(d)\C23H36N7O4(1+)\KENGMITH\26-May-202
 2\0\\# B3LYP/6-31G* guess=read geom=check nosymm integral(ultrafinegri
 d)\\Candidate Structure: Conf:549 Charge calc in gas phase\\1,1\N,0,-2
 .6801572531,-2.8882464509,3.3112893265\H,0,-2.8219840358,-3.0896198682
 ,4.299457876\H,0,-3.3589875359,-2.1750460498,3.0529280903\C,0,-1.31684
 51997,-2.4277103311,3.0765757083\H,0,-1.0260452728,-1.5465878726,3.681
 3088535\C,0,-1.137735309,-2.0911252158,1.5738433658\C,0,-0.3491796699,
 -3.597700846,3.4160701846\H,0,-0.4220668953,-3.8266451043,4.4854375285
 \H,0,-0.7073854297,-4.4650014059,2.8572625467\O,0,-1.1396075661,-2.973
 7325627,0.7286663175\C,0,1.0642409342,-3.2771805094,3.0297983024\C,0,1
 .580380801,-3.4961738484,1.8099026316\H,0,1.1384584826,-3.918701432,0.
 9205190838\C,0,2.0546389879,-2.5339432964,3.8277579496\C,0,3.164786601
 7,-2.2673504392,3.0197592703\C,0,2.071690699,-2.0972224479,5.153024007
 6\H,0,1.232984684,-2.286770305,5.8155625733\N,0,2.8797084151,-2.798333
 9595,1.6720621333\H,0,3.6280032766,-3.3934083706,1.2981700759\C,0,4.30
 09521196,-1.1761533574,4.7815016727\H,0,5.1696986555,-0.6552108592,5.1
 706214626\C,0,4.2967905592,-1.6002075059,3.445291334\H,0,5.1450551228,
 -1.4142532203,2.7931836184\C,0,3.2046103955,-1.4207424984,5.6166119979
 \H,0,3.2377270503,-1.0831325337,6.6478239003\N,0,-0.9513823841,-0.7576
 490282,1.3193772527\H,0,-0.9761552877,-0.146002047,2.1248783146\C,0,-0
 .5323059635,-0.106779042,0.0661431622\H,0,-0.9787786273,0.8962311504,0
 .0967697484\C,0,1.0054591338,0.0596947217,0.1156721174\C,0,-1.02987787
 3,-0.7760499326,-1.2426547131\H,0,-0.6400528031,-1.7965344497,-1.26364
 78778\O,0,1.7749906073,-0.9154761523,0.1353094897\C,0,-0.4729096852,-0
 .0149614618,-2.4650042305\H,0,-0.7879332382,1.0393471522,-2.4204325289
 \H,0,0.6235803409,-0.0145092983,-2.4206890403\C,0,-2.5639337257,-0.834
 4621391,-1.2480369496\H,0,-2.9997620114,0.1735827765,-1.2392172696\H,0
 ,-2.9202803625,-1.3414966532,-2.1482326003\H,0,-2.9513646263,-1.389607
 1746,-0.3908596253\C,0,-0.8788219168,-0.6093802287,-3.8193414051\H,0,-
 0.2997657779,-0.1331869391,-4.6161802518\H,0,-1.9431858923,-0.46615507
 35,-4.0304894963\H,0,-0.6711865291,-1.6862150682,-3.8512854246\N,0,1.4
 446009495,1.3339619781,0.1551726641\H,0,0.7659610613,2.0822466857,0.24
 2768646\C,0,2.8281987601,1.7407611642,0.3700774941\H,0,3.384678847,0.8
 666260126,0.7185532376\C,0,2.8141957799,2.8020690968,1.4694076586\C,0,
 3.5057829983,2.3118392062,-0.9003147693\H,0,2.9043758407,3.1589514084,
 -1.2577312441\H,0,4.4791606659,2.7204307886,-0.603744454\O,0,1.8227617
 497,3.4039205732,1.8185915104\C,0,3.6828712419,1.2837043407,-2.0216400
 508\H,0,2.718319657,0.8324127915,-2.275351762\H,0,4.331764489,0.465823
 0849,-1.6787172342\C,0,4.2863424394,1.909545415,-3.2952952504\H,0,3.69
 18731852,2.7770473622,-3.6064837553\H,0,5.2936500731,2.2895749306,-3.0
 900709015\N,0,4.3789906452,0.9995952299,-4.4241677168\H,0,5.0830203283
 ,0.2769091544,-4.3294163315\N,0,3.5068043487,-0.4994546097,-5.95883522
 26\H,0,2.7059407943,-0.6915470511,-6.5509062832\H,0,4.3526957465,-0.39
 0868252,-6.5097655344\N,0,2.0435535331,1.0442063074,-5.03083299\H,0,1.
 9585497033,1.7567528033,-4.3074539975\C,0,3.2381430505,0.5753562552,-5
 .1081021082\O,0,4.0433152074,3.0140650265,1.9715479712\H,0,2.688759205
 8,-2.0036553425,0.9953321642\H,0,3.9722352333,3.7451348877,2.616131736
 1\\Version=ES64L-G16RevC.01\HF=-1582.0908442\RMSD=5.666e-09\Dipole=2.7
 030848,-0.2179173,3.5707521\Quadrupole=14.5595363,-23.4747733,8.915237
 ,-7.1450093,3.311006,-11.3316097\PG=C01 [X(C23H36N7O4)]\\@
 The archive entry for this job was punched.


 ALL PAPERS THAT YOU SAVE WILL NEVER BE NEEDED UNTIL
 SUCH TIME AS THEY ARE DISPOSED OF, WHEN THEY BECOME
 ESSENTIAL.

           -- JOHN CORCORAN IN
              PAUL DICKSON'S "THE OFFICIAL RULES"
 Job cpu time:       0 days  0 hours  2 minutes 51.4 seconds.
 Elapsed time:       0 days  0 hours  0 minutes 43.4 seconds.
 File lengths (MBytes):  RWF=    296 Int=      0 D2E=      0 Chk=     40 Scr=     16
 Normal termination of Gaussian 16 at Thu May 26 00:32:34 2022.
