 Entering Gaussian System, Link 0=/opt/software/Gaussian/g16-AVX-C.01/g16/g16
 Input=charge-conf-123.com
 Output=charge-conf-123.log
 Initial command:
 /opt/software/Gaussian/g16-AVX-C.01/g16/l1.exe "/mnt/gs18/scratch/users/kengmith/Gau-7222.inp" -scrdir="/mnt/gs18/scratch/users/kengmith/"
 Entering Link 1 = /opt/software/Gaussian/g16-AVX-C.01/g16/l1.exe PID=      7249.
  
 Copyright (c) 1988-2019, Gaussian, Inc.  All Rights Reserved.
  
 This is part of the Gaussian(R) 16 program.  It is based on
 the Gaussian(R) 09 system (copyright 2009, Gaussian, Inc.),
 the Gaussian(R) 03 system (copyright 2003, Gaussian, Inc.),
 the Gaussian(R) 98 system (copyright 1998, Gaussian, Inc.),
 the Gaussian(R) 94 system (copyright 1995, Gaussian, Inc.),
 the Gaussian 92(TM) system (copyright 1992, Gaussian, Inc.),
 the Gaussian 90(TM) system (copyright 1990, Gaussian, Inc.),
 the Gaussian 88(TM) system (copyright 1988, Gaussian, Inc.),
 the Gaussian 86(TM) system (copyright 1986, Carnegie Mellon
 University), and the Gaussian 82(TM) system (copyright 1983,
 Carnegie Mellon University). Gaussian is a federally registered
 trademark of Gaussian, Inc.
  
 This software contains proprietary and confidential information,
 including trade secrets, belonging to Gaussian, Inc.
  
 This software is provided under written license and may be
 used, copied, transmitted, or stored only in accord with that
 written license.
  
 The following legend is applicable only to US Government
 contracts under FAR:
  
                    RESTRICTED RIGHTS LEGEND
  
 Use, reproduction and disclosure by the US Government is
 subject to restrictions as set forth in subparagraphs (a)
 and (c) of the Commercial Computer Software - Restricted
 Rights clause in FAR 52.227-19.
  
 Gaussian, Inc.
 340 Quinnipiac St., Bldg. 40, Wallingford CT 06492
  
  
 ---------------------------------------------------------------
 Warning -- This program may not be used in any manner that
 competes with the business of Gaussian, Inc. or will provide
 assistance to any competitor of Gaussian, Inc.  The licensee
 of this program is prohibited from giving any competitor of
 Gaussian, Inc. access to this program.  By using this program,
 the user acknowledges that Gaussian, Inc. is engaged in the
 business of creating and licensing software in the field of
 computational chemistry and represents and warrants to the
 licensee that it is not a competitor of Gaussian, Inc. and that
 it will not use this program in any manner prohibited above.
 ---------------------------------------------------------------
  

 Cite this work as:
 Gaussian 16, Revision C.01,
 M. J. Frisch, G. W. Trucks, H. B. Schlegel, G. E. Scuseria, 
 M. A. Robb, J. R. Cheeseman, G. Scalmani, V. Barone, 
 G. A. Petersson, H. Nakatsuji, X. Li, M. Caricato, A. V. Marenich, 
 J. Bloino, B. G. Janesko, R. Gomperts, B. Mennucci, H. P. Hratchian, 
 J. V. Ortiz, A. F. Izmaylov, J. L. Sonnenberg, D. Williams-Young, 
 F. Ding, F. Lipparini, F. Egidi, J. Goings, B. Peng, A. Petrone, 
 T. Henderson, D. Ranasinghe, V. G. Zakrzewski, J. Gao, N. Rega, 
 G. Zheng, W. Liang, M. Hada, M. Ehara, K. Toyota, R. Fukuda, 
 J. Hasegawa, M. Ishida, T. Nakajima, Y. Honda, O. Kitao, H. Nakai, 
 T. Vreven, K. Throssell, J. A. Montgomery, Jr., J. E. Peralta, 
 F. Ogliaro, M. J. Bearpark, J. J. Heyd, E. N. Brothers, K. N. Kudin, 
 V. N. Staroverov, T. A. Keith, R. Kobayashi, J. Normand, 
 K. Raghavachari, A. P. Rendell, J. C. Burant, S. S. Iyengar, 
 J. Tomasi, M. Cossi, J. M. Millam, M. Klene, C. Adamo, R. Cammi, 
 J. W. Ochterski, R. L. Martin, K. Morokuma, O. Farkas, 
 J. B. Foresman, and D. J. Fox, Gaussian, Inc., Wallingford CT, 2019.
 
 ******************************************
 Gaussian 16:  ES64L-G16RevC.01  3-Jul-2019
                10-Jul-2022 
 ******************************************
 %mem=8gb
 %nproc=4
 Will use up to    4 processors via shared memory.
 %chk=conf-123.chk
 ----------------------------------------------------------------------
 # B3LYP/6-31G* empiricaldispersion=gd3bj guess=read geom=check nosymm 
 integral(ultrafinegrid)
 ----------------------------------------------------------------------
 1/29=2,38=1,172=1/1;
 2/12=2,15=1,40=1/2;
 3/5=1,6=6,7=1,11=2,14=-4,25=1,30=1,74=-5,75=-5,116=-2,124=41/1,2,3;
 4/5=1/1;
 5/5=2,38=6/2;
 6/7=2,8=2,9=2,10=2,28=1/1;
 99/5=1,9=1/99;
 ------------------------------------------------------
 Candidate Structure: Conf:123 Charge calc in gas phase
 ------------------------------------------------------
 Structure from the checkpoint file:  "conf-123.chk"
 Charge =  1 Multiplicity = 1
 Redundant internal coordinates found in file.  (old form).
 N,0,-2.7124194541,2.0345311135,4.244471659
 H,0,-2.8454249383,1.0839179189,4.5841226724
 H,0,-1.7211278932,2.2333213219,4.3635126513
 C,0,-3.0643846811,2.0965023218,2.8435571961
 H,0,-2.8943349036,3.1134872169,2.4663299416
 H,0,-4.1419000173,1.9101914752,2.7363280061
 C,0,-2.336322051,1.0959955382,1.9375493788
 O,0,-1.6827525041,0.1536540279,2.4006744098
 N,0,-2.4652138501,1.2952498477,0.5987638435
 H,0,-3.0173443286,2.0810665293,0.2798188714
 C,0,-2.1168781462,0.2809760617,-0.4006121207
 H,0,-2.3367697134,-0.6956338606,0.0466310022
 C,0,-0.605821259,0.2937786598,-0.6799531769
 C,0,-2.9261025244,0.4733027078,-1.6825630076
 H,0,-2.6451817622,1.4310709355,-2.1387426959
 H,0,-2.6070345028,-0.2986985557,-2.3920107254
 O,0,-0.1062016194,0.5223578365,-1.7878207765
 C,0,-4.4533456497,0.3994771714,-1.5024687438
 H,0,-4.7708147948,1.2209373706,-0.8424979352
 C,0,-5.1365749501,0.6092119496,-2.8595247216
 H,0,-4.8771660674,-0.1990426927,-3.5543171365
 H,0,-6.2258328981,0.6189767955,-2.75138603
 H,0,-4.8342652758,1.5570223188,-3.3192427644
 C,0,-4.9014529602,-0.9183004274,-0.8587166912
 H,0,-4.5593386881,-1.7774963645,-1.4494636869
 H,0,-4.5192450588,-1.0351218166,0.1616776997
 H,0,-5.9936039336,-0.9681947831,-0.8043506611
 N,0,0.1784509352,-0.0130487945,0.379408763
 H,0,-0.2655221233,-0.1370496267,1.2979630065
 C,0,1.6112001734,0.1095850059,0.2379199227
 H,0,1.8940091579,1.1728771477,0.2020719606
 C,0,2.0045335685,-0.468404597,-1.1057187776
 C,0,2.3656303537,-0.5382447337,1.4319038242
 H,0,2.0317191183,0.0479995574,2.2986510708
 O,0,1.6333934041,-1.688356879,-1.3586636237
 C,0,2.0012331813,-2.0060716177,1.6804653583
 H,0,2.3756928155,-2.6563090311,0.8845483877
 H,0,2.4538836239,-2.3346787135,2.6207211799
 H,0,0.9208911645,-2.1556685481,1.7581358405
 C,0,3.8790519369,-0.344868593,1.2822744347
 H,0,4.2795606203,-0.9329094977,0.4472977378
 H,0,4.3912932096,-0.6791116827,2.1884263982
 H,0,4.1459303221,0.7065410481,1.1215075185
 N,0,2.8145522059,0.1962415311,-1.9076247059
 H,0,3.0469177644,1.1358215731,-1.6060211555
 C,0,2.9390044179,-0.0320149669,-3.365719207
 H,0,1.969733596,-0.421954633,-3.7033584236
 C,0,4.0027365317,-1.0961377127,-3.6442509278
 C,0,3.2334048997,1.2897468151,-4.0724512906
 H,0,4.1870112295,1.6899877419,-3.7044038579
 H,0,3.3972545792,1.0585619727,-5.1298194685
 O,0,5.019212271,-0.9563237079,-4.2606046999
 C,0,2.1018326118,2.314224651,-3.9259868221
 H,0,1.9448397259,2.5726278521,-2.868511478
 H,0,1.1569827713,1.8617096594,-4.2544537753
 C,0,2.3666792003,3.5993987779,-4.7163116717
 H,0,3.319538626,4.0444569933,-4.3950496237
 H,0,2.4807462993,3.3580503058,-5.7824422252
 C,0,1.240054988,4.6332688269,-4.5456520673
 H,0,0.2885852709,4.1828916065,-4.8576727868
 H,0,1.1300141652,4.8712523979,-3.4787569927
 N,0,1.3976719925,5.8891880565,-5.2688180623
 H,0,2.2652533148,6.3497878167,-4.999153282
 H,0,1.4606915631,5.7172865859,-6.2707367426
 O,0,3.6120409255,-2.2877620921,-3.0874607103
 H,0,2.1500246413,-2.095549445,-2.0976999384
 H,0,4.2909138322,-2.9680024883,-3.2676785248
 Recover connectivity data from disk.
                           ----------------------------
                           !    Current Parameters    !
                           ! (Angstroms and Degrees)  !
 --------------------------                            --------------------------
 ! Name  Definition              Value                                          !
 --------------------------------------------------------------------------------
 ! R1    R(1,2)                  1.0182                                         !
 ! R2    R(1,3)                  1.018                                          !
 ! R3    R(1,4)                  1.4458                                         !
 ! R4    R(4,5)                  1.0979                                         !
 ! R5    R(4,6)                  1.0987                                         !
 ! R6    R(4,7)                  1.5336                                         !
 ! R7    R(7,8)                  1.2368                                         !
 ! R8    R(7,9)                  1.3597                                         !
 ! R9    R(9,10)                 1.012                                          !
 ! R10   R(9,11)                 1.4659                                         !
 ! R11   R(11,12)                1.0964                                         !
 ! R12   R(11,13)                1.5367                                         !
 ! R13   R(11,14)                1.5281                                         !
 ! R14   R(13,17)                1.2366                                         !
 ! R15   R(13,28)                1.3533                                         !
 ! R16   R(14,15)                1.0974                                         !
 ! R17   R(14,16)                1.096                                          !
 ! R18   R(14,18)                1.5396                                         !
 ! R19   R(18,19)                1.1005                                         !
 ! R20   R(18,20)                1.5338                                         !
 ! R21   R(18,24)                1.5335                                         !
 ! R22   R(20,21)                1.097                                          !
 ! R23   R(20,22)                1.0947                                         !
 ! R24   R(20,23)                1.0959                                         !
 ! R25   R(24,25)                1.0974                                         !
 ! R26   R(24,26)                1.0959                                         !
 ! R27   R(24,27)                1.0946                                         !
 ! R28   R(28,29)                1.0277                                         !
 ! R29   R(28,30)                1.4449                                         !
 ! R30   R(30,31)                1.1008                                         !
 ! R31   R(30,32)                1.5146                                         !
 ! R32   R(30,33)                1.5538                                         !
 ! R33   R(32,35)                1.3                                            !
 ! R34   R(32,44)                1.3194                                         !
 ! R35   R(33,34)                1.0984                                         !
 ! R36   R(33,36)                1.5327                                         !
 ! R37   R(33,40)                1.533                                          !
 ! R38   R(36,37)                1.0939                                         !
 ! R39   R(36,38)                1.0941                                         !
 ! R40   R(36,39)                1.0934                                         !
 ! R41   R(40,41)                1.097                                          !
 ! R42   R(40,42)                1.0933                                         !
 ! R43   R(40,43)                1.0966                                         !
 ! R44   R(44,45)                1.0138                                         !
 ! R45   R(44,46)                1.4811                                         !
 ! R46   R(46,47)                1.098                                          !
 ! R47   R(46,48)                1.5302                                         !
 ! R48   R(46,49)                1.5275                                         !
 ! R49   R(48,52)                1.1969                                         !
 ! R50   R(48,65)                1.3721                                         !
 ! R51   R(49,50)                1.0977                                         !
 ! R52   R(49,51)                1.0947                                         !
 ! R53   R(49,53)                1.5334                                         !
 ! R54   R(53,54)                1.0999                                         !
 ! R55   R(53,55)                1.0979                                         !
 ! R56   R(53,56)                1.5318                                         !
 ! R57   R(56,57)                1.0996                                         !
 ! R58   R(56,58)                1.099                                          !
 ! R59   R(56,59)                1.5386                                         !
 ! R60   R(59,60)                1.0979                                         !
 ! R61   R(59,61)                1.0986                                         !
 ! R62   R(59,62)                1.4578                                         !
 ! R63   R(62,63)                1.0186                                         !
 ! R64   R(62,64)                1.0185                                         !
 ! R65   R(65,66)                1.776                                          !
 ! R66   R(65,67)                0.9778                                         !
 ! A1    A(2,1,3)              105.6943                                         !
 ! A2    A(2,1,4)              109.3567                                         !
 ! A3    A(3,1,4)              109.9981                                         !
 ! A4    A(1,4,5)              109.5673                                         !
 ! A5    A(1,4,6)              109.0282                                         !
 ! A6    A(1,4,7)              115.3979                                         !
 ! A7    A(5,4,6)              105.9871                                         !
 ! A8    A(5,4,7)              109.1342                                         !
 ! A9    A(6,4,7)              107.2948                                         !
 ! A10   A(4,7,8)              121.7845                                         !
 ! A11   A(4,7,9)              116.1736                                         !
 ! A12   A(8,7,9)              122.0368                                         !
 ! A13   A(7,9,10)             118.415                                          !
 ! A14   A(7,9,11)             123.1863                                         !
 ! A15   A(10,9,11)            116.8764                                         !
 ! A16   A(9,11,12)            106.8911                                         !
 ! A17   A(9,11,13)            110.5989                                         !
 ! A18   A(9,11,14)            111.0388                                         !
 ! A19   A(12,11,13)           106.1871                                         !
 ! A20   A(12,11,14)           110.3708                                         !
 ! A21   A(13,11,14)           111.5408                                         !
 ! A22   A(11,13,17)           124.171                                          !
 ! A23   A(11,13,28)           115.1924                                         !
 ! A24   A(17,13,28)           120.601                                          !
 ! A25   A(11,14,15)           108.8444                                         !
 ! A26   A(11,14,16)           107.4709                                         !
 ! A27   A(11,14,18)           114.9061                                         !
 ! A28   A(15,14,16)           105.7333                                         !
 ! A29   A(15,14,18)           110.1453                                         !
 ! A30   A(16,14,18)           109.3138                                         !
 ! A31   A(14,18,19)           108.694                                          !
 ! A32   A(14,18,20)           109.3801                                         !
 ! A33   A(14,18,24)           112.3441                                         !
 ! A34   A(19,18,20)           107.4593                                         !
 ! A35   A(19,18,24)           107.7809                                         !
 ! A36   A(20,18,24)           111.0241                                         !
 ! A37   A(18,20,21)           110.7514                                         !
 ! A38   A(18,20,22)           110.9209                                         !
 ! A39   A(18,20,23)           111.502                                          !
 ! A40   A(21,20,22)           107.7256                                         !
 ! A41   A(21,20,23)           107.8369                                         !
 ! A42   A(22,20,23)           107.9514                                         !
 ! A43   A(18,24,25)           110.8375                                         !
 ! A44   A(18,24,26)           112.3683                                         !
 ! A45   A(18,24,27)           110.5825                                         !
 ! A46   A(25,24,26)           108.0022                                         !
 ! A47   A(25,24,27)           107.5835                                         !
 ! A48   A(26,24,27)           107.2699                                         !
 ! A49   A(13,28,29)           118.4661                                         !
 ! A50   A(13,28,30)           118.603                                          !
 ! A51   A(29,28,30)           121.743                                          !
 ! A52   A(28,30,31)           109.8709                                         !
 ! A53   A(28,30,32)           108.1783                                         !
 ! A54   A(28,30,33)           111.7651                                         !
 ! A55   A(31,30,32)           105.8418                                         !
 ! A56   A(31,30,33)           107.6372                                         !
 ! A57   A(32,30,33)           113.3576                                         !
 ! A58   A(30,32,35)           117.1659                                         !
 ! A59   A(30,32,44)           120.4205                                         !
 ! A60   A(35,32,44)           121.9869                                         !
 ! A61   A(30,33,34)           103.6644                                         !
 ! A62   A(30,33,36)           114.1082                                         !
 ! A63   A(30,33,40)           110.5926                                         !
 ! A64   A(34,33,36)           108.1136                                         !
 ! A65   A(34,33,40)           108.0477                                         !
 ! A66   A(36,33,40)           111.7983                                         !
 ! A67   A(33,36,37)           111.7097                                         !
 ! A68   A(33,36,38)           109.1874                                         !
 ! A69   A(33,36,39)           112.1764                                         !
 ! A70   A(37,36,38)           107.7677                                         !
 ! A71   A(37,36,39)           107.9746                                         !
 ! A72   A(38,36,39)           107.8573                                         !
 ! A73   A(33,40,41)           111.5368                                         !
 ! A74   A(33,40,42)           110.0649                                         !
 ! A75   A(33,40,43)           112.0554                                         !
 ! A76   A(41,40,42)           107.2134                                         !
 ! A77   A(41,40,43)           108.2713                                         !
 ! A78   A(42,40,43)           107.4946                                         !
 ! A79   A(32,44,45)           115.2621                                         !
 ! A80   A(32,44,46)           124.9091                                         !
 ! A81   A(45,44,46)           114.611                                          !
 ! A82   A(44,46,47)           106.4568                                         !
 ! A83   A(44,46,48)           110.1687                                         !
 ! A84   A(44,46,49)           109.7753                                         !
 ! A85   A(47,46,48)           108.1033                                         !
 ! A86   A(47,46,49)           109.5835                                         !
 ! A87   A(48,46,49)           112.5544                                         !
 ! A88   A(46,48,52)           127.0747                                         !
 ! A89   A(46,48,65)           109.399                                          !
 ! A90   A(52,48,65)           123.5196                                         !
 ! A91   A(46,49,50)           109.1357                                         !
 ! A92   A(46,49,51)           107.0383                                         !
 ! A93   A(46,49,53)           113.0599                                         !
 ! A94   A(50,49,51)           105.7135                                         !
 ! A95   A(50,49,53)           111.4339                                         !
 ! A96   A(51,49,53)           110.1087                                         !
 ! A97   A(49,53,54)           110.74                                           !
 ! A98   A(49,53,55)           109.3367                                         !
 ! A99   A(49,53,56)           112.5603                                         !
 ! A100  A(54,53,55)           105.1675                                         !
 ! A101  A(54,53,56)           108.8825                                         !
 ! A102  A(55,53,56)           109.8913                                         !
 ! A103  A(53,56,57)           109.7946                                         !
 ! A104  A(53,56,58)           109.5236                                         !
 ! A105  A(53,56,59)           112.3296                                         !
 ! A106  A(57,56,58)           106.4002                                         !
 ! A107  A(57,56,59)           109.2767                                         !
 ! A108  A(58,56,59)           109.3389                                         !
 ! A109  A(56,59,60)           109.1107                                         !
 ! A110  A(56,59,61)           109.0633                                         !
 ! A111  A(56,59,62)           116.4049                                         !
 ! A112  A(60,59,61)           106.1427                                         !
 ! A113  A(60,59,62)           107.8253                                         !
 ! A114  A(61,59,62)           107.8151                                         !
 ! A115  A(59,62,63)           110.5074                                         !
 ! A116  A(59,62,64)           110.4429                                         !
 ! A117  A(63,62,64)           106.5017                                         !
 ! A118  A(48,65,66)           111.5041                                         !
 ! A119  A(48,65,67)           109.372                                          !
 ! A120  A(66,65,67)           138.5531                                         !
 ! D1    D(2,1,4,5)           -178.3595                                         !
 ! D2    D(2,1,4,6)             66.0599                                         !
 ! D3    D(2,1,4,7)            -54.7279                                         !
 ! D4    D(3,1,4,5)            -62.7039                                         !
 ! D5    D(3,1,4,6)           -178.2845                                         !
 ! D6    D(3,1,4,7)             60.9277                                         !
 ! D7    D(1,4,7,8)             12.3694                                         !
 ! D8    D(1,4,7,9)           -168.4368                                         !
 ! D9    D(5,4,7,8)            136.2286                                         !
 ! D10   D(5,4,7,9)            -44.5776                                         !
 ! D11   D(6,4,7,8)           -109.3554                                         !
 ! D12   D(6,4,7,9)             69.8385                                         !
 ! D13   D(4,7,9,10)             0.459                                          !
 ! D14   D(4,7,9,11)          -165.0124                                         !
 ! D15   D(8,7,9,10)           179.6506                                         !
 ! D16   D(8,7,9,11)            14.1792                                         !
 ! D17   D(7,9,11,12)           32.9198                                         !
 ! D18   D(7,9,11,13)          -82.2544                                         !
 ! D19   D(7,9,11,14)          153.3554                                         !
 ! D20   D(10,9,11,12)        -132.759                                          !
 ! D21   D(10,9,11,13)         112.0668                                         !
 ! D22   D(10,9,11,14)         -12.3234                                         !
 ! D23   D(9,11,13,17)        -119.4921                                         !
 ! D24   D(9,11,13,28)          62.6732                                         !
 ! D25   D(12,11,13,17)        124.8933                                         !
 ! D26   D(12,11,13,28)        -52.9414                                         !
 ! D27   D(14,11,13,17)          4.6108                                         !
 ! D28   D(14,11,13,28)       -173.224                                          !
 ! D29   D(9,11,14,15)          64.8355                                         !
 ! D30   D(9,11,14,16)         178.9017                                         !
 ! D31   D(9,11,14,18)         -59.1988                                         !
 ! D32   D(12,11,14,15)       -176.8118                                         !
 ! D33   D(12,11,14,16)        -62.7456                                         !
 ! D34   D(12,11,14,18)         59.1539                                         !
 ! D35   D(13,11,14,15)        -59.0192                                         !
 ! D36   D(13,11,14,16)         55.0471                                         !
 ! D37   D(13,11,14,18)        176.9465                                         !
 ! D38   D(11,13,28,29)         -5.9893                                         !
 ! D39   D(11,13,28,30)       -173.7591                                         !
 ! D40   D(17,13,28,29)        176.0921                                         !
 ! D41   D(17,13,28,30)          8.3222                                         !
 ! D42   D(11,14,18,19)         62.9021                                         !
 ! D43   D(11,14,18,20)        179.9534                                         !
 ! D44   D(11,14,18,24)        -56.283                                          !
 ! D45   D(15,14,18,19)        -60.4413                                         !
 ! D46   D(15,14,18,20)         56.61                                           !
 ! D47   D(15,14,18,24)       -179.6264                                         !
 ! D48   D(16,14,18,19)       -176.2025                                         !
 ! D49   D(16,14,18,20)        -59.1512                                         !
 ! D50   D(16,14,18,24)         64.6124                                         !
 ! D51   D(14,18,20,21)         63.6953                                         !
 ! D52   D(14,18,20,22)       -176.7402                                         !
 ! D53   D(14,18,20,23)        -56.3925                                         !
 ! D54   D(19,18,20,21)       -178.4773                                         !
 ! D55   D(19,18,20,22)        -58.9127                                         !
 ! D56   D(19,18,20,23)         61.4349                                         !
 ! D57   D(24,18,20,21)        -60.8421                                         !
 ! D58   D(24,18,20,22)         58.7225                                         !
 ! D59   D(24,18,20,23)        179.0701                                         !
 ! D60   D(14,18,24,25)        -57.0698                                         !
 ! D61   D(14,18,24,26)         63.8755                                         !
 ! D62   D(14,18,24,27)       -176.2926                                         !
 ! D63   D(19,18,24,25)       -176.7878                                         !
 ! D64   D(19,18,24,26)        -55.8425                                         !
 ! D65   D(19,18,24,27)         63.9893                                         !
 ! D66   D(20,18,24,25)         65.7729                                         !
 ! D67   D(20,18,24,26)       -173.2818                                         !
 ! D68   D(20,18,24,27)        -53.4499                                         !
 ! D69   D(13,28,30,31)         71.7684                                         !
 ! D70   D(13,28,30,32)        -43.331                                          !
 ! D71   D(13,28,30,33)       -168.812                                          !
 ! D72   D(29,28,30,31)        -95.5823                                         !
 ! D73   D(29,28,30,32)        149.3184                                         !
 ! D74   D(29,28,30,33)         23.8374                                         !
 ! D75   D(28,30,32,35)        -54.8939                                         !
 ! D76   D(28,30,32,44)        132.4548                                         !
 ! D77   D(31,30,32,35)       -172.6079                                         !
 ! D78   D(31,30,32,44)         14.7409                                         !
 ! D79   D(33,30,32,35)         69.6424                                         !
 ! D80   D(33,30,32,44)       -103.0088                                         !
 ! D81   D(28,30,33,34)        -62.1907                                         !
 ! D82   D(28,30,33,36)         55.153                                          !
 ! D83   D(28,30,33,40)       -177.7814                                         !
 ! D84   D(31,30,33,34)         58.5387                                         !
 ! D85   D(31,30,33,36)        175.8824                                         !
 ! D86   D(31,30,33,40)        -57.052                                          !
 ! D87   D(32,30,33,34)        175.2388                                         !
 ! D88   D(32,30,33,36)        -67.4176                                         !
 ! D89   D(32,30,33,40)         59.6481                                         !
 ! D90   D(30,32,44,45)         -6.9426                                         !
 ! D91   D(30,32,44,46)       -159.922                                          !
 ! D92   D(35,32,44,45)       -179.232                                          !
 ! D93   D(35,32,44,46)         27.7886                                         !
 ! D94   D(30,33,36,37)         69.5599                                         !
 ! D95   D(30,33,36,38)       -171.3408                                         !
 ! D96   D(30,33,36,39)        -51.8379                                         !
 ! D97   D(34,33,36,37)       -175.6886                                         !
 ! D98   D(34,33,36,38)        -56.5892                                         !
 ! D99   D(34,33,36,39)         62.9136                                         !
 ! D100  D(40,33,36,37)        -56.8797                                         !
 ! D101  D(40,33,36,38)         62.2197                                         !
 ! D102  D(40,33,36,39)       -178.2775                                         !
 ! D103  D(30,33,40,41)        -68.9163                                         !
 ! D104  D(30,33,40,42)        172.2121                                         !
 ! D105  D(30,33,40,43)         52.6548                                         !
 ! D106  D(34,33,40,41)        178.2633                                         !
 ! D107  D(34,33,40,42)         59.3916                                         !
 ! D108  D(34,33,40,43)        -60.1656                                         !
 ! D109  D(36,33,40,41)         59.4153                                         !
 ! D110  D(36,33,40,42)        -59.4564                                         !
 ! D111  D(36,33,40,43)       -179.0136                                         !
 ! D112  D(32,44,46,47)         27.7403                                         !
 ! D113  D(32,44,46,48)        -89.2391                                         !
 ! D114  D(32,44,46,49)        146.2694                                         !
 ! D115  D(45,44,46,47)       -125.3929                                         !
 ! D116  D(45,44,46,48)        117.6277                                         !
 ! D117  D(45,44,46,49)         -6.8638                                         !
 ! D118  D(44,46,48,52)       -118.0734                                         !
 ! D119  D(44,46,48,65)         62.8445                                         !
 ! D120  D(47,46,48,52)        125.9761                                         !
 ! D121  D(47,46,48,65)        -53.106                                          !
 ! D122  D(49,46,48,52)          4.8035                                         !
 ! D123  D(49,46,48,65)       -174.2785                                         !
 ! D124  D(44,46,49,50)         61.5023                                         !
 ! D125  D(44,46,49,51)        175.4663                                         !
 ! D126  D(44,46,49,53)        -63.1158                                         !
 ! D127  D(47,46,49,50)        178.0817                                         !
 ! D128  D(47,46,49,51)        -67.9543                                         !
 ! D129  D(47,46,49,53)         53.4636                                         !
 ! D130  D(48,46,49,50)        -61.5949                                         !
 ! D131  D(48,46,49,51)         52.369                                          !
 ! D132  D(48,46,49,53)        173.7869                                         !
 ! D133  D(46,48,65,66)         -7.1542                                         !
 ! D134  D(46,48,65,67)        179.8532                                         !
 ! D135  D(52,48,65,66)        173.7243                                         !
 ! D136  D(52,48,65,67)          0.7317                                         !
 ! D137  D(46,49,53,54)         61.7127                                         !
 ! D138  D(46,49,53,55)        -53.7153                                         !
 ! D139  D(46,49,53,56)       -176.1436                                         !
 ! D140  D(50,49,53,54)        -61.6454                                         !
 ! D141  D(50,49,53,55)       -177.0734                                         !
 ! D142  D(50,49,53,56)         60.4983                                         !
 ! D143  D(51,49,53,54)       -178.6182                                         !
 ! D144  D(51,49,53,55)         65.9538                                         !
 ! D145  D(51,49,53,56)        -56.4745                                         !
 ! D146  D(49,53,56,57)        -57.1722                                         !
 ! D147  D(49,53,56,58)         59.3152                                         !
 ! D148  D(49,53,56,59)       -178.9843                                         !
 ! D149  D(54,53,56,57)         66.0152                                         !
 ! D150  D(54,53,56,58)       -177.4973                                         !
 ! D151  D(54,53,56,59)        -55.7969                                         !
 ! D152  D(55,53,56,57)       -179.2875                                         !
 ! D153  D(55,53,56,58)        -62.8                                            !
 ! D154  D(55,53,56,59)         58.9004                                         !
 ! D155  D(53,56,59,60)        -57.3341                                         !
 ! D156  D(53,56,59,61)         58.2004                                         !
 ! D157  D(53,56,59,62)       -179.5928                                         !
 ! D158  D(57,56,59,60)       -179.4408                                         !
 ! D159  D(57,56,59,61)        -63.9062                                         !
 ! D160  D(57,56,59,62)         58.3006                                         !
 ! D161  D(58,56,59,60)         64.4716                                         !
 ! D162  D(58,56,59,61)       -179.9938                                         !
 ! D163  D(58,56,59,62)        -57.787                                          !
 ! D164  D(56,59,62,63)        -57.8632                                         !
 ! D165  D(56,59,62,64)         59.7219                                         !
 ! D166  D(60,59,62,63)        179.2068                                         !
 ! D167  D(60,59,62,64)        -63.2081                                         !
 ! D168  D(61,59,62,63)         64.9961                                         !
 ! D169  D(61,59,62,64)       -177.4188                                         !
 --------------------------------------------------------------------------------
 Symmetry turned off by external request.
 Stoichiometry    C19H38N5O5(1+)
 Framework group  C1[X(C19H38N5O5)]
 Deg. of freedom   195
 Full point group                 C1      NOp   1
                          Input orientation:                          
 ---------------------------------------------------------------------
 Center     Atomic      Atomic             Coordinates (Angstroms)
 Number     Number       Type             X           Y           Z
 ---------------------------------------------------------------------
      1          7           0       -2.712419    2.034531    4.244472
      2          1           0       -2.845425    1.083918    4.584123
      3          1           0       -1.721128    2.233321    4.363513
      4          6           0       -3.064385    2.096502    2.843557
      5          1           0       -2.894335    3.113487    2.466330
      6          1           0       -4.141900    1.910191    2.736328
      7          6           0       -2.336322    1.095996    1.937549
      8          8           0       -1.682753    0.153654    2.400674
      9          7           0       -2.465214    1.295250    0.598764
     10          1           0       -3.017344    2.081067    0.279819
     11          6           0       -2.116878    0.280976   -0.400612
     12          1           0       -2.336770   -0.695634    0.046631
     13          6           0       -0.605821    0.293779   -0.679953
     14          6           0       -2.926103    0.473303   -1.682563
     15          1           0       -2.645182    1.431071   -2.138743
     16          1           0       -2.607035   -0.298699   -2.392011
     17          8           0       -0.106202    0.522358   -1.787821
     18          6           0       -4.453346    0.399477   -1.502469
     19          1           0       -4.770815    1.220937   -0.842498
     20          6           0       -5.136575    0.609212   -2.859525
     21          1           0       -4.877166   -0.199043   -3.554317
     22          1           0       -6.225833    0.618977   -2.751386
     23          1           0       -4.834265    1.557022   -3.319243
     24          6           0       -4.901453   -0.918300   -0.858717
     25          1           0       -4.559339   -1.777496   -1.449464
     26          1           0       -4.519245   -1.035122    0.161678
     27          1           0       -5.993604   -0.968195   -0.804351
     28          7           0        0.178451   -0.013049    0.379409
     29          1           0       -0.265522   -0.137050    1.297963
     30          6           0        1.611200    0.109585    0.237920
     31          1           0        1.894009    1.172877    0.202072
     32          6           0        2.004534   -0.468405   -1.105719
     33          6           0        2.365630   -0.538245    1.431904
     34          1           0        2.031719    0.048000    2.298651
     35          8           0        1.633393   -1.688357   -1.358664
     36          6           0        2.001233   -2.006072    1.680465
     37          1           0        2.375693   -2.656309    0.884548
     38          1           0        2.453884   -2.334679    2.620721
     39          1           0        0.920891   -2.155669    1.758136
     40          6           0        3.879052   -0.344869    1.282274
     41          1           0        4.279561   -0.932909    0.447298
     42          1           0        4.391293   -0.679112    2.188426
     43          1           0        4.145930    0.706541    1.121508
     44          7           0        2.814552    0.196242   -1.907625
     45          1           0        3.046918    1.135822   -1.606021
     46          6           0        2.939004   -0.032015   -3.365719
     47          1           0        1.969734   -0.421955   -3.703358
     48          6           0        4.002737   -1.096138   -3.644251
     49          6           0        3.233405    1.289747   -4.072451
     50          1           0        4.187011    1.689988   -3.704404
     51          1           0        3.397255    1.058562   -5.129819
     52          8           0        5.019212   -0.956324   -4.260605
     53          6           0        2.101833    2.314225   -3.925987
     54          1           0        1.944840    2.572628   -2.868511
     55          1           0        1.156983    1.861710   -4.254454
     56          6           0        2.366679    3.599399   -4.716312
     57          1           0        3.319539    4.044457   -4.395050
     58          1           0        2.480746    3.358050   -5.782442
     59          6           0        1.240055    4.633269   -4.545652
     60          1           0        0.288585    4.182892   -4.857673
     61          1           0        1.130014    4.871252   -3.478757
     62          7           0        1.397672    5.889188   -5.268818
     63          1           0        2.265253    6.349788   -4.999153
     64          1           0        1.460692    5.717287   -6.270737
     65          8           0        3.612041   -2.287762   -3.087461
     66          1           0        2.150025   -2.095549   -2.097700
     67          1           0        4.290914   -2.968002   -3.267679
 ---------------------------------------------------------------------
 Rotational constants (GHZ):           0.1558153           0.0930720           0.0752074
 Standard basis: 6-31G(d) (6D, 7F)
   511 basis functions,   964 primitive gaussians,   511 cartesian basis functions
   113 alpha electrons      113 beta electrons
       nuclear repulsion energy      3075.3044976114 Hartrees.
 NAtoms=   67 NActive=   67 NUniq=   67 SFac= 1.00D+00 NAtFMM=   60 NAOKFM=T Big=T
 Integral buffers will be    131072 words long.
 Raffenetti 2 integral format.
 Two-electron integral symmetry is turned off.
 Nuclear repulsion after empirical dispersion term =     3075.1775702670 Hartrees.
 One-electron integrals computed using PRISM.
 NBasis=   511 RedAO= T EigKep=  1.58D-03  NBF=   511
 NBsUse=   511 1.00D-06 EigRej= -1.00D+00 NBFU=   511
 Initial guess from the checkpoint file:  "conf-123.chk"
 B after Tr=     0.000000    0.000000    0.000000
         Rot=    1.000000    0.000000    0.000000    0.000000 Ang=   0.00 deg.
 Requested convergence on RMS density matrix=1.00D-08 within 128 cycles.
 Requested convergence on MAX density matrix=1.00D-06.
 Requested convergence on             energy=1.00D-06.
 No special actions if energy rises.
 SCF Done:  E(RB3LYP) =  -1396.74219012     A.U. after    1 cycles
            NFock=  1  Conv=0.77D-08     -V/T= 2.0094

 **********************************************************************

            Population analysis using the SCF Density.

 **********************************************************************

 Alpha  occ. eigenvalues --  -19.36606 -19.35723 -19.29327 -19.25212 -19.23280
 Alpha  occ. eigenvalues --  -14.55278 -14.48104 -14.47593 -14.39916 -14.38496
 Alpha  occ. eigenvalues --  -10.49258 -10.47218 -10.41149 -10.39885 -10.39522
 Alpha  occ. eigenvalues --  -10.38597 -10.34710 -10.32913 -10.32051 -10.31379
 Alpha  occ. eigenvalues --  -10.29835 -10.29810 -10.28832 -10.28575 -10.28568
 Alpha  occ. eigenvalues --  -10.28229 -10.27511 -10.25793 -10.25387  -1.27584
 Alpha  occ. eigenvalues --   -1.25532  -1.17275  -1.16902  -1.14752  -1.12591
 Alpha  occ. eigenvalues --   -1.05719  -1.03868  -0.97150  -0.96042  -0.95476
 Alpha  occ. eigenvalues --   -0.93183  -0.90827  -0.88735  -0.86790  -0.84721
 Alpha  occ. eigenvalues --   -0.81809  -0.80407  -0.80144  -0.78648  -0.76758
 Alpha  occ. eigenvalues --   -0.76633  -0.75404  -0.74648  -0.73082  -0.71370
 Alpha  occ. eigenvalues --   -0.69895  -0.68822  -0.68662  -0.66892  -0.65922
 Alpha  occ. eigenvalues --   -0.65530  -0.64109  -0.63593  -0.62105  -0.61599
 Alpha  occ. eigenvalues --   -0.60647  -0.59540  -0.59010  -0.58782  -0.58505
 Alpha  occ. eigenvalues --   -0.57619  -0.57455  -0.56268  -0.55644  -0.55537
 Alpha  occ. eigenvalues --   -0.55080  -0.54482  -0.54029  -0.53459  -0.53140
 Alpha  occ. eigenvalues --   -0.52124  -0.51862  -0.51732  -0.51165  -0.50612
 Alpha  occ. eigenvalues --   -0.50119  -0.49814  -0.49767  -0.48693  -0.48239
 Alpha  occ. eigenvalues --   -0.47842  -0.47666  -0.47280  -0.46619  -0.46413
 Alpha  occ. eigenvalues --   -0.46230  -0.46018  -0.45713  -0.45411  -0.45163
 Alpha  occ. eigenvalues --   -0.45081  -0.43991  -0.42245  -0.41983  -0.41766
 Alpha  occ. eigenvalues --   -0.41611  -0.41454  -0.39983  -0.38675  -0.37309
 Alpha  occ. eigenvalues --   -0.36311  -0.32510  -0.30576
 Alpha virt. eigenvalues --   -0.17806  -0.14679  -0.11187  -0.08798  -0.08173
 Alpha virt. eigenvalues --   -0.06754  -0.02949  -0.02690  -0.02293  -0.00690
 Alpha virt. eigenvalues --   -0.00238   0.00158   0.00392   0.00583   0.00847
 Alpha virt. eigenvalues --    0.02097   0.02211   0.02410   0.03054   0.03288
 Alpha virt. eigenvalues --    0.03667   0.03938   0.04537   0.05028   0.05654
 Alpha virt. eigenvalues --    0.05834   0.06297   0.06357   0.06496   0.06759
 Alpha virt. eigenvalues --    0.07033   0.07308   0.07927   0.08056   0.08574
 Alpha virt. eigenvalues --    0.09124   0.09404   0.09658   0.09777   0.10002
 Alpha virt. eigenvalues --    0.10467   0.10840   0.10935   0.11100   0.11381
 Alpha virt. eigenvalues --    0.11530   0.11746   0.12019   0.12159   0.12731
 Alpha virt. eigenvalues --    0.13148   0.14081   0.14568   0.15535   0.15998
 Alpha virt. eigenvalues --    0.16327   0.16639   0.17149   0.17885   0.18284
 Alpha virt. eigenvalues --    0.19105   0.19799   0.20225   0.21710   0.24049
 Alpha virt. eigenvalues --    0.25569   0.26106   0.27496   0.29112   0.31960
 Alpha virt. eigenvalues --    0.33972   0.35700   0.37448   0.38259   0.39034
 Alpha virt. eigenvalues --    0.39426   0.39940   0.40178   0.41365   0.42045
 Alpha virt. eigenvalues --    0.42844   0.43219   0.43545   0.43692   0.44971
 Alpha virt. eigenvalues --    0.45591   0.46311   0.46708   0.47027   0.47438
 Alpha virt. eigenvalues --    0.47861   0.48284   0.49319   0.49934   0.50421
 Alpha virt. eigenvalues --    0.51349   0.51955   0.52186   0.52592   0.52743
 Alpha virt. eigenvalues --    0.53919   0.54430   0.54788   0.55573   0.55975
 Alpha virt. eigenvalues --    0.56703   0.57169   0.57604   0.58244   0.59030
 Alpha virt. eigenvalues --    0.59846   0.60748   0.61602   0.62357   0.62469
 Alpha virt. eigenvalues --    0.63335   0.63744   0.64194   0.64321   0.64875
 Alpha virt. eigenvalues --    0.65790   0.66845   0.67053   0.67188   0.68095
 Alpha virt. eigenvalues --    0.68772   0.70082   0.70191   0.70757   0.71228
 Alpha virt. eigenvalues --    0.71771   0.71899   0.72684   0.73650   0.74031
 Alpha virt. eigenvalues --    0.74530   0.74966   0.75700   0.76270   0.76670
 Alpha virt. eigenvalues --    0.76830   0.77253   0.78001   0.78202   0.78897
 Alpha virt. eigenvalues --    0.79167   0.79484   0.79728   0.80253   0.80463
 Alpha virt. eigenvalues --    0.81095   0.81368   0.81794   0.82258   0.82423
 Alpha virt. eigenvalues --    0.82852   0.82984   0.83213   0.83652   0.84063
 Alpha virt. eigenvalues --    0.84372   0.84668   0.85146   0.85407   0.85733
 Alpha virt. eigenvalues --    0.86133   0.86296   0.86813   0.86828   0.87484
 Alpha virt. eigenvalues --    0.88023   0.88836   0.89024   0.89123   0.89746
 Alpha virt. eigenvalues --    0.90458   0.91248   0.91884   0.92184   0.92640
 Alpha virt. eigenvalues --    0.93600   0.94279   0.94620   0.95261   0.98615
 Alpha virt. eigenvalues --    0.98922   0.99817   1.01127   1.01784   1.02799
 Alpha virt. eigenvalues --    1.04210   1.06958   1.09065   1.10187   1.11649
 Alpha virt. eigenvalues --    1.12714   1.13761   1.14651   1.16068   1.18949
 Alpha virt. eigenvalues --    1.19707   1.21467   1.23247   1.23665   1.24484
 Alpha virt. eigenvalues --    1.24988   1.26390   1.27664   1.28908   1.29959
 Alpha virt. eigenvalues --    1.30230   1.31585   1.32734   1.32988   1.33682
 Alpha virt. eigenvalues --    1.35169   1.35824   1.37394   1.38206   1.38521
 Alpha virt. eigenvalues --    1.39215   1.40974   1.42434   1.44131   1.45615
 Alpha virt. eigenvalues --    1.45928   1.46298   1.46979   1.48844   1.49514
 Alpha virt. eigenvalues --    1.50490   1.51716   1.53132   1.54057   1.55449
 Alpha virt. eigenvalues --    1.56194   1.57738   1.58434   1.59858   1.60892
 Alpha virt. eigenvalues --    1.61758   1.62905   1.63403   1.64424   1.65180
 Alpha virt. eigenvalues --    1.66292   1.66552   1.67078   1.68447   1.68768
 Alpha virt. eigenvalues --    1.69102   1.70564   1.70702   1.71296   1.72694
 Alpha virt. eigenvalues --    1.73272   1.74225   1.75258   1.76621   1.77185
 Alpha virt. eigenvalues --    1.78481   1.78713   1.79316   1.80773   1.81602
 Alpha virt. eigenvalues --    1.82026   1.82448   1.83809   1.84790   1.85340
 Alpha virt. eigenvalues --    1.85664   1.86664   1.87200   1.88010   1.89149
 Alpha virt. eigenvalues --    1.89930   1.90290   1.91528   1.92388   1.92887
 Alpha virt. eigenvalues --    1.93022   1.93509   1.93789   1.94449   1.95303
 Alpha virt. eigenvalues --    1.95852   1.96603   1.97747   1.98875   1.99485
 Alpha virt. eigenvalues --    1.99621   1.99878   2.00825   2.01796   2.03029
 Alpha virt. eigenvalues --    2.03705   2.05091   2.06852   2.08469   2.08972
 Alpha virt. eigenvalues --    2.10521   2.11343   2.13264   2.14582   2.14968
 Alpha virt. eigenvalues --    2.15598   2.15987   2.16698   2.17784   2.18726
 Alpha virt. eigenvalues --    2.19392   2.20527   2.21861   2.22582   2.23120
 Alpha virt. eigenvalues --    2.23791   2.25612   2.26479   2.28623   2.30033
 Alpha virt. eigenvalues --    2.30884   2.31544   2.31782   2.32845   2.33848
 Alpha virt. eigenvalues --    2.35074   2.35808   2.36066   2.38614   2.39309
 Alpha virt. eigenvalues --    2.39783   2.41034   2.41357   2.42505   2.43510
 Alpha virt. eigenvalues --    2.44588   2.46894   2.49890   2.51258   2.51625
 Alpha virt. eigenvalues --    2.52398   2.53471   2.53847   2.54654   2.56642
 Alpha virt. eigenvalues --    2.57952   2.58177   2.58807   2.62439   2.64186
 Alpha virt. eigenvalues --    2.65446   2.66934   2.67861   2.69099   2.70387
 Alpha virt. eigenvalues --    2.70852   2.71445   2.76177   2.78877   2.80436
 Alpha virt. eigenvalues --    2.85183   2.86304   2.87532   2.92053   2.94379
 Alpha virt. eigenvalues --    2.95152   2.98574   3.04814   3.09097   3.69554
 Alpha virt. eigenvalues --    3.71277   3.75352   3.83423   3.90812   3.93029
 Alpha virt. eigenvalues --    3.97724   3.99326   4.01500   4.07241   4.07432
 Alpha virt. eigenvalues --    4.10317   4.15763   4.18871   4.19304   4.20865
 Alpha virt. eigenvalues --    4.22682   4.25278   4.25538   4.29283   4.32564
 Alpha virt. eigenvalues --    4.37234   4.39054   4.41331   4.43408   4.51794
 Alpha virt. eigenvalues --    4.53377   4.57962   4.59697
          Condensed to atoms (all electrons):
 Mulliken charges:
               1
     1  N   -0.671067
     2  H    0.319638
     3  H    0.305287
     4  C   -0.250930
     5  H    0.172862
     6  H    0.193650
     7  C    0.586234
     8  O   -0.543713
     9  N   -0.595295
    10  H    0.349275
    11  C   -0.075708
    12  H    0.197727
    13  C    0.662373
    14  C   -0.288168
    15  H    0.154950
    16  H    0.161334
    17  O   -0.551010
    18  C   -0.080980
    19  H    0.118370
    20  C   -0.444670
    21  H    0.150016
    22  H    0.162384
    23  H    0.148453
    24  C   -0.455906
    25  H    0.149334
    26  H    0.146546
    27  H    0.166742
    28  N   -0.647146
    29  H    0.405270
    30  C    0.014847
    31  H    0.166793
    32  C    0.658932
    33  C   -0.127828
    34  H    0.176031
    35  O   -0.551598
    36  C   -0.451787
    37  H    0.153624
    38  H    0.178139
    39  H    0.175308
    40  C   -0.467443
    41  H    0.146965
    42  H    0.191827
    43  H    0.151154
    44  N   -0.561370
    45  H    0.379600
    46  C   -0.101507
    47  H    0.224322
    48  C    0.644080
    49  C   -0.312791
    50  H    0.174474
    51  H    0.196575
    52  O   -0.390005
    53  C   -0.273980
    54  H    0.126121
    55  H    0.165545
    56  C   -0.269519
    57  H    0.135245
    58  H    0.143122
    59  C   -0.138981
    60  H    0.147511
    61  H    0.138617
    62  N   -0.697722
    63  H    0.299974
    64  H    0.302200
    65  O   -0.623182
    66  H    0.477641
    67  H    0.453214
 Sum of Mulliken charges =   1.00000
 Mulliken charges with hydrogens summed into heavy atoms:
               1
     1  N   -0.046142
     4  C    0.115582
     7  C    0.586234
     8  O   -0.543713
     9  N   -0.246020
    11  C    0.122019
    13  C    0.662373
    14  C    0.028116
    17  O   -0.551010
    18  C    0.037390
    20  C    0.016183
    24  C    0.006717
    28  N   -0.241876
    30  C    0.181640
    32  C    0.658932
    33  C    0.048203
    35  O   -0.073957
    36  C    0.055284
    40  C    0.022503
    44  N   -0.181770
    46  C    0.122815
    48  C    0.644080
    49  C    0.058258
    52  O   -0.390005
    53  C    0.017686
    56  C    0.008847
    59  C    0.147147
    62  N   -0.095548
    65  O   -0.169968
 Electronic spatial extent (au):  <R**2>=          17244.5072
 Charge=              1.0000 electrons
 Dipole moment (field-independent basis, Debye):
    X=              7.0726    Y=             -0.2242    Z=             -6.8072  Tot=              9.8188
 Quadrupole moment (field-independent basis, Debye-Ang):
   XX=           -123.4422   YY=           -158.8026   ZZ=           -143.4264
   XY=             -4.0020   XZ=            -14.7814   YZ=              1.1779
 Traceless Quadrupole moment (field-independent basis, Debye-Ang):
   XX=             18.4482   YY=            -16.9122   ZZ=             -1.5360
   XY=             -4.0020   XZ=            -14.7814   YZ=              1.1779
 Octapole moment (field-independent basis, Debye-Ang**2):
  XXX=           -161.9479  YYY=           -406.8429  ZZZ=            449.9623  XYY=             61.3091
  XXY=           -113.2939  XXZ=            143.9891  XZZ=             63.5551  YZZ=           -110.5992
  YYZ=            153.8698  XYZ=            -12.0946
 Hexadecapole moment (field-independent basis, Debye-Ang**3):
 XXXX=          -8934.9995 YYYY=          -4604.0561 ZZZZ=          -7709.1788 XXXY=             92.9008
 XXXZ=           1795.3466 YYYX=            375.7201 YYYZ=           1400.3384 ZZZX=           1439.1264
 ZZZY=            685.5024 XXYY=          -1866.1796 XXZZ=          -2919.0455 YYZZ=          -1961.0006
 XXYZ=            289.8884 YYXZ=            146.1668 ZZXY=            380.0611
 N-N= 3.075177570267D+03 E-N=-9.375683585630D+03  KE= 1.383688769547D+03
 Unable to Open any file for archive entry.
 1\1\GINC-QML-002\SP\RB3LYP\6-31G(d)\C19H38N5O5(1+)\KENGMITH\10-Jul-202
 2\0\\# B3LYP/6-31G* empiricaldispersion=gd3bj guess=read geom=check no
 symm integral(ultrafinegrid)\\Candidate Structure: Conf:123 Charge cal
 c in gas phase\\1,1\N,0,-2.7124194541,2.0345311135,4.244471659\H,0,-2.
 8454249383,1.0839179189,4.5841226724\H,0,-1.7211278932,2.2333213219,4.
 3635126513\C,0,-3.0643846811,2.0965023218,2.8435571961\H,0,-2.89433490
 36,3.1134872169,2.4663299416\H,0,-4.1419000173,1.9101914752,2.73632800
 61\C,0,-2.336322051,1.0959955382,1.9375493788\O,0,-1.6827525041,0.1536
 540279,2.4006744098\N,0,-2.4652138501,1.2952498477,0.5987638435\H,0,-3
 .0173443286,2.0810665293,0.2798188714\C,0,-2.1168781462,0.2809760617,-
 0.4006121207\H,0,-2.3367697134,-0.6956338606,0.0466310022\C,0,-0.60582
 1259,0.2937786598,-0.6799531769\C,0,-2.9261025244,0.4733027078,-1.6825
 630076\H,0,-2.6451817622,1.4310709355,-2.1387426959\H,0,-2.6070345028,
 -0.2986985557,-2.3920107254\O,0,-0.1062016194,0.5223578365,-1.78782077
 65\C,0,-4.4533456497,0.3994771714,-1.5024687438\H,0,-4.7708147948,1.22
 09373706,-0.8424979352\C,0,-5.1365749501,0.6092119496,-2.8595247216\H,
 0,-4.8771660674,-0.1990426927,-3.5543171365\H,0,-6.2258328981,0.618976
 7955,-2.75138603\H,0,-4.8342652758,1.5570223188,-3.3192427644\C,0,-4.9
 014529602,-0.9183004274,-0.8587166912\H,0,-4.5593386881,-1.7774963645,
 -1.4494636869\H,0,-4.5192450588,-1.0351218166,0.1616776997\H,0,-5.9936
 039336,-0.9681947831,-0.8043506611\N,0,0.1784509352,-0.0130487945,0.37
 9408763\H,0,-0.2655221233,-0.1370496267,1.2979630065\C,0,1.6112001734,
 0.1095850059,0.2379199227\H,0,1.8940091579,1.1728771477,0.2020719606\C
 ,0,2.0045335685,-0.468404597,-1.1057187776\C,0,2.3656303537,-0.5382447
 337,1.4319038242\H,0,2.0317191183,0.0479995574,2.2986510708\O,0,1.6333
 934041,-1.688356879,-1.3586636237\C,0,2.0012331813,-2.0060716177,1.680
 4653583\H,0,2.3756928155,-2.6563090311,0.8845483877\H,0,2.4538836239,-
 2.3346787135,2.6207211799\H,0,0.9208911645,-2.1556685481,1.7581358405\
 C,0,3.8790519369,-0.344868593,1.2822744347\H,0,4.2795606203,-0.9329094
 977,0.4472977378\H,0,4.3912932096,-0.6791116827,2.1884263982\H,0,4.145
 9303221,0.7065410481,1.1215075185\N,0,2.8145522059,0.1962415311,-1.907
 6247059\H,0,3.0469177644,1.1358215731,-1.6060211555\C,0,2.9390044179,-
 0.0320149669,-3.365719207\H,0,1.969733596,-0.421954633,-3.7033584236\C
 ,0,4.0027365317,-1.0961377127,-3.6442509278\C,0,3.2334048997,1.2897468
 151,-4.0724512906\H,0,4.1870112295,1.6899877419,-3.7044038579\H,0,3.39
 72545792,1.0585619727,-5.1298194685\O,0,5.019212271,-0.9563237079,-4.2
 606046999\C,0,2.1018326118,2.314224651,-3.9259868221\H,0,1.9448397259,
 2.5726278521,-2.868511478\H,0,1.1569827713,1.8617096594,-4.2544537753\
 C,0,2.3666792003,3.5993987779,-4.7163116717\H,0,3.319538626,4.04445699
 33,-4.3950496237\H,0,2.4807462993,3.3580503058,-5.7824422252\C,0,1.240
 054988,4.6332688269,-4.5456520673\H,0,0.2885852709,4.1828916065,-4.857
 6727868\H,0,1.1300141652,4.8712523979,-3.4787569927\N,0,1.3976719925,5
 .8891880565,-5.2688180623\H,0,2.2652533148,6.3497878167,-4.999153282\H
 ,0,1.4606915631,5.7172865859,-6.2707367426\O,0,3.6120409255,-2.2877620
 921,-3.0874607103\H,0,2.1500246413,-2.095549445,-2.0976999384\H,0,4.29
 09138322,-2.9680024883,-3.2676785248\\Version=ES64L-G16RevC.01\HF=-139
 6.7421901\RMSD=7.687e-09\Dipole=2.1760943,-1.2301632,-0.4444978\Quadru
 pole=13.7158029,-12.5738242,-1.1419787,-2.9753862,-10.9896177,0.875747
 6\PG=C01 [X(C19H38N5O5)]\\@
 The archive entry for this job was punched.


    UPON JULIA'S CLOTHES

 WHENAS IN SILKS MY JULIA GOES,
 THEN, THEN, METHINKS, HOW SWEETLY FLOWS
 THAT LIQUEFACTION OF HER CLOTHES.

 NEXT, WHEN I CAST MINE EYES, AND SEE
 THAT BRAVE VIBRATION, EACH WAY FREE,
 O, HOW THAT GLITTERING TAKETH ME!
     -- ROBERT HERRICK, 1648
 Job cpu time:       0 days  0 hours  1 minutes 46.8 seconds.
 Elapsed time:       0 days  0 hours  0 minutes 27.4 seconds.
 File lengths (MBytes):  RWF=    256 Int=      0 D2E=      0 Chk=     40 Scr=     16
 Normal termination of Gaussian 16 at Sun Jul 10 16:54:56 2022.
