 Entering Gaussian System, Link 0=/opt/software/Gaussian/g16-AVX2-C.01/g16/g16
 Input=charge-conf-304.com
 Output=charge-conf-304.log
 Initial command:
 /opt/software/Gaussian/g16-AVX2-C.01/g16/l1.exe "/mnt/gs18/scratch/users/kengmith/Gau-32705.inp" -scrdir="/mnt/gs18/scratch/users/kengmith/"
 Entering Link 1 = /opt/software/Gaussian/g16-AVX2-C.01/g16/l1.exe PID=     32720.
  
 Copyright (c) 1988-2019, Gaussian, Inc.  All Rights Reserved.
  
 This is part of the Gaussian(R) 16 program.  It is based on
 the Gaussian(R) 09 system (copyright 2009, Gaussian, Inc.),
 the Gaussian(R) 03 system (copyright 2003, Gaussian, Inc.),
 the Gaussian(R) 98 system (copyright 1998, Gaussian, Inc.),
 the Gaussian(R) 94 system (copyright 1995, Gaussian, Inc.),
 the Gaussian 92(TM) system (copyright 1992, Gaussian, Inc.),
 the Gaussian 90(TM) system (copyright 1990, Gaussian, Inc.),
 the Gaussian 88(TM) system (copyright 1988, Gaussian, Inc.),
 the Gaussian 86(TM) system (copyright 1986, Carnegie Mellon
 University), and the Gaussian 82(TM) system (copyright 1983,
 Carnegie Mellon University). Gaussian is a federally registered
 trademark of Gaussian, Inc.
  
 This software contains proprietary and confidential information,
 including trade secrets, belonging to Gaussian, Inc.
  
 This software is provided under written license and may be
 used, copied, transmitted, or stored only in accord with that
 written license.
  
 The following legend is applicable only to US Government
 contracts under FAR:
  
                    RESTRICTED RIGHTS LEGEND
  
 Use, reproduction and disclosure by the US Government is
 subject to restrictions as set forth in subparagraphs (a)
 and (c) of the Commercial Computer Software - Restricted
 Rights clause in FAR 52.227-19.
  
 Gaussian, Inc.
 340 Quinnipiac St., Bldg. 40, Wallingford CT 06492
  
  
 ---------------------------------------------------------------
 Warning -- This program may not be used in any manner that
 competes with the business of Gaussian, Inc. or will provide
 assistance to any competitor of Gaussian, Inc.  The licensee
 of this program is prohibited from giving any competitor of
 Gaussian, Inc. access to this program.  By using this program,
 the user acknowledges that Gaussian, Inc. is engaged in the
 business of creating and licensing software in the field of
 computational chemistry and represents and warrants to the
 licensee that it is not a competitor of Gaussian, Inc. and that
 it will not use this program in any manner prohibited above.
 ---------------------------------------------------------------
  

 Cite this work as:
 Gaussian 16, Revision C.01,
 M. J. Frisch, G. W. Trucks, H. B. Schlegel, G. E. Scuseria, 
 M. A. Robb, J. R. Cheeseman, G. Scalmani, V. Barone, 
 G. A. Petersson, H. Nakatsuji, X. Li, M. Caricato, A. V. Marenich, 
 J. Bloino, B. G. Janesko, R. Gomperts, B. Mennucci, H. P. Hratchian, 
 J. V. Ortiz, A. F. Izmaylov, J. L. Sonnenberg, D. Williams-Young, 
 F. Ding, F. Lipparini, F. Egidi, J. Goings, B. Peng, A. Petrone, 
 T. Henderson, D. Ranasinghe, V. G. Zakrzewski, J. Gao, N. Rega, 
 G. Zheng, W. Liang, M. Hada, M. Ehara, K. Toyota, R. Fukuda, 
 J. Hasegawa, M. Ishida, T. Nakajima, Y. Honda, O. Kitao, H. Nakai, 
 T. Vreven, K. Throssell, J. A. Montgomery, Jr., J. E. Peralta, 
 F. Ogliaro, M. J. Bearpark, J. J. Heyd, E. N. Brothers, K. N. Kudin, 
 V. N. Staroverov, T. A. Keith, R. Kobayashi, J. Normand, 
 K. Raghavachari, A. P. Rendell, J. C. Burant, S. S. Iyengar, 
 J. Tomasi, M. Cossi, J. M. Millam, M. Klene, C. Adamo, R. Cammi, 
 J. W. Ochterski, R. L. Martin, K. Morokuma, O. Farkas, 
 J. B. Foresman, and D. J. Fox, Gaussian, Inc., Wallingford CT, 2019.
 
 ******************************************
 Gaussian 16:  ES64L-G16RevC.01  3-Jul-2019
                26-May-2022 
 ******************************************
 %mem=8gb
 %nproc=4
 Will use up to    4 processors via shared memory.
 %chk=conf-304.chk
 -------------------------------------------------------------------
 # B3LYP/6-31G* guess=read geom=check nosymm integral(ultrafinegrid)
 -------------------------------------------------------------------
 1/29=2,38=1,172=1/1;
 2/12=2,15=1,40=1/2;
 3/5=1,6=6,7=1,11=2,14=-4,25=1,30=1,74=-5,75=-5,116=-2/1,2,3;
 4/5=1/1;
 5/5=2,38=6/2;
 6/7=2,8=2,9=2,10=2,28=1/1;
 99/5=1,9=1/99;
 ------------------------------------------------------
 Candidate Structure: Conf:304 Charge calc in gas phase
 ------------------------------------------------------
 Structure from the checkpoint file:  "conf-304.chk"
 Charge =  1 Multiplicity = 1
 Redundant internal coordinates found in file.  (old form).
 N,0,-8.8597248493,-0.6691821336,1.5442261656
 H,0,-9.655719469,-0.9316758354,2.1295023933
 H,0,-8.9759831782,0.3163712173,1.137354123
 H,0,-8.7798555419,-1.3432468928,0.7769704822
 C,0,-7.5546528447,-0.520715357,2.3101934528
 H,0,-7.8046552666,-0.5380867159,3.3741175034
 C,0,-7.1008251612,0.9083725011,1.8858317689
 C,0,-6.567247495,-1.6625011236,1.9682167704
 H,0,-7.1496157053,-2.588172048,1.861971361
 H,0,-6.0974919312,-1.445161851,1.0027256636
 O,0,-7.8864306179,1.5606461254,1.1802706726
 C,0,-5.5152636782,-1.8653550132,3.0439942332
 C,0,-4.2031901401,-1.41025642,2.8636852357
 H,0,-3.9011775222,-0.9159217569,1.9443522381
 C,0,-5.8576167811,-2.5056192545,4.2452053707
 H,0,-6.8679399385,-2.8847707179,4.3925079108
 C,0,-3.2533276358,-1.5746317,3.8764923162
 H,0,-2.2543368118,-1.1854518166,3.7126963717
 C,0,-4.9065050873,-2.6815774919,5.2484221025
 H,0,-5.1813249693,-3.1870141635,6.1698389148
 C,0,-3.6020213207,-2.2116608176,5.0664426274
 H,0,-2.8636976993,-2.3451147218,5.8518828267
 N,0,-5.9150016177,1.3498729746,2.3080137207
 H,0,-5.2888344965,0.6838245692,2.7545179971
 C,0,-5.2845259217,2.4870229418,1.6416325835
 H,0,-6.0461166081,3.2609627337,1.5147292202
 C,0,-4.8509678289,2.0477840097,0.2184693472
 C,0,-4.138595664,3.039219478,2.5406108848
 H,0,-3.5394981048,2.1981071185,2.9036869902
 H,0,-4.6080479902,3.5485973897,3.3908482368
 O,0,-4.9709837764,0.8864159022,-0.182168565
 O,0,-3.3164457032,3.9547119535,1.8446576998
 N,0,-4.41530315,3.0736536556,-0.5516974488
 H,0,-4.0673558597,3.8803960558,-0.0300048299
 C,0,-4.0165984321,2.903816601,-1.9473206173
 H,0,-4.589032805,2.0651863457,-2.3526802449
 C,0,-2.5171764526,2.5681001413,-2.0123598677
 C,0,-4.3329653033,4.1798727908,-2.7444956867
 H,0,-3.8801389131,5.0462885999,-2.2381412232
 H,0,-5.4164720999,4.326348334,-2.7567896077
 O,0,-1.6902362006,3.4215320687,-2.3865876285
 O,0,-3.9074316551,4.071136188,-4.0842830986
 H,0,-2.935890428,4.0772466361,-4.0531806875
 N,0,-2.173626325,1.3482633006,-1.5668699878
 H,0,-2.9184538037,0.7348668907,-1.2465852189
 C,0,-0.7942228102,1.0339100595,-1.2411786858
 H,0,-0.3070308566,1.9979689375,-1.1053372431
 C,0,-0.0519525998,0.397923644,-2.430324192
 C,0,-0.71286828,0.3445356146,0.1238328812
 H,0,-1.221766721,-0.6237739322,0.1261643894
 H,0,0.3351392605,0.158911688,0.3907404435
 O,0,-0.600184101,0.0721820754,-3.4706819131
 C,0,-1.3625132787,1.2666232268,1.1870112257
 O,0,-2.1244057702,0.7421973096,2.0152893777
 O,0,-1.100032093,2.5211224641,1.0927629494
 N,0,1.3076285665,0.3739591921,-2.2491315149
 H,0,1.673776039,0.7033191915,-1.3655965098
 C,0,2.2351791025,0.353654841,-3.3645879634
 H,0,1.6513733671,0.0266727887,-4.233271197
 C,0,3.3704721579,-0.6591410118,-3.2044969978
 C,0,2.8132929805,1.7649672531,-3.6211596449
 H,0,3.6344392303,1.6716324191,-4.3366732738
 H,0,3.2651427639,2.1136137398,-2.6807525989
 O,0,4.3484775767,-0.6760362952,-3.9169996683
 C,0,1.767780381,2.7921364698,-4.1249870271
 H,0,0.7541400579,2.3776517765,-4.0942679982
 H,0,1.9614723258,3.0175881607,-5.1795719284
 C,0,1.7713805579,4.1327616357,-3.368905105
 H,0,2.8033204793,4.4433541278,-3.1803824379
 H,0,1.2937845259,4.9073037828,-3.9814814798
 N,0,1.0568185228,4.0430734173,-2.0848543882
 H,0,0.0789865651,3.7180607894,-2.1434032349
 N,0,2.5274189499,5.3857773775,-0.8660640997
 H,0,2.8632624608,5.7123060015,0.0280851232
 H,0,2.8162044091,5.914642315,-1.6750045196
 N,0,0.7753288026,4.311799075,0.2043702253
 H,0,0.0669628145,3.5548467617,0.3350855331
 H,0,0.9493415862,4.8773720463,1.023338998
 C,0,1.4342340572,4.5852621405,-0.9236586367
 O,0,3.1703634344,-1.5343807132,-2.1971667811
 H,0,-2.4599496867,3.4842407485,1.6521943143
 H,0,3.9347108959,-2.1426283599,-2.2138099044
 Recover connectivity data from disk.
                           ----------------------------
                           !    Current Parameters    !
                           ! (Angstroms and Degrees)  !
 --------------------------                            --------------------------
 ! Name  Definition              Value                                          !
 --------------------------------------------------------------------------------
 ! R1    R(1,2)                  1.0223                                         !
 ! R2    R(1,3)                  1.0726                                         !
 ! R3    R(1,4)                  1.0244                                         !
 ! R4    R(1,5)                  1.5205                                         !
 ! R5    R(5,6)                  1.093                                          !
 ! R6    R(5,7)                  1.5583                                         !
 ! R7    R(5,8)                  1.5478                                         !
 ! R8    R(7,11)                 1.2411                                         !
 ! R9    R(7,23)                 1.3339                                         !
 ! R10   R(8,9)                  1.0988                                         !
 ! R11   R(8,10)                 1.0955                                         !
 ! R12   R(8,12)                 1.5183                                         !
 ! R13   R(12,13)                1.4004                                         !
 ! R14   R(12,15)                1.4036                                         !
 ! R15   R(13,14)                1.0866                                         !
 ! R16   R(13,17)                1.3982                                         !
 ! R17   R(15,16)                1.0891                                         !
 ! R18   R(15,19)                1.3936                                         !
 ! R19   R(17,18)                1.0846                                         !
 ! R20   R(17,21)                1.394                                          !
 ! R21   R(19,20)                1.0863                                         !
 ! R22   R(19,21)                1.3984                                         !
 ! R23   R(21,22)                1.0862                                         !
 ! R24   R(23,24)                1.0174                                         !
 ! R25   R(23,25)                1.4611                                         !
 ! R26   R(25,26)                1.0932                                         !
 ! R27   R(25,27)                1.5512                                         !
 ! R28   R(25,28)                1.5576                                         !
 ! R29   R(27,31)                1.2344                                         !
 ! R30   R(27,33)                1.3548                                         !
 ! R31   R(28,29)                1.0946                                         !
 ! R32   R(28,30)                1.0967                                         !
 ! R33   R(28,32)                1.4137                                         !
 ! R34   R(33,34)                1.0218                                         !
 ! R35   R(33,35)                1.4614                                         !
 ! R36   R(35,36)                1.0933                                         !
 ! R37   R(35,37)                1.5379                                         !
 ! R38   R(35,38)                1.5375                                         !
 ! R39   R(37,41)                1.2459                                         !
 ! R40   R(37,44)                1.3433                                         !
 ! R41   R(38,39)                1.101                                          !
 ! R42   R(38,40)                1.0934                                         !
 ! R43   R(38,42)                1.4099                                         !
 ! R44   R(42,43)                0.9721                                         !
 ! R45   R(44,45)                1.0167                                         !
 ! R46   R(44,46)                1.4518                                         !
 ! R47   R(46,47)                1.0887                                         !
 ! R48   R(46,48)                1.5393                                         !
 ! R49   R(46,49)                1.5314                                         !
 ! R50   R(48,52)                1.2202                                         !
 ! R51   R(48,56)                1.3718                                         !
 ! R52   R(49,50)                1.0939                                         !
 ! R53   R(49,51)                1.0973                                         !
 ! R54   R(49,53)                1.55                                           !
 ! R55   R(53,54)                1.2416                                         !
 ! R56   R(53,55)                1.2851                                         !
 ! R57   R(55,81)                1.7578                                         !
 ! R58   R(56,57)                1.0115                                         !
 ! R59   R(56,58)                1.4509                                         !
 ! R60   R(58,59)                1.0965                                         !
 ! R61   R(58,60)                1.5298                                         !
 ! R62   R(58,61)                1.5466                                         !
 ! R63   R(60,64)                1.2101                                         !
 ! R64   R(60,80)                1.3494                                         !
 ! R65   R(61,62)                1.0931                                         !
 ! R66   R(61,63)                1.1                                            !
 ! R67   R(61,65)                1.5498                                         !
 ! R68   R(65,66)                1.0955                                         !
 ! R69   R(65,67)                1.0957                                         !
 ! R70   R(65,68)                1.5391                                         !
 ! R71   R(68,69)                1.094                                          !
 ! R72   R(68,70)                1.0969                                         !
 ! R73   R(68,71)                1.4722                                         !
 ! R74   R(71,72)                1.0321                                         !
 ! R75   R(71,79)                1.336                                          !
 ! R76   R(73,74)                1.0094                                         !
 ! R77   R(73,75)                1.0087                                         !
 ! R78   R(73,79)                1.3562                                         !
 ! R79   R(76,77)                1.0449                                         !
 ! R80   R(76,78)                1.0104                                         !
 ! R81   R(76,79)                1.3347                                         !
 ! R82   R(80,82)                0.977                                          !
 ! A1    A(2,1,3)              111.6372                                         !
 ! A2    A(2,1,4)              108.6963                                         !
 ! A3    A(2,1,5)              113.8899                                         !
 ! A4    A(3,1,4)              109.2054                                         !
 ! A5    A(3,1,5)              101.2104                                         !
 ! A6    A(4,1,5)              112.0013                                         !
 ! A7    A(1,5,6)              107.0059                                         !
 ! A8    A(1,5,7)              101.6731                                         !
 ! A9    A(1,5,8)              111.36                                           !
 ! A10   A(6,5,7)              110.2583                                         !
 ! A11   A(6,5,8)              110.4416                                         !
 ! A12   A(7,5,8)              115.5033                                         !
 ! A13   A(5,7,11)             116.8996                                         !
 ! A14   A(5,7,23)             118.4402                                         !
 ! A15   A(11,7,23)            124.6575                                         !
 ! A16   A(5,8,9)              107.7412                                         !
 ! A17   A(5,8,10)             108.78                                           !
 ! A18   A(5,8,12)             112.5841                                         !
 ! A19   A(9,8,10)             108.0108                                         !
 ! A20   A(9,8,12)             108.8562                                         !
 ! A21   A(10,8,12)            110.7242                                         !
 ! A22   A(8,12,13)            120.966                                          !
 ! A23   A(8,12,15)            119.8902                                         !
 ! A24   A(13,12,15)           119.1408                                         !
 ! A25   A(12,13,14)           121.1429                                         !
 ! A26   A(12,13,17)           120.3322                                         !
 ! A27   A(14,13,17)           118.5225                                         !
 ! A28   A(12,15,16)           120.0537                                         !
 ! A29   A(12,15,19)           120.479                                          !
 ! A30   A(16,15,19)           119.4589                                         !
 ! A31   A(13,17,18)           118.3044                                         !
 ! A32   A(13,17,21)           120.139                                          !
 ! A33   A(18,17,21)           121.5528                                         !
 ! A34   A(15,19,20)           119.7832                                         !
 ! A35   A(15,19,21)           120.0359                                         !
 ! A36   A(20,19,21)           120.1807                                         !
 ! A37   A(17,21,19)           119.865                                          !
 ! A38   A(17,21,22)           120.2225                                         !
 ! A39   A(19,21,22)           119.9125                                         !
 ! A40   A(7,23,24)            117.9926                                         !
 ! A41   A(7,23,25)            119.7928                                         !
 ! A42   A(24,23,25)           116.3667                                         !
 ! A43   A(23,25,26)           107.6576                                         !
 ! A44   A(23,25,27)           108.5824                                         !
 ! A45   A(23,25,28)           109.2778                                         !
 ! A46   A(26,25,27)           106.7785                                         !
 ! A47   A(26,25,28)           109.1802                                         !
 ! A48   A(27,25,28)           115.1037                                         !
 ! A49   A(25,27,31)           122.48                                           !
 ! A50   A(25,27,33)           113.3922                                         !
 ! A51   A(31,27,33)           124.0005                                         !
 ! A52   A(25,28,29)           108.7641                                         !
 ! A53   A(25,28,30)           107.2883                                         !
 ! A54   A(25,28,32)           111.9199                                         !
 ! A55   A(29,28,30)           109.5133                                         !
 ! A56   A(29,28,32)           110.0362                                         !
 ! A57   A(30,28,32)           109.2585                                         !
 ! A58   A(27,33,34)           114.6528                                         !
 ! A59   A(27,33,35)           122.8642                                         !
 ! A60   A(34,33,35)           119.1076                                         !
 ! A61   A(33,35,36)           107.4808                                         !
 ! A62   A(33,35,37)           109.3756                                         !
 ! A63   A(33,35,38)           110.0335                                         !
 ! A64   A(36,35,37)           109.1082                                         !
 ! A65   A(36,35,38)           109.6732                                         !
 ! A66   A(37,35,38)           111.0918                                         !
 ! A67   A(35,37,41)           120.6835                                         !
 ! A68   A(35,37,44)           115.693                                          !
 ! A69   A(41,37,44)           123.4975                                         !
 ! A70   A(35,38,39)           109.2717                                         !
 ! A71   A(35,38,40)           108.718                                          !
 ! A72   A(35,38,42)           111.5049                                         !
 ! A73   A(39,38,40)           107.8976                                         !
 ! A74   A(39,38,42)           111.9373                                         !
 ! A75   A(40,38,42)           107.3806                                         !
 ! A76   A(38,42,43)           105.7095                                         !
 ! A77   A(37,44,45)           117.7098                                         !
 ! A78   A(37,44,46)           120.9324                                         !
 ! A79   A(45,44,46)           119.6553                                         !
 ! A80   A(44,46,47)           105.156                                          !
 ! A81   A(44,46,48)           111.9826                                         !
 ! A82   A(44,46,49)           110.3602                                         !
 ! A83   A(47,46,48)           104.2685                                         !
 ! A84   A(47,46,49)           105.2863                                         !
 ! A85   A(48,46,49)           118.4884                                         !
 ! A86   A(46,48,52)           123.5232                                         !
 ! A87   A(46,48,56)           112.5252                                         !
 ! A88   A(52,48,56)           123.5882                                         !
 ! A89   A(46,49,50)           112.0657                                         !
 ! A90   A(46,49,51)           110.1033                                         !
 ! A91   A(46,49,53)           108.7433                                         !
 ! A92   A(50,49,51)           107.1014                                         !
 ! A93   A(50,49,53)           109.2774                                         !
 ! A94   A(51,49,53)           109.517                                          !
 ! A95   A(49,53,54)           117.6127                                         !
 ! A96   A(49,53,55)           116.4104                                         !
 ! A97   A(54,53,55)           125.9143                                         !
 ! A98   A(53,55,81)           110.7012                                         !
 ! A99   A(48,56,57)           117.9326                                         !
 ! A100  A(48,56,58)           122.1614                                         !
 ! A101  A(57,56,58)           116.4032                                         !
 ! A102  A(56,58,59)           105.8351                                         !
 ! A103  A(56,58,60)           113.7817                                         !
 ! A104  A(56,58,61)           110.7171                                         !
 ! A105  A(59,58,60)           106.296                                          !
 ! A106  A(59,58,61)           109.8595                                         !
 ! A107  A(60,58,61)           110.127                                          !
 ! A108  A(58,60,64)           123.1883                                         !
 ! A109  A(58,60,80)           113.4213                                         !
 ! A110  A(64,60,80)           123.3895                                         !
 ! A111  A(58,61,62)           108.1478                                         !
 ! A112  A(58,61,63)           107.5143                                         !
 ! A113  A(58,61,65)           113.9891                                         !
 ! A114  A(62,61,63)           106.1451                                         !
 ! A115  A(62,61,65)           110.5208                                         !
 ! A116  A(63,61,65)           110.1786                                         !
 ! A117  A(61,65,66)           111.3645                                         !
 ! A118  A(61,65,67)           109.2695                                         !
 ! A119  A(61,65,68)           114.5827                                         !
 ! A120  A(66,65,67)           105.5692                                         !
 ! A121  A(66,65,68)           108.5379                                         !
 ! A122  A(67,65,68)           107.0482                                         !
 ! A123  A(65,68,69)           109.52                                           !
 ! A124  A(65,68,70)           109.8574                                         !
 ! A125  A(65,68,71)           111.9781                                         !
 ! A126  A(69,68,70)           107.8456                                         !
 ! A127  A(69,68,71)           108.9545                                         !
 ! A128  A(70,68,71)           108.588                                          !
 ! A129  A(68,71,72)           115.4392                                         !
 ! A130  A(68,71,79)           126.6018                                         !
 ! A131  A(72,71,79)           116.4081                                         !
 ! A132  A(74,73,75)           116.4572                                         !
 ! A133  A(74,73,79)           119.7857                                         !
 ! A134  A(75,73,79)           120.4112                                         !
 ! A135  A(77,76,78)           114.8888                                         !
 ! A136  A(77,76,79)           126.0737                                         !
 ! A137  A(78,76,79)           119.0348                                         !
 ! A138  A(71,79,73)           120.2779                                         !
 ! A139  A(71,79,76)           120.7961                                         !
 ! A140  A(73,79,76)           118.8811                                         !
 ! A141  A(60,80,82)           105.9672                                         !
 ! D1    D(2,1,5,6)            -11.1343                                         !
 ! D2    D(2,1,5,7)           -126.7873                                         !
 ! D3    D(2,1,5,8)            109.6477                                         !
 ! D4    D(3,1,5,6)            108.7936                                         !
 ! D5    D(3,1,5,7)             -6.8594                                         !
 ! D6    D(3,1,5,8)           -130.4245                                         !
 ! D7    D(4,1,5,6)           -134.9892                                         !
 ! D8    D(4,1,5,7)            109.3578                                         !
 ! D9    D(4,1,5,8)            -14.2073                                         !
 ! D10   D(1,5,7,11)             5.1166                                         !
 ! D11   D(1,5,7,23)          -175.4519                                         !
 ! D12   D(6,5,7,11)          -108.1239                                         !
 ! D13   D(6,5,7,23)            71.3075                                         !
 ! D14   D(8,5,7,11)           125.8224                                         !
 ! D15   D(8,5,7,23)           -54.7461                                         !
 ! D16   D(1,5,8,9)            -38.2205                                         !
 ! D17   D(1,5,8,10)            78.631                                          !
 ! D18   D(1,5,8,12)          -158.2592                                         !
 ! D19   D(6,5,8,9)             80.5247                                         !
 ! D20   D(6,5,8,10)          -162.6238                                         !
 ! D21   D(6,5,8,12)           -39.514                                          !
 ! D22   D(7,5,8,9)           -153.5152                                         !
 ! D23   D(7,5,8,10)           -36.6637                                         !
 ! D24   D(7,5,8,12)            86.4461                                         !
 ! D25   D(5,7,23,24)           10.1967                                         !
 ! D26   D(5,7,23,25)          162.3116                                         !
 ! D27   D(11,7,23,24)        -170.4197                                         !
 ! D28   D(11,7,23,25)         -18.3048                                         !
 ! D29   D(5,8,12,13)         -103.7981                                         !
 ! D30   D(5,8,12,15)           75.5637                                         !
 ! D31   D(9,8,12,13)          136.8093                                         !
 ! D32   D(9,8,12,15)          -43.8289                                         !
 ! D33   D(10,8,12,13)          18.2184                                         !
 ! D34   D(10,8,12,15)        -162.4197                                         !
 ! D35   D(8,12,13,14)          -1.0179                                         !
 ! D36   D(8,12,13,17)         178.4122                                         !
 ! D37   D(15,12,13,14)        179.6156                                         !
 ! D38   D(15,12,13,17)         -0.9543                                         !
 ! D39   D(8,12,15,16)           1.9612                                         !
 ! D40   D(8,12,15,19)        -179.0993                                         !
 ! D41   D(13,12,15,16)       -178.6653                                         !
 ! D42   D(13,12,15,19)          0.2742                                         !
 ! D43   D(12,13,17,18)       -178.3368                                         !
 ! D44   D(12,13,17,21)          0.9622                                         !
 ! D45   D(14,13,17,18)          1.1081                                         !
 ! D46   D(14,13,17,21)       -179.5929                                         !
 ! D47   D(12,15,19,20)       -179.4233                                         !
 ! D48   D(12,15,19,21)          0.4016                                         !
 ! D49   D(16,15,19,20)         -0.4775                                         !
 ! D50   D(16,15,19,21)        179.3474                                         !
 ! D51   D(13,17,21,19)         -0.2783                                         !
 ! D52   D(13,17,21,22)        179.6511                                         !
 ! D53   D(18,17,21,19)        178.9974                                         !
 ! D54   D(18,17,21,22)         -1.0731                                         !
 ! D55   D(15,19,21,17)         -0.4008                                         !
 ! D56   D(15,19,21,22)        179.6696                                         !
 ! D57   D(20,19,21,17)        179.4234                                         !
 ! D58   D(20,19,21,22)         -0.5063                                         !
 ! D59   D(7,23,25,26)          46.1919                                         !
 ! D60   D(7,23,25,27)         -69.0618                                         !
 ! D61   D(7,23,25,28)         164.6556                                         !
 ! D62   D(24,23,25,26)       -161.2555                                         !
 ! D63   D(24,23,25,27)         83.4908                                         !
 ! D64   D(24,23,25,28)        -42.7918                                         !
 ! D65   D(23,25,27,31)         -4.3249                                         !
 ! D66   D(23,25,27,33)        171.7237                                         !
 ! D67   D(26,25,27,31)       -120.1488                                         !
 ! D68   D(26,25,27,33)         55.8998                                         !
 ! D69   D(28,25,27,31)        118.5053                                         !
 ! D70   D(28,25,27,33)        -65.4461                                         !
 ! D71   D(23,25,28,29)         46.1334                                         !
 ! D72   D(23,25,28,30)        -72.2392                                         !
 ! D73   D(23,25,28,32)        167.9195                                         !
 ! D74   D(26,25,28,29)        163.643                                          !
 ! D75   D(26,25,28,30)         45.2703                                         !
 ! D76   D(26,25,28,32)        -74.571                                          !
 ! D77   D(27,25,28,29)        -76.3245                                         !
 ! D78   D(27,25,28,30)        165.3029                                         !
 ! D79   D(27,25,28,32)         45.4616                                         !
 ! D80   D(25,27,33,34)         23.9371                                         !
 ! D81   D(25,27,33,35)       -177.0406                                         !
 ! D82   D(31,27,33,34)       -160.0837                                         !
 ! D83   D(31,27,33,35)         -1.0614                                         !
 ! D84   D(27,33,35,36)         28.8916                                         !
 ! D85   D(27,33,35,37)        -89.4392                                         !
 ! D86   D(27,33,35,38)        148.2665                                         !
 ! D87   D(34,33,35,36)       -172.9724                                         !
 ! D88   D(34,33,35,37)         68.6968                                         !
 ! D89   D(34,33,35,38)        -53.5975                                         !
 ! D90   D(33,35,37,41)       -105.6639                                         !
 ! D91   D(33,35,37,44)         70.3948                                         !
 ! D92   D(36,35,37,41)        137.0249                                         !
 ! D93   D(36,35,37,44)        -46.9164                                         !
 ! D94   D(38,35,37,41)         15.9945                                         !
 ! D95   D(38,35,37,44)       -167.9469                                         !
 ! D96   D(33,35,38,39)         53.1761                                         !
 ! D97   D(33,35,38,40)        -64.3537                                         !
 ! D98   D(33,35,38,42)        177.4496                                         !
 ! D99   D(36,35,38,39)        171.2051                                         !
 ! D100  D(36,35,38,40)         53.6753                                         !
 ! D101  D(36,35,38,42)        -64.5214                                         !
 ! D102  D(37,35,38,39)        -68.0973                                         !
 ! D103  D(37,35,38,40)        174.373                                          !
 ! D104  D(37,35,38,42)         56.1763                                         !
 ! D105  D(35,37,44,45)          1.5407                                         !
 ! D106  D(35,37,44,46)       -163.5402                                         !
 ! D107  D(41,37,44,45)        177.4758                                         !
 ! D108  D(41,37,44,46)         12.395                                          !
 ! D109  D(35,38,42,43)        -69.3204                                         !
 ! D110  D(39,38,42,43)         53.4398                                         !
 ! D111  D(40,38,42,43)        171.6834                                         !
 ! D112  D(37,44,46,47)         19.0289                                         !
 ! D113  D(37,44,46,48)        -93.5969                                         !
 ! D114  D(37,44,46,49)        132.0995                                         !
 ! D115  D(45,44,46,47)       -145.7655                                         !
 ! D116  D(45,44,46,48)        101.6087                                         !
 ! D117  D(45,44,46,49)        -32.6949                                         !
 ! D118  D(44,46,48,52)         -7.1291                                         !
 ! D119  D(44,46,48,56)        166.1618                                         !
 ! D120  D(47,46,48,52)       -120.3065                                         !
 ! D121  D(47,46,48,56)         52.9844                                         !
 ! D122  D(49,46,48,52)        123.1085                                         !
 ! D123  D(49,46,48,56)        -63.6006                                         !
 ! D124  D(44,46,49,50)         64.0221                                         !
 ! D125  D(44,46,49,51)       -176.883                                          !
 ! D126  D(44,46,49,53)        -56.8908                                         !
 ! D127  D(47,46,49,50)        177.0093                                         !
 ! D128  D(47,46,49,51)        -63.8957                                         !
 ! D129  D(47,46,49,53)         56.0965                                         !
 ! D130  D(48,46,49,50)        -66.9486                                         !
 ! D131  D(48,46,49,51)         52.1464                                         !
 ! D132  D(48,46,49,53)        172.1386                                         !
 ! D133  D(46,48,56,57)          3.9091                                         !
 ! D134  D(46,48,56,58)       -154.2073                                         !
 ! D135  D(52,48,56,57)        177.195                                          !
 ! D136  D(52,48,56,58)         19.0786                                         !
 ! D137  D(46,49,53,54)        135.9649                                         !
 ! D138  D(46,49,53,55)        -41.3295                                         !
 ! D139  D(50,49,53,54)         13.3526                                         !
 ! D140  D(50,49,53,55)       -163.9418                                         !
 ! D141  D(51,49,53,54)       -103.6797                                         !
 ! D142  D(51,49,53,55)         79.0259                                         !
 ! D143  D(49,53,55,81)        148.0952                                         !
 ! D144  D(54,53,55,81)        -28.9444                                         !
 ! D145  D(48,56,58,59)        -18.498                                          !
 ! D146  D(48,56,58,60)       -134.8395                                         !
 ! D147  D(48,56,58,61)        100.5014                                         !
 ! D148  D(57,56,58,59)       -176.9272                                         !
 ! D149  D(57,56,58,60)         66.7312                                         !
 ! D150  D(57,56,58,61)        -57.9279                                         !
 ! D151  D(56,58,60,64)       -167.898                                          !
 ! D152  D(56,58,60,80)         12.4455                                         !
 ! D153  D(59,58,60,64)         76.0301                                         !
 ! D154  D(59,58,60,80)       -103.6263                                         !
 ! D155  D(61,58,60,64)        -42.923                                          !
 ! D156  D(61,58,60,80)        137.4206                                         !
 ! D157  D(56,58,61,62)        169.6976                                         !
 ! D158  D(56,58,61,63)         55.4746                                         !
 ! D159  D(56,58,61,65)        -66.9605                                         !
 ! D160  D(59,58,61,62)        -73.7646                                         !
 ! D161  D(59,58,61,63)        172.0123                                         !
 ! D162  D(59,58,61,65)         49.5772                                         !
 ! D163  D(60,58,61,62)         42.9867                                         !
 ! D164  D(60,58,61,63)        -71.2364                                         !
 ! D165  D(60,58,61,65)        166.3285                                         !
 ! D166  D(58,60,80,82)        177.9935                                         !
 ! D167  D(64,60,80,82)         -1.6622                                         !
 ! D168  D(58,61,65,66)          7.3358                                         !
 ! D169  D(58,61,65,67)       -108.9001                                         !
 ! D170  D(58,61,65,68)        131.0032                                         !
 ! D171  D(62,61,65,66)        129.3803                                         !
 ! D172  D(62,61,65,67)         13.1444                                         !
 ! D173  D(62,61,65,68)       -106.9523                                         !
 ! D174  D(63,61,65,66)       -113.6266                                         !
 ! D175  D(63,61,65,67)        130.1376                                         !
 ! D176  D(63,61,65,68)         10.0409                                         !
 ! D177  D(61,65,68,69)         41.3744                                         !
 ! D178  D(61,65,68,70)        159.6509                                         !
 ! D179  D(61,65,68,71)        -79.6035                                         !
 ! D180  D(66,65,68,69)        166.5397                                         !
 ! D181  D(66,65,68,70)        -75.1838                                         !
 ! D182  D(66,65,68,71)         45.5618                                         !
 ! D183  D(67,65,68,69)        -79.949                                          !
 ! D184  D(67,65,68,70)         38.3276                                         !
 ! D185  D(67,65,68,71)        159.0731                                         !
 ! D186  D(65,68,71,72)        -56.2589                                         !
 ! D187  D(65,68,71,79)        138.549                                          !
 ! D188  D(69,68,71,72)       -177.5634                                         !
 ! D189  D(69,68,71,79)         17.2445                                         !
 ! D190  D(70,68,71,72)         65.2201                                         !
 ! D191  D(70,68,71,79)        -99.972                                          !
 ! D192  D(68,71,79,73)          4.8666                                         !
 ! D193  D(68,71,79,76)       -172.6711                                         !
 ! D194  D(72,71,79,73)       -160.2005                                         !
 ! D195  D(72,71,79,76)         22.2618                                         !
 ! D196  D(74,73,79,71)       -173.5439                                         !
 ! D197  D(74,73,79,76)          4.0406                                         !
 ! D198  D(75,73,79,71)         27.8326                                         !
 ! D199  D(75,73,79,76)       -154.5829                                         !
 ! D200  D(77,76,79,71)         12.3397                                         !
 ! D201  D(77,76,79,73)       -165.2318                                         !
 ! D202  D(78,76,79,71)       -167.0259                                         !
 ! D203  D(78,76,79,73)         15.4025                                         !
 --------------------------------------------------------------------------------
 Symmetry turned off by external request.
 Stoichiometry    C25H39N8O10(1+)
 Framework group  C1[X(C25H39N8O10)]
 Deg. of freedom   240
 Full point group                 C1      NOp   1
                          Input orientation:                          
 ---------------------------------------------------------------------
 Center     Atomic      Atomic             Coordinates (Angstroms)
 Number     Number       Type             X           Y           Z
 ---------------------------------------------------------------------
      1          7           0       -8.859725   -0.669182    1.544226
      2          1           0       -9.655719   -0.931676    2.129502
      3          1           0       -8.975983    0.316371    1.137354
      4          1           0       -8.779856   -1.343247    0.776970
      5          6           0       -7.554653   -0.520715    2.310193
      6          1           0       -7.804655   -0.538087    3.374118
      7          6           0       -7.100825    0.908373    1.885832
      8          6           0       -6.567247   -1.662501    1.968217
      9          1           0       -7.149616   -2.588172    1.861971
     10          1           0       -6.097492   -1.445162    1.002726
     11          8           0       -7.886431    1.560646    1.180271
     12          6           0       -5.515264   -1.865355    3.043994
     13          6           0       -4.203190   -1.410256    2.863685
     14          1           0       -3.901178   -0.915922    1.944352
     15          6           0       -5.857617   -2.505619    4.245205
     16          1           0       -6.867940   -2.884771    4.392508
     17          6           0       -3.253328   -1.574632    3.876492
     18          1           0       -2.254337   -1.185452    3.712696
     19          6           0       -4.906505   -2.681577    5.248422
     20          1           0       -5.181325   -3.187014    6.169839
     21          6           0       -3.602021   -2.211661    5.066443
     22          1           0       -2.863698   -2.345115    5.851883
     23          7           0       -5.915002    1.349873    2.308014
     24          1           0       -5.288834    0.683825    2.754518
     25          6           0       -5.284526    2.487023    1.641633
     26          1           0       -6.046117    3.260963    1.514729
     27          6           0       -4.850968    2.047784    0.218469
     28          6           0       -4.138596    3.039219    2.540611
     29          1           0       -3.539498    2.198107    2.903687
     30          1           0       -4.608048    3.548597    3.390848
     31          8           0       -4.970984    0.886416   -0.182169
     32          8           0       -3.316446    3.954712    1.844658
     33          7           0       -4.415303    3.073654   -0.551697
     34          1           0       -4.067356    3.880396   -0.030005
     35          6           0       -4.016598    2.903817   -1.947321
     36          1           0       -4.589033    2.065186   -2.352680
     37          6           0       -2.517176    2.568100   -2.012360
     38          6           0       -4.332965    4.179873   -2.744496
     39          1           0       -3.880139    5.046289   -2.238141
     40          1           0       -5.416472    4.326348   -2.756790
     41          8           0       -1.690236    3.421532   -2.386588
     42          8           0       -3.907432    4.071136   -4.084283
     43          1           0       -2.935890    4.077247   -4.053181
     44          7           0       -2.173626    1.348263   -1.566870
     45          1           0       -2.918454    0.734867   -1.246585
     46          6           0       -0.794223    1.033910   -1.241179
     47          1           0       -0.307031    1.997969   -1.105337
     48          6           0       -0.051953    0.397924   -2.430324
     49          6           0       -0.712868    0.344536    0.123833
     50          1           0       -1.221767   -0.623774    0.126164
     51          1           0        0.335139    0.158912    0.390740
     52          8           0       -0.600184    0.072182   -3.470682
     53          6           0       -1.362513    1.266623    1.187011
     54          8           0       -2.124406    0.742197    2.015289
     55          8           0       -1.100032    2.521122    1.092763
     56          7           0        1.307629    0.373959   -2.249132
     57          1           0        1.673776    0.703319   -1.365597
     58          6           0        2.235179    0.353655   -3.364588
     59          1           0        1.651373    0.026673   -4.233271
     60          6           0        3.370472   -0.659141   -3.204497
     61          6           0        2.813293    1.764967   -3.621160
     62          1           0        3.634439    1.671632   -4.336673
     63          1           0        3.265143    2.113614   -2.680753
     64          8           0        4.348478   -0.676036   -3.917000
     65          6           0        1.767780    2.792136   -4.124987
     66          1           0        0.754140    2.377652   -4.094268
     67          1           0        1.961472    3.017588   -5.179572
     68          6           0        1.771381    4.132762   -3.368905
     69          1           0        2.803320    4.443354   -3.180382
     70          1           0        1.293785    4.907304   -3.981481
     71          7           0        1.056819    4.043073   -2.084854
     72          1           0        0.078987    3.718061   -2.143403
     73          7           0        2.527419    5.385777   -0.866064
     74          1           0        2.863262    5.712306    0.028085
     75          1           0        2.816204    5.914642   -1.675005
     76          7           0        0.775329    4.311799    0.204370
     77          1           0        0.066963    3.554847    0.335086
     78          1           0        0.949342    4.877372    1.023339
     79          6           0        1.434234    4.585262   -0.923659
     80          8           0        3.170363   -1.534381   -2.197167
     81          1           0       -2.459950    3.484241    1.652194
     82          1           0        3.934711   -2.142628   -2.213810
 ---------------------------------------------------------------------
 Rotational constants (GHZ):           0.1155681           0.0438669           0.0386815
 Standard basis: 6-31G(d) (6D, 7F)
   723 basis functions,  1360 primitive gaussians,   723 cartesian basis functions
   162 alpha electrons      162 beta electrons
       nuclear repulsion energy      5722.2256013379 Hartrees.
 NAtoms=   82 NActive=   82 NUniq=   82 SFac= 1.00D+00 NAtFMM=   60 NAOKFM=T Big=T
 Integral buffers will be    131072 words long.
 Raffenetti 2 integral format.
 Two-electron integral symmetry is turned off.
 One-electron integrals computed using PRISM.
 NBasis=   723 RedAO= T EigKep=  4.64D-04  NBF=   723
 NBsUse=   723 1.00D-06 EigRej= -1.00D+00 NBFU=   723
 Initial guess from the checkpoint file:  "conf-304.chk"
 B after Tr=     0.000000    0.000000    0.000000
         Rot=    1.000000    0.000000    0.000000    0.000000 Ang=   0.00 deg.
 Requested convergence on RMS density matrix=1.00D-08 within 128 cycles.
 Requested convergence on MAX density matrix=1.00D-06.
 Requested convergence on             energy=1.00D-06.
 No special actions if energy rises.
 SCF Done:  E(RB3LYP) =  -2166.28253904     A.U. after    1 cycles
            NFock=  1  Conv=0.85D-08     -V/T= 2.0093

 **********************************************************************

            Population analysis using the SCF Density.

 **********************************************************************

 Alpha  occ. eigenvalues --  -19.26967 -19.25783 -19.21900 -19.21114 -19.20994
 Alpha  occ. eigenvalues --  -19.20436 -19.20419 -19.19273 -19.17707 -19.16384
 Alpha  occ. eigenvalues --  -14.58434 -14.49150 -14.47874 -14.47552 -14.46769
 Alpha  occ. eigenvalues --  -14.44810 -14.44271 -14.43920 -10.44642 -10.42297
 Alpha  occ. eigenvalues --  -10.39455 -10.39315 -10.38048 -10.37748 -10.36523
 Alpha  occ. eigenvalues --  -10.35056 -10.33275 -10.32312 -10.32309 -10.31813
 Alpha  occ. eigenvalues --  -10.31527 -10.31156 -10.30503 -10.30279 -10.29386
 Alpha  occ. eigenvalues --  -10.28004 -10.27966 -10.27588 -10.27464 -10.27026
 Alpha  occ. eigenvalues --  -10.26977 -10.26864 -10.26637  -1.18246  -1.17836
 Alpha  occ. eigenvalues --   -1.13392  -1.12811  -1.12590  -1.12054  -1.11227
 Alpha  occ. eigenvalues --   -1.10088  -1.08729  -1.08083  -1.07787  -1.04572
 Alpha  occ. eigenvalues --   -1.02383  -1.01853  -1.01357  -1.00825  -1.00581
 Alpha  occ. eigenvalues --   -1.00408  -0.94987  -0.91108  -0.88961  -0.87021
 Alpha  occ. eigenvalues --   -0.85718  -0.84083  -0.83285  -0.82748  -0.81761
 Alpha  occ. eigenvalues --   -0.78068  -0.78051  -0.75594  -0.74416  -0.73313
 Alpha  occ. eigenvalues --   -0.72666  -0.71555  -0.71408  -0.71041  -0.70213
 Alpha  occ. eigenvalues --   -0.69628  -0.68941  -0.67948  -0.67557  -0.66864
 Alpha  occ. eigenvalues --   -0.66607  -0.66549  -0.66216  -0.64292  -0.62802
 Alpha  occ. eigenvalues --   -0.62193  -0.61665  -0.61225  -0.60402  -0.59709
 Alpha  occ. eigenvalues --   -0.59206  -0.58709  -0.58134  -0.57902  -0.57192
 Alpha  occ. eigenvalues --   -0.56881  -0.56548  -0.56425  -0.55770  -0.55574
 Alpha  occ. eigenvalues --   -0.54949  -0.54726  -0.54351  -0.53908  -0.53740
 Alpha  occ. eigenvalues --   -0.52410  -0.52277  -0.51929  -0.51798  -0.51400
 Alpha  occ. eigenvalues --   -0.51270  -0.51056  -0.50662  -0.50490  -0.50152
 Alpha  occ. eigenvalues --   -0.49785  -0.49434  -0.49038  -0.48647  -0.48299
 Alpha  occ. eigenvalues --   -0.48107  -0.47839  -0.47017  -0.46825  -0.46669
 Alpha  occ. eigenvalues --   -0.46160  -0.45685  -0.45220  -0.44385  -0.44343
 Alpha  occ. eigenvalues --   -0.43630  -0.43415  -0.43086  -0.42750  -0.42544
 Alpha  occ. eigenvalues --   -0.42336  -0.40666  -0.40233  -0.39818  -0.39381
 Alpha  occ. eigenvalues --   -0.38809  -0.38471  -0.37362  -0.36819  -0.35920
 Alpha  occ. eigenvalues --   -0.35414  -0.35041  -0.34272  -0.33745  -0.33505
 Alpha  occ. eigenvalues --   -0.33327  -0.33248  -0.32735  -0.32527  -0.32444
 Alpha  occ. eigenvalues --   -0.32140  -0.29963
 Alpha virt. eigenvalues --   -0.11705  -0.09778  -0.09113  -0.09004  -0.08739
 Alpha virt. eigenvalues --   -0.08253  -0.06517  -0.06123  -0.05914  -0.04954
 Alpha virt. eigenvalues --   -0.04792  -0.02517  -0.02419  -0.01660  -0.00425
 Alpha virt. eigenvalues --    0.00002   0.01126   0.01323   0.01372   0.01913
 Alpha virt. eigenvalues --    0.01953   0.02336   0.02754   0.03317   0.03590
 Alpha virt. eigenvalues --    0.03754   0.04686   0.04818   0.05159   0.05236
 Alpha virt. eigenvalues --    0.05837   0.06020   0.06177   0.06828   0.07153
 Alpha virt. eigenvalues --    0.07396   0.08056   0.08120   0.08530   0.08957
 Alpha virt. eigenvalues --    0.09656   0.09873   0.10444   0.10473   0.10708
 Alpha virt. eigenvalues --    0.10995   0.11640   0.11782   0.11845   0.12218
 Alpha virt. eigenvalues --    0.12269   0.13422   0.13728   0.14092   0.14346
 Alpha virt. eigenvalues --    0.14416   0.15232   0.15308   0.15663   0.15711
 Alpha virt. eigenvalues --    0.16543   0.16850   0.17363   0.18101   0.18619
 Alpha virt. eigenvalues --    0.18951   0.19468   0.20143   0.21034   0.21426
 Alpha virt. eigenvalues --    0.21912   0.22602   0.23029   0.23328   0.23865
 Alpha virt. eigenvalues --    0.24831   0.24961   0.26250   0.26756   0.27766
 Alpha virt. eigenvalues --    0.28371   0.29101   0.29136   0.29717   0.31126
 Alpha virt. eigenvalues --    0.32663   0.32925   0.34707   0.34895   0.36631
 Alpha virt. eigenvalues --    0.38425   0.38583   0.39998   0.40399   0.41127
 Alpha virt. eigenvalues --    0.41210   0.42434   0.42613   0.43432   0.43658
 Alpha virt. eigenvalues --    0.43958   0.44453   0.44724   0.45511   0.45625
 Alpha virt. eigenvalues --    0.46253   0.46469   0.47122   0.47458   0.47714
 Alpha virt. eigenvalues --    0.48113   0.48232   0.48718   0.48892   0.49278
 Alpha virt. eigenvalues --    0.49429   0.49675   0.50222   0.50450   0.50966
 Alpha virt. eigenvalues --    0.51485   0.51793   0.52098   0.52483   0.52595
 Alpha virt. eigenvalues --    0.53314   0.53417   0.53766   0.53883   0.54344
 Alpha virt. eigenvalues --    0.54430   0.54907   0.55285   0.55670   0.56024
 Alpha virt. eigenvalues --    0.56842   0.57334   0.57634   0.57928   0.58270
 Alpha virt. eigenvalues --    0.58941   0.59173   0.59437   0.59654   0.60102
 Alpha virt. eigenvalues --    0.60613   0.61011   0.61269   0.61452   0.62284
 Alpha virt. eigenvalues --    0.63146   0.63231   0.63838   0.64802   0.64850
 Alpha virt. eigenvalues --    0.65102   0.65629   0.65721   0.66883   0.67347
 Alpha virt. eigenvalues --    0.67601   0.68267   0.68727   0.68915   0.69420
 Alpha virt. eigenvalues --    0.70157   0.70393   0.70396   0.71570   0.71912
 Alpha virt. eigenvalues --    0.72190   0.72873   0.73268   0.73520   0.73785
 Alpha virt. eigenvalues --    0.74169   0.74220   0.74781   0.74988   0.75188
 Alpha virt. eigenvalues --    0.75661   0.75891   0.76780   0.76957   0.77056
 Alpha virt. eigenvalues --    0.77316   0.77427   0.78114   0.78403   0.79142
 Alpha virt. eigenvalues --    0.79231   0.79615   0.79906   0.80038   0.80184
 Alpha virt. eigenvalues --    0.80604   0.81087   0.81136   0.81702   0.82011
 Alpha virt. eigenvalues --    0.82726   0.83141   0.83504   0.83787   0.84594
 Alpha virt. eigenvalues --    0.84920   0.85294   0.86269   0.86574   0.86732
 Alpha virt. eigenvalues --    0.86949   0.87171   0.87481   0.88011   0.88771
 Alpha virt. eigenvalues --    0.89455   0.89590   0.90245   0.90898   0.91281
 Alpha virt. eigenvalues --    0.91958   0.92245   0.93290   0.93540   0.94105
 Alpha virt. eigenvalues --    0.94880   0.95865   0.96200   0.96987   0.97691
 Alpha virt. eigenvalues --    0.98345   0.98637   0.99259   0.99721   1.00526
 Alpha virt. eigenvalues --    1.00910   1.01589   1.01861   1.02433   1.02875
 Alpha virt. eigenvalues --    1.03243   1.04144   1.05085   1.05338   1.06876
 Alpha virt. eigenvalues --    1.07258   1.07695   1.08559   1.09001   1.09831
 Alpha virt. eigenvalues --    1.10061   1.10383   1.10549   1.11648   1.12412
 Alpha virt. eigenvalues --    1.13729   1.13922   1.14481   1.16357   1.16767
 Alpha virt. eigenvalues --    1.16996   1.17422   1.18264   1.19019   1.19592
 Alpha virt. eigenvalues --    1.20388   1.20964   1.21478   1.22233   1.23263
 Alpha virt. eigenvalues --    1.24562   1.25003   1.25650   1.26176   1.27281
 Alpha virt. eigenvalues --    1.27776   1.28480   1.28941   1.30498   1.31426
 Alpha virt. eigenvalues --    1.32325   1.32589   1.32916   1.34224   1.34607
 Alpha virt. eigenvalues --    1.35452   1.35908   1.37349   1.37731   1.38230
 Alpha virt. eigenvalues --    1.39310   1.39573   1.40083   1.40252   1.41639
 Alpha virt. eigenvalues --    1.42108   1.42526   1.42950   1.43766   1.43798
 Alpha virt. eigenvalues --    1.44990   1.45750   1.46738   1.47179   1.48107
 Alpha virt. eigenvalues --    1.49106   1.49296   1.50848   1.51773   1.52325
 Alpha virt. eigenvalues --    1.52630   1.53551   1.54060   1.54618   1.54807
 Alpha virt. eigenvalues --    1.55922   1.56482   1.57817   1.58389   1.59306
 Alpha virt. eigenvalues --    1.59810   1.60380   1.60907   1.62137   1.62316
 Alpha virt. eigenvalues --    1.62867   1.63961   1.64249   1.64540   1.65181
 Alpha virt. eigenvalues --    1.65532   1.66105   1.66726   1.67215   1.67724
 Alpha virt. eigenvalues --    1.68730   1.69498   1.69795   1.70617   1.70898
 Alpha virt. eigenvalues --    1.71490   1.72329   1.72397   1.72874   1.73362
 Alpha virt. eigenvalues --    1.73764   1.73848   1.75014   1.75155   1.75197
 Alpha virt. eigenvalues --    1.75858   1.76025   1.76581   1.77153   1.77414
 Alpha virt. eigenvalues --    1.78409   1.78822   1.78893   1.79234   1.80846
 Alpha virt. eigenvalues --    1.81093   1.81814   1.82170   1.82906   1.83192
 Alpha virt. eigenvalues --    1.83558   1.84409   1.85106   1.85310   1.85437
 Alpha virt. eigenvalues --    1.85766   1.86914   1.87339   1.87709   1.88283
 Alpha virt. eigenvalues --    1.88571   1.89150   1.89599   1.89747   1.90105
 Alpha virt. eigenvalues --    1.91262   1.91642   1.91915   1.92673   1.93173
 Alpha virt. eigenvalues --    1.93723   1.94488   1.95136   1.95738   1.96285
 Alpha virt. eigenvalues --    1.96737   1.97464   1.97861   1.98358   1.99723
 Alpha virt. eigenvalues --    2.00271   2.00792   2.01104   2.01401   2.02035
 Alpha virt. eigenvalues --    2.02561   2.03168   2.03740   2.04117   2.04428
 Alpha virt. eigenvalues --    2.06221   2.06360   2.06674   2.07378   2.08986
 Alpha virt. eigenvalues --    2.09420   2.09898   2.10432   2.11094   2.12077
 Alpha virt. eigenvalues --    2.12963   2.13510   2.14273   2.14653   2.16759
 Alpha virt. eigenvalues --    2.17107   2.18817   2.19440   2.19622   2.20376
 Alpha virt. eigenvalues --    2.20778   2.21825   2.22670   2.24114   2.24471
 Alpha virt. eigenvalues --    2.25022   2.25803   2.26449   2.27238   2.28098
 Alpha virt. eigenvalues --    2.28561   2.29137   2.29404   2.30291   2.31678
 Alpha virt. eigenvalues --    2.32044   2.33138   2.33995   2.34604   2.35359
 Alpha virt. eigenvalues --    2.36139   2.36783   2.37707   2.38040   2.38282
 Alpha virt. eigenvalues --    2.38440   2.40054   2.40620   2.42695   2.44499
 Alpha virt. eigenvalues --    2.45351   2.45680   2.47017   2.47574   2.48836
 Alpha virt. eigenvalues --    2.49300   2.50324   2.50457   2.50941   2.51559
 Alpha virt. eigenvalues --    2.52052   2.52969   2.54099   2.54546   2.55629
 Alpha virt. eigenvalues --    2.55911   2.56803   2.57086   2.57574   2.58786
 Alpha virt. eigenvalues --    2.60111   2.60794   2.61936   2.63494   2.63736
 Alpha virt. eigenvalues --    2.64437   2.64971   2.65549   2.65703   2.66187
 Alpha virt. eigenvalues --    2.66918   2.67297   2.68342   2.69670   2.71135
 Alpha virt. eigenvalues --    2.72012   2.76512   2.79666   2.79929   2.80435
 Alpha virt. eigenvalues --    2.81376   2.82218   2.84106   2.85158   2.87259
 Alpha virt. eigenvalues --    2.89617   2.91352   2.92597   2.93424   2.93674
 Alpha virt. eigenvalues --    2.95129   2.95718   2.96554   2.97141   2.99075
 Alpha virt. eigenvalues --    3.00928   3.05000   3.05347   3.06972   3.08187
 Alpha virt. eigenvalues --    3.09484   3.10999   3.32339   3.64964   3.69243
 Alpha virt. eigenvalues --    3.73606   3.74249   3.82216   3.88214   3.92791
 Alpha virt. eigenvalues --    3.94667   3.95209   3.96989   4.00049   4.01348
 Alpha virt. eigenvalues --    4.03185   4.04667   4.05151   4.06410   4.07377
 Alpha virt. eigenvalues --    4.08702   4.11900   4.12946   4.16192   4.17490
 Alpha virt. eigenvalues --    4.19001   4.20747   4.22759   4.24745   4.26996
 Alpha virt. eigenvalues --    4.27434   4.30583   4.31936   4.34632   4.37139
 Alpha virt. eigenvalues --    4.40254   4.42011   4.43430   4.45328   4.47376
 Alpha virt. eigenvalues --    4.49920   4.52590   4.57337   4.58592   4.63471
 Alpha virt. eigenvalues --    4.66774
          Condensed to atoms (all electrons):
 Mulliken charges:
               1
     1  N   -0.764719
     2  H    0.411105
     3  H    0.437532
     4  H    0.413567
     5  C   -0.105780
     6  H    0.225817
     7  C    0.660305
     8  C   -0.398678
     9  H    0.170472
    10  H    0.219079
    11  O   -0.541632
    12  C    0.142971
    13  C   -0.232218
    14  H    0.185099
    15  C   -0.179444
    16  H    0.119782
    17  C   -0.123311
    18  H    0.176168
    19  C   -0.123989
    20  H    0.152624
    21  C   -0.125632
    22  H    0.154043
    23  N   -0.591416
    24  H    0.378180
    25  C   -0.106718
    26  H    0.207052
    27  C    0.637258
    28  C   -0.053348
    29  H    0.188594
    30  H    0.150248
    31  O   -0.562995
    32  O   -0.677518
    33  N   -0.600206
    34  H    0.367960
    35  C   -0.095056
    36  H    0.199466
    37  C    0.651832
    38  C   -0.028379
    39  H    0.132078
    40  H    0.163929
    41  O   -0.584299
    42  O   -0.615903
    43  H    0.409242
    44  N   -0.570923
    45  H    0.370195
    46  C   -0.078918
    47  H    0.146507
    48  C    0.629675
    49  C   -0.378536
    50  H    0.172864
    51  H    0.160354
    52  O   -0.503803
    53  C    0.616315
    54  O   -0.552037
    55  O   -0.634355
    56  N   -0.586946
    57  H    0.325972
    58  C   -0.078045
    59  H    0.228327
    60  C    0.589854
    61  C   -0.279317
    62  H    0.196545
    63  H    0.133159
    64  O   -0.452707
    65  C   -0.296843
    66  H    0.189645
    67  H    0.173393
    68  C   -0.167245
    69  H    0.163771
    70  H    0.183011
    71  N   -0.638609
    72  H    0.428514
    73  N   -0.761286
    74  H    0.368881
    75  H    0.374947
    76  N   -0.806325
    77  H    0.447552
    78  H    0.356631
    79  C    0.780398
    80  O   -0.558437
    81  H    0.443666
    82  H    0.421000
 Sum of Mulliken charges =   1.00000
 Mulliken charges with hydrogens summed into heavy atoms:
               1
     1  N    0.497485
     5  C    0.120037
     7  C    0.660305
     8  C   -0.009127
    11  O   -0.541632
    12  C    0.142971
    13  C   -0.047119
    15  C   -0.059663
    17  C    0.052857
    19  C    0.028634
    21  C    0.028411
    23  N   -0.213236
    25  C    0.100333
    27  C    0.637258
    28  C    0.285494
    31  O   -0.562995
    32  O   -0.233852
    33  N   -0.232247
    35  C    0.104410
    37  C    0.651832
    38  C    0.267628
    41  O   -0.584299
    42  O   -0.206661
    44  N   -0.200728
    46  C    0.067588
    48  C    0.629675
    49  C   -0.045317
    52  O   -0.503803
    53  C    0.616315
    54  O   -0.552037
    55  O   -0.634355
    56  N   -0.260974
    58  C    0.150282
    60  C    0.589854
    61  C    0.050386
    64  O   -0.452707
    65  C    0.066195
    68  C    0.179537
    71  N   -0.210096
    73  N   -0.017459
    76  N   -0.002142
    79  C    0.780398
    80  O   -0.137437
 Electronic spatial extent (au):  <R**2>=          36079.7992
 Charge=              1.0000 electrons
 Dipole moment (field-independent basis, Debye):
    X=            -16.9936    Y=              6.8447    Z=              6.3799  Tot=             19.3994
 Quadrupole moment (field-independent basis, Debye-Ang):
   XX=             -8.4946   YY=           -175.0548   ZZ=           -233.2867
   XY=             71.7469   XZ=            -67.2649   YZ=            -25.5162
 Traceless Quadrupole moment (field-independent basis, Debye-Ang):
   XX=            130.4508   YY=            -36.1095   ZZ=            -94.3413
   XY=             71.7469   XZ=            -67.2649   YZ=            -25.5162
 Octapole moment (field-independent basis, Debye-Ang**2):
  XXX=           -410.3794  YYY=           -607.3615  ZZZ=            282.5993  XYY=            749.4456
  XXY=           -585.2138  XXZ=            567.1004  XZZ=            455.8780  YZZ=           -341.4058
  YYZ=            -13.5750  XYZ=             11.4115
 Hexadecapole moment (field-independent basis, Debye-Ang**3):
 XXXX=          -6505.8724 YYYY=          -7853.0935 ZZZZ=         -10404.7336 XXXY=           3738.0762
 XXXZ=            198.8208 YYYX=           1924.3033 YYYZ=           1870.7969 ZZZX=           3369.2965
 ZZZY=           1767.6255 XXYY=          -5116.1882 XXZZ=          -5220.4847 YYZZ=          -3174.8877
 XXYZ=            210.7325 YYXZ=            977.9641 ZZXY=            920.7412
 N-N= 5.722225601338D+03 E-N=-1.647191003660D+04  KE= 2.146422639898D+03
 Unable to Open any file for archive entry.
 1\1\GINC-LAC-316\SP\RB3LYP\6-31G(d)\C25H39N8O10(1+)\KENGMITH\26-May-20
 22\0\\# B3LYP/6-31G* guess=read geom=check nosymm integral(ultrafinegr
 id)\\Candidate Structure: Conf:304 Charge calc in gas phase\\1,1\N,0,-
 8.8597248493,-0.6691821336,1.5442261656\H,0,-9.655719469,-0.9316758354
 ,2.1295023933\H,0,-8.9759831782,0.3163712173,1.137354123\H,0,-8.779855
 5419,-1.3432468928,0.7769704822\C,0,-7.5546528447,-0.520715357,2.31019
 34528\H,0,-7.8046552666,-0.5380867159,3.3741175034\C,0,-7.1008251612,0
 .9083725011,1.8858317689\C,0,-6.567247495,-1.6625011236,1.9682167704\H
 ,0,-7.1496157053,-2.588172048,1.861971361\H,0,-6.0974919312,-1.4451618
 51,1.0027256636\O,0,-7.8864306179,1.5606461254,1.1802706726\C,0,-5.515
 2636782,-1.8653550132,3.0439942332\C,0,-4.2031901401,-1.41025642,2.863
 6852357\H,0,-3.9011775222,-0.9159217569,1.9443522381\C,0,-5.8576167811
 ,-2.5056192545,4.2452053707\H,0,-6.8679399385,-2.8847707179,4.39250791
 08\C,0,-3.2533276358,-1.5746317,3.8764923162\H,0,-2.2543368118,-1.1854
 518166,3.7126963717\C,0,-4.9065050873,-2.6815774919,5.2484221025\H,0,-
 5.1813249693,-3.1870141635,6.1698389148\C,0,-3.6020213207,-2.211660817
 6,5.0664426274\H,0,-2.8636976993,-2.3451147218,5.8518828267\N,0,-5.915
 0016177,1.3498729746,2.3080137207\H,0,-5.2888344965,0.6838245692,2.754
 5179971\C,0,-5.2845259217,2.4870229418,1.6416325835\H,0,-6.0461166081,
 3.2609627337,1.5147292202\C,0,-4.8509678289,2.0477840097,0.2184693472\
 C,0,-4.138595664,3.039219478,2.5406108848\H,0,-3.5394981048,2.19810711
 85,2.9036869902\H,0,-4.6080479902,3.5485973897,3.3908482368\O,0,-4.970
 9837764,0.8864159022,-0.182168565\O,0,-3.3164457032,3.9547119535,1.844
 6576998\N,0,-4.41530315,3.0736536556,-0.5516974488\H,0,-4.0673558597,3
 .8803960558,-0.0300048299\C,0,-4.0165984321,2.903816601,-1.9473206173\
 H,0,-4.589032805,2.0651863457,-2.3526802449\C,0,-2.5171764526,2.568100
 1413,-2.0123598677\C,0,-4.3329653033,4.1798727908,-2.7444956867\H,0,-3
 .8801389131,5.0462885999,-2.2381412232\H,0,-5.4164720999,4.326348334,-
 2.7567896077\O,0,-1.6902362006,3.4215320687,-2.3865876285\O,0,-3.90743
 16551,4.071136188,-4.0842830986\H,0,-2.935890428,4.0772466361,-4.05318
 06875\N,0,-2.173626325,1.3482633006,-1.5668699878\H,0,-2.9184538037,0.
 7348668907,-1.2465852189\C,0,-0.7942228102,1.0339100595,-1.2411786858\
 H,0,-0.3070308566,1.9979689375,-1.1053372431\C,0,-0.0519525998,0.39792
 3644,-2.430324192\C,0,-0.71286828,0.3445356146,0.1238328812\H,0,-1.221
 766721,-0.6237739322,0.1261643894\H,0,0.3351392605,0.158911688,0.39074
 04435\O,0,-0.600184101,0.0721820754,-3.4706819131\C,0,-1.3625132787,1.
 2666232268,1.1870112257\O,0,-2.1244057702,0.7421973096,2.0152893777\O,
 0,-1.100032093,2.5211224641,1.0927629494\N,0,1.3076285665,0.3739591921
 ,-2.2491315149\H,0,1.673776039,0.7033191915,-1.3655965098\C,0,2.235179
 1025,0.353654841,-3.3645879634\H,0,1.6513733671,0.0266727887,-4.233271
 197\C,0,3.3704721579,-0.6591410118,-3.2044969978\C,0,2.8132929805,1.76
 49672531,-3.6211596449\H,0,3.6344392303,1.6716324191,-4.3366732738\H,0
 ,3.2651427639,2.1136137398,-2.6807525989\O,0,4.3484775767,-0.676036295
 2,-3.9169996683\C,0,1.767780381,2.7921364698,-4.1249870271\H,0,0.75414
 00579,2.3776517765,-4.0942679982\H,0,1.9614723258,3.0175881607,-5.1795
 719284\C,0,1.7713805579,4.1327616357,-3.368905105\H,0,2.8033204793,4.4
 433541278,-3.1803824379\H,0,1.2937845259,4.9073037828,-3.9814814798\N,
 0,1.0568185228,4.0430734173,-2.0848543882\H,0,0.0789865651,3.718060789
 4,-2.1434032349\N,0,2.5274189499,5.3857773775,-0.8660640997\H,0,2.8632
 624608,5.7123060015,0.0280851232\H,0,2.8162044091,5.914642315,-1.67500
 45196\N,0,0.7753288026,4.311799075,0.2043702253\H,0,0.0669628145,3.554
 8467617,0.3350855331\H,0,0.9493415862,4.8773720463,1.023338998\C,0,1.4
 342340572,4.5852621405,-0.9236586367\O,0,3.1703634344,-1.5343807132,-2
 .1971667811\H,0,-2.4599496867,3.4842407485,1.6521943143\H,0,3.93471089
 59,-2.1426283599,-2.2138099044\\Version=ES64L-G16RevC.01\HF=-2166.2825
 39\RMSD=8.510e-09\Dipole=-2.4841826,0.1830512,2.8743314\Quadrupole=96.
 9869553,-26.8465002,-70.1404551,53.342029,-50.009819,-18.9706992\PG=C0
 1 [X(C25H39N8O10)]\\@
 The archive entry for this job was punched.


 SACRED COWS MAKE GREAT HAMBURGERS -- ROBERT REISNER
 Job cpu time:       0 days  0 hours  2 minutes 31.5 seconds.
 Elapsed time:       0 days  0 hours  0 minutes 38.6 seconds.
 File lengths (MBytes):  RWF=    384 Int=      0 D2E=      0 Chk=     56 Scr=     16
 Normal termination of Gaussian 16 at Thu May 26 21:39:35 2022.
