 Entering Gaussian System, Link 0=/opt/software/Gaussian/g16-AVX2-C.01/g16/g16
 Input=charge-conf-879.com
 Output=charge-conf-879.log
 Initial command:
 /opt/software/Gaussian/g16-AVX2-C.01/g16/l1.exe "/mnt/gs18/scratch/users/kengmith/Gau-25494.inp" -scrdir="/mnt/gs18/scratch/users/kengmith/"
 Entering Link 1 = /opt/software/Gaussian/g16-AVX2-C.01/g16/l1.exe PID=     25518.
  
 Copyright (c) 1988-2019, Gaussian, Inc.  All Rights Reserved.
  
 This is part of the Gaussian(R) 16 program.  It is based on
 the Gaussian(R) 09 system (copyright 2009, Gaussian, Inc.),
 the Gaussian(R) 03 system (copyright 2003, Gaussian, Inc.),
 the Gaussian(R) 98 system (copyright 1998, Gaussian, Inc.),
 the Gaussian(R) 94 system (copyright 1995, Gaussian, Inc.),
 the Gaussian 92(TM) system (copyright 1992, Gaussian, Inc.),
 the Gaussian 90(TM) system (copyright 1990, Gaussian, Inc.),
 the Gaussian 88(TM) system (copyright 1988, Gaussian, Inc.),
 the Gaussian 86(TM) system (copyright 1986, Carnegie Mellon
 University), and the Gaussian 82(TM) system (copyright 1983,
 Carnegie Mellon University). Gaussian is a federally registered
 trademark of Gaussian, Inc.
  
 This software contains proprietary and confidential information,
 including trade secrets, belonging to Gaussian, Inc.
  
 This software is provided under written license and may be
 used, copied, transmitted, or stored only in accord with that
 written license.
  
 The following legend is applicable only to US Government
 contracts under FAR:
  
                    RESTRICTED RIGHTS LEGEND
  
 Use, reproduction and disclosure by the US Government is
 subject to restrictions as set forth in subparagraphs (a)
 and (c) of the Commercial Computer Software - Restricted
 Rights clause in FAR 52.227-19.
  
 Gaussian, Inc.
 340 Quinnipiac St., Bldg. 40, Wallingford CT 06492
  
  
 ---------------------------------------------------------------
 Warning -- This program may not be used in any manner that
 competes with the business of Gaussian, Inc. or will provide
 assistance to any competitor of Gaussian, Inc.  The licensee
 of this program is prohibited from giving any competitor of
 Gaussian, Inc. access to this program.  By using this program,
 the user acknowledges that Gaussian, Inc. is engaged in the
 business of creating and licensing software in the field of
 computational chemistry and represents and warrants to the
 licensee that it is not a competitor of Gaussian, Inc. and that
 it will not use this program in any manner prohibited above.
 ---------------------------------------------------------------
  

 Cite this work as:
 Gaussian 16, Revision C.01,
 M. J. Frisch, G. W. Trucks, H. B. Schlegel, G. E. Scuseria, 
 M. A. Robb, J. R. Cheeseman, G. Scalmani, V. Barone, 
 G. A. Petersson, H. Nakatsuji, X. Li, M. Caricato, A. V. Marenich, 
 J. Bloino, B. G. Janesko, R. Gomperts, B. Mennucci, H. P. Hratchian, 
 J. V. Ortiz, A. F. Izmaylov, J. L. Sonnenberg, D. Williams-Young, 
 F. Ding, F. Lipparini, F. Egidi, J. Goings, B. Peng, A. Petrone, 
 T. Henderson, D. Ranasinghe, V. G. Zakrzewski, J. Gao, N. Rega, 
 G. Zheng, W. Liang, M. Hada, M. Ehara, K. Toyota, R. Fukuda, 
 J. Hasegawa, M. Ishida, T. Nakajima, Y. Honda, O. Kitao, H. Nakai, 
 T. Vreven, K. Throssell, J. A. Montgomery, Jr., J. E. Peralta, 
 F. Ogliaro, M. J. Bearpark, J. J. Heyd, E. N. Brothers, K. N. Kudin, 
 V. N. Staroverov, T. A. Keith, R. Kobayashi, J. Normand, 
 K. Raghavachari, A. P. Rendell, J. C. Burant, S. S. Iyengar, 
 J. Tomasi, M. Cossi, J. M. Millam, M. Klene, C. Adamo, R. Cammi, 
 J. W. Ochterski, R. L. Martin, K. Morokuma, O. Farkas, 
 J. B. Foresman, and D. J. Fox, Gaussian, Inc., Wallingford CT, 2019.
 
 ******************************************
 Gaussian 16:  ES64L-G16RevC.01  3-Jul-2019
                27-May-2022 
 ******************************************
 %mem=8gb
 %nproc=4
 Will use up to    4 processors via shared memory.
 %chk=conf-879.chk
 -------------------------------------------------------------------
 # B3LYP/6-31G* guess=read geom=check nosymm integral(ultrafinegrid)
 -------------------------------------------------------------------
 1/29=2,38=1,172=1/1;
 2/12=2,15=1,40=1/2;
 3/5=1,6=6,7=1,11=2,14=-4,25=1,30=1,74=-5,75=-5,116=-2/1,2,3;
 4/5=1/1;
 5/5=2,38=6/2;
 6/7=2,8=2,9=2,10=2,28=1/1;
 99/5=1,9=1/99;
 ------------------------------------------------------
 Candidate Structure: Conf:879 Charge calc in gas phase
 ------------------------------------------------------
 Structure from the checkpoint file:  "conf-879.chk"
 Charge =  1 Multiplicity = 1
 Redundant internal coordinates found in file.  (old form).
 N,0,-3.964912353,2.0352859255,3.6676035483
 H,0,-3.1766105039,1.5633950153,4.1026068665
 H,0,-3.6368543155,2.9029970673,3.2527627648
 C,0,-4.6670647028,1.1904914995,2.7137670391
 H,0,-5.5463601314,1.7300726918,2.3426528192
 H,0,-5.0622061861,0.3127498299,3.2372746994
 C,0,-3.9337216696,0.649895285,1.4727418957
 O,0,-4.4921005536,-0.1243430137,0.700867384
 N,0,-2.659841003,1.1067937818,1.2870127755
 H,0,-2.1986276688,1.583234477,2.0538588164
 C,0,-1.7665486456,0.5305160181,0.3003648813
 H,0,-2.2260202593,-0.3985697745,-0.0516882737
 C,0,-0.4325239335,0.2333337726,1.0012184419
 C,0,-1.5021916547,1.4762388589,-0.8992180203
 H,0,-1.0466568317,2.3938183317,-0.5015595573
 H,0,-0.7477129967,1.0092181604,-1.5509451385
 O,0,-0.0756574113,0.8584014825,1.9972546394
 C,0,-2.7370823483,1.8423140315,-1.7444020138
 H,0,-3.4902679658,2.2662843821,-1.0670582335
 C,0,-2.3592420463,2.9261690625,-2.766197265
 H,0,-1.6052379136,2.5533813966,-3.4738638891
 H,0,-3.2334296486,3.2368804215,-3.3494990191
 H,0,-1.947648805,3.8177691694,-2.2773217202
 C,0,-3.3591049226,0.6221491922,-2.439264806
 H,0,-2.6202212897,0.1077495634,-3.0704129353
 H,0,-3.7619258387,-0.0882676415,-1.7120393839
 H,0,-4.1874106591,0.9309156249,-3.0876305321
 N,0,0.3232649519,-0.7424203593,0.4211184899
 H,0,0.0485978325,-1.1008476182,-0.4863555642
 C,0,1.7198740191,-0.947700004,0.7646945288
 H,0,2.0230361943,-0.0948885328,1.3823233779
 C,0,2.5189744075,-0.945710556,-0.5447803637
 C,0,1.9724974308,-2.2517214853,1.5832251156
 H,0,3.0590281094,-2.3022720588,1.7510326671
 O,0,1.9911579903,-1.1497921254,-1.639795951
 C,0,1.2866793668,-2.1698960386,2.9534889583
 H,0,0.1978323347,-2.1319936989,2.8442428688
 H,0,1.5335631464,-3.0529701546,3.5528367279
 H,0,1.5963859184,-1.279044136,3.5095246781
 C,0,1.5459180965,-3.5133991657,0.8196501276
 H,0,0.4651061275,-3.5115605788,0.6381453894
 H,0,1.7797404048,-4.4078296347,1.4064811709
 H,0,2.0497493768,-3.6065931318,-0.1491250092
 N,0,3.8559486021,-0.7179857127,-0.4291092574
 H,0,4.3033362158,-0.6252931001,0.4758901157
 C,0,4.7329189774,-0.8456289385,-1.5771851512
 H,0,4.4747812083,-1.7644286815,-2.1208136033
 C,0,6.1542255212,-0.9871911488,-1.047069294
 C,0,4.5675112152,0.3502545821,-2.5558958647
 H,0,3.4986974285,0.5808595505,-2.5558999617
 H,0,5.0962567075,1.2282359164,-2.163760488
 O,0,6.4646189682,-0.8943192444,0.1182538962
 C,0,5.0037758967,0.0454402341,-3.9951713929
 H,0,4.5081264983,-0.8770725599,-4.326365558
 H,0,6.0829854564,-0.1350144946,-4.0418174474
 C,0,4.6181518019,1.1903104367,-4.9499375507
 H,0,3.5362675573,1.3701571017,-4.8794480606
 H,0,5.1246831443,2.1165719755,-4.6444048977
 C,0,4.9872725544,0.8503541076,-6.3879219973
 H,0,6.0644179171,0.7364051856,-6.5318715242
 H,0,4.4836434965,-0.0511249427,-6.7453553889
 N,0,4.5543190848,1.9721723626,-7.3394071847
 H,0,4.7905236421,1.7646101626,-8.31781856
 H,0,3.5389308226,2.1238829372,-7.2893932568
 H,0,5.0053382153,2.8616813875,-7.0914644276
 O,0,7.0437096026,-1.2211425553,-2.0363040819
 H,0,7.9195150658,-1.3068249144,-1.6109649087
 Recover connectivity data from disk.
                           ----------------------------
                           !    Current Parameters    !
                           ! (Angstroms and Degrees)  !
 --------------------------                            --------------------------
 ! Name  Definition              Value                                          !
 --------------------------------------------------------------------------------
 ! R1    R(1,2)                  1.0165                                         !
 ! R2    R(1,3)                  1.0162                                         !
 ! R3    R(1,4)                  1.4548                                         !
 ! R4    R(4,5)                  1.0964                                         !
 ! R5    R(4,6)                  1.0957                                         !
 ! R6    R(4,7)                  1.5395                                         !
 ! R7    R(7,8)                  1.2276                                         !
 ! R8    R(7,9)                  1.366                                          !
 ! R9    R(9,10)                 1.0138                                         !
 ! R10   R(9,11)                 1.4504                                         !
 ! R11   R(11,12)                1.0946                                         !
 ! R12   R(11,13)                1.5359                                         !
 ! R13   R(11,14)                1.5503                                         !
 ! R14   R(13,17)                1.2289                                         !
 ! R15   R(13,28)                1.3638                                         !
 ! R16   R(14,15)                1.0989                                         !
 ! R17   R(14,16)                1.101                                          !
 ! R18   R(14,18)                1.5406                                         !
 ! R19   R(18,19)                1.0981                                         !
 ! R20   R(18,20)                1.5367                                         !
 ! R21   R(18,24)                1.5358                                         !
 ! R22   R(20,21)                1.0992                                         !
 ! R23   R(20,22)                1.0959                                         !
 ! R24   R(20,23)                1.097                                          !
 ! R25   R(24,25)                1.0995                                         !
 ! R26   R(24,26)                1.0935                                         !
 ! R27   R(24,27)                1.0963                                         !
 ! R28   R(28,29)                1.0136                                         !
 ! R29   R(28,30)                1.4528                                         !
 ! R30   R(30,31)                1.0957                                         !
 ! R31   R(30,32)                1.534                                          !
 ! R32   R(30,33)                1.5602                                         !
 ! R33   R(32,35)                1.2326                                         !
 ! R34   R(32,44)                1.3612                                         !
 ! R35   R(33,34)                1.1006                                         !
 ! R36   R(33,36)                1.5345                                         !
 ! R37   R(33,40)                1.5352                                         !
 ! R38   R(36,37)                1.095                                          !
 ! R39   R(36,38)                1.0954                                         !
 ! R40   R(36,39)                1.0949                                         !
 ! R41   R(40,41)                1.0959                                         !
 ! R42   R(40,42)                1.095                                          !
 ! R43   R(40,43)                1.0959                                         !
 ! R44   R(44,45)                1.0138                                         !
 ! R45   R(44,46)                1.4503                                         !
 ! R46   R(46,47)                1.0983                                         !
 ! R47   R(46,48)                1.5235                                         !
 ! R48   R(46,49)                1.5541                                         !
 ! R49   R(48,52)                1.2095                                         !
 ! R50   R(48,66)                1.3507                                         !
 ! R51   R(49,50)                1.0934                                         !
 ! R52   R(49,51)                1.0974                                         !
 ! R53   R(49,53)                1.5345                                         !
 ! R54   R(53,54)                1.0984                                         !
 ! R55   R(53,55)                1.0952                                         !
 ! R56   R(53,56)                1.5398                                         !
 ! R57   R(56,57)                1.099                                          !
 ! R58   R(56,58)                1.099                                          !
 ! R59   R(56,59)                1.523                                          !
 ! R60   R(59,60)                1.0927                                         !
 ! R61   R(59,61)                1.0927                                         !
 ! R62   R(59,62)                1.5334                                         !
 ! R63   R(62,63)                1.0277                                         !
 ! R64   R(62,64)                1.0279                                         !
 ! R65   R(62,65)                1.0277                                         !
 ! R66   R(66,67)                0.9774                                         !
 ! A1    A(2,1,3)              108.7074                                         !
 ! A2    A(2,1,4)              112.6612                                         !
 ! A3    A(3,1,4)              112.5817                                         !
 ! A4    A(1,4,5)              108.8579                                         !
 ! A5    A(1,4,6)              109.0241                                         !
 ! A6    A(1,4,7)              120.1666                                         !
 ! A7    A(5,4,6)              105.4706                                         !
 ! A8    A(5,4,7)              106.3785                                         !
 ! A9    A(6,4,7)              105.9992                                         !
 ! A10   A(4,7,8)              120.7734                                         !
 ! A11   A(4,7,9)              115.8719                                         !
 ! A12   A(8,7,9)              123.3416                                         !
 ! A13   A(7,9,10)             118.5938                                         !
 ! A14   A(7,9,11)             122.2734                                         !
 ! A15   A(10,9,11)            114.9042                                         !
 ! A16   A(9,11,12)            107.3075                                         !
 ! A17   A(9,11,13)            107.5422                                         !
 ! A18   A(9,11,14)            112.8945                                         !
 ! A19   A(12,11,13)           110.3096                                         !
 ! A20   A(12,11,14)           109.9068                                         !
 ! A21   A(13,11,14)           108.8452                                         !
 ! A22   A(11,13,17)           121.5773                                         !
 ! A23   A(11,13,28)           115.1937                                         !
 ! A24   A(17,13,28)           123.2138                                         !
 ! A25   A(11,14,15)           107.4612                                         !
 ! A26   A(11,14,16)           108.4299                                         !
 ! A27   A(11,14,18)           115.6451                                         !
 ! A28   A(15,14,16)           106.5192                                         !
 ! A29   A(15,14,18)           109.4145                                         !
 ! A30   A(16,14,18)           108.9874                                         !
 ! A31   A(14,18,19)           107.6466                                         !
 ! A32   A(14,18,20)           109.5904                                         !
 ! A33   A(14,18,24)           112.5878                                         !
 ! A34   A(19,18,20)           107.8466                                         !
 ! A35   A(19,18,24)           107.9408                                         !
 ! A36   A(20,18,24)           111.045                                          !
 ! A37   A(18,20,21)           110.9482                                         !
 ! A38   A(18,20,22)           110.9617                                         !
 ! A39   A(18,20,23)           111.665                                          !
 ! A40   A(21,20,22)           107.4974                                         !
 ! A41   A(21,20,23)           107.7692                                         !
 ! A42   A(22,20,23)           107.8222                                         !
 ! A43   A(18,24,25)           111.0539                                         !
 ! A44   A(18,24,26)           111.3741                                         !
 ! A45   A(18,24,27)           110.478                                          !
 ! A46   A(25,24,26)           108.987                                          !
 ! A47   A(25,24,27)           107.4592                                         !
 ! A48   A(26,24,27)           107.3354                                         !
 ! A49   A(13,28,29)           118.9245                                         !
 ! A50   A(13,28,30)           122.2256                                         !
 ! A51   A(29,28,30)           114.9768                                         !
 ! A52   A(28,30,31)           106.8157                                         !
 ! A53   A(28,30,32)           107.3797                                         !
 ! A54   A(28,30,33)           113.4415                                         !
 ! A55   A(31,30,32)           109.6343                                         !
 ! A56   A(31,30,33)           108.0583                                         !
 ! A57   A(32,30,33)           111.3809                                         !
 ! A58   A(30,32,35)           122.3475                                         !
 ! A59   A(30,32,44)           116.0614                                         !
 ! A60   A(35,32,44)           121.5877                                         !
 ! A61   A(30,33,34)           106.1546                                         !
 ! A62   A(30,33,36)           110.5818                                         !
 ! A63   A(30,33,40)           112.3928                                         !
 ! A64   A(34,33,36)           107.9102                                         !
 ! A65   A(34,33,40)           108.2044                                         !
 ! A66   A(36,33,40)           111.3326                                         !
 ! A67   A(33,36,37)           110.9276                                         !
 ! A68   A(33,36,38)           110.1732                                         !
 ! A69   A(33,36,39)           111.7446                                         !
 ! A70   A(37,36,38)           107.8548                                         !
 ! A71   A(37,36,39)           107.6858                                         !
 ! A72   A(38,36,39)           108.3192                                         !
 ! A73   A(33,40,41)           110.7948                                         !
 ! A74   A(33,40,42)           110.2066                                         !
 ! A75   A(33,40,43)           112.446                                          !
 ! A76   A(41,40,42)           107.5003                                         !
 ! A77   A(41,40,43)           107.886                                          !
 ! A78   A(42,40,43)           107.8248                                         !
 ! A79   A(32,44,45)           121.6427                                         !
 ! A80   A(32,44,46)           120.7928                                         !
 ! A81   A(45,44,46)           116.6062                                         !
 ! A82   A(44,46,47)           108.8635                                         !
 ! A83   A(44,46,48)           107.2677                                         !
 ! A84   A(44,46,49)           111.4953                                         !
 ! A85   A(47,46,48)           108.2851                                         !
 ! A86   A(47,46,49)           107.8778                                         !
 ! A87   A(48,46,49)           112.9485                                         !
 ! A88   A(46,48,52)           124.5764                                         !
 ! A89   A(46,48,66)           112.0611                                         !
 ! A90   A(52,48,66)           123.3608                                         !
 ! A91   A(46,49,50)           105.4457                                         !
 ! A92   A(46,49,51)           109.8363                                         !
 ! A93   A(46,49,53)           114.0509                                         !
 ! A94   A(50,49,51)           107.5932                                         !
 ! A95   A(50,49,53)           108.6506                                         !
 ! A96   A(51,49,53)           110.9227                                         !
 ! A97   A(49,53,54)           108.7453                                         !
 ! A98   A(49,53,55)           110.6606                                         !
 ! A99   A(49,53,56)           111.2649                                         !
 ! A100  A(54,53,55)           107.0644                                         !
 ! A101  A(54,53,56)           108.9352                                         !
 ! A102  A(55,53,56)           110.0526                                         !
 ! A103  A(53,56,57)           109.1742                                         !
 ! A104  A(53,56,58)           109.8057                                         !
 ! A105  A(53,56,59)           111.025                                          !
 ! A106  A(57,56,58)           107.3351                                         !
 ! A107  A(57,56,59)           109.6134                                         !
 ! A108  A(58,56,59)           109.8097                                         !
 ! A109  A(56,59,60)           112.7416                                         !
 ! A110  A(56,59,61)           112.4129                                         !
 ! A111  A(56,59,62)           110.7404                                         !
 ! A112  A(60,59,61)           108.9785                                         !
 ! A113  A(60,59,62)           105.8361                                         !
 ! A114  A(61,59,62)           105.6909                                         !
 ! A115  A(59,62,63)           112.2161                                         !
 ! A116  A(59,62,64)           110.8983                                         !
 ! A117  A(59,62,65)           111.0764                                         !
 ! A118  A(63,62,64)           107.6487                                         !
 ! A119  A(63,62,65)           107.6763                                         !
 ! A120  A(64,62,65)           107.1005                                         !
 ! A121  A(48,66,67)           106.6514                                         !
 ! D1    D(2,1,4,5)            175.6299                                         !
 ! D2    D(2,1,4,6)             61.0522                                         !
 ! D3    D(2,1,4,7)            -61.47                                           !
 ! D4    D(3,1,4,5)            -60.9987                                         !
 ! D5    D(3,1,4,6)           -175.5764                                         !
 ! D6    D(3,1,4,7)             61.9014                                         !
 ! D7    D(1,4,7,8)            175.8569                                         !
 ! D8    D(1,4,7,9)             -5.4151                                         !
 ! D9    D(5,4,7,8)            -60.0531                                         !
 ! D10   D(5,4,7,9)            118.6749                                         !
 ! D11   D(6,4,7,8)             51.8787                                         !
 ! D12   D(6,4,7,9)           -129.3933                                         !
 ! D13   D(4,7,9,10)            13.8966                                         !
 ! D14   D(4,7,9,11)           169.6044                                         !
 ! D15   D(8,7,9,10)          -167.4116                                         !
 ! D16   D(8,7,9,11)           -11.7039                                         !
 ! D17   D(7,9,11,12)          -11.7048                                         !
 ! D18   D(7,9,11,13)         -130.3763                                         !
 ! D19   D(7,9,11,14)          109.5423                                         !
 ! D20   D(10,9,11,12)         144.8266                                         !
 ! D21   D(10,9,11,13)          26.155                                          !
 ! D22   D(10,9,11,14)         -93.9264                                         !
 ! D23   D(9,11,13,17)         -25.6192                                         !
 ! D24   D(9,11,13,28)         155.7548                                         !
 ! D25   D(12,11,13,17)       -142.3427                                         !
 ! D26   D(12,11,13,28)         39.0313                                         !
 ! D27   D(14,11,13,17)         96.9971                                         !
 ! D28   D(14,11,13,28)        -81.6289                                         !
 ! D29   D(9,11,14,15)          60.0021                                         !
 ! D30   D(9,11,14,16)         174.7739                                         !
 ! D31   D(9,11,14,18)         -62.5147                                         !
 ! D32   D(12,11,14,15)        179.7636                                         !
 ! D33   D(12,11,14,16)        -65.4646                                         !
 ! D34   D(12,11,14,18)         57.2468                                         !
 ! D35   D(13,11,14,15)        -59.3286                                         !
 ! D36   D(13,11,14,16)         55.4432                                         !
 ! D37   D(13,11,14,18)        178.1546                                         !
 ! D38   D(11,13,28,29)          9.4123                                         !
 ! D39   D(11,13,28,30)        166.1356                                         !
 ! D40   D(17,13,28,29)       -169.1886                                         !
 ! D41   D(17,13,28,30)        -12.4652                                         !
 ! D42   D(11,14,18,19)         55.2286                                         !
 ! D43   D(11,14,18,20)        172.2665                                         !
 ! D44   D(11,14,18,24)        -63.6162                                         !
 ! D45   D(15,14,18,19)        -66.2458                                         !
 ! D46   D(15,14,18,20)         50.7921                                         !
 ! D47   D(15,14,18,24)        174.9094                                         !
 ! D48   D(16,14,18,19)        177.6444                                         !
 ! D49   D(16,14,18,20)        -65.3178                                         !
 ! D50   D(16,14,18,24)         58.7996                                         !
 ! D51   D(14,18,20,21)         63.1701                                         !
 ! D52   D(14,18,20,22)       -177.3961                                         !
 ! D53   D(14,18,20,23)        -57.0747                                         !
 ! D54   D(19,18,20,21)       -179.9178                                         !
 ! D55   D(19,18,20,22)        -60.484                                          !
 ! D56   D(19,18,20,23)         59.8373                                         !
 ! D57   D(24,18,20,21)        -61.8437                                         !
 ! D58   D(24,18,20,22)         57.5901                                         !
 ! D59   D(24,18,20,23)        177.9115                                         !
 ! D60   D(14,18,24,25)        -56.7124                                         !
 ! D61   D(14,18,24,26)         64.9582                                         !
 ! D62   D(14,18,24,27)       -175.8514                                         !
 ! D63   D(19,18,24,25)       -175.3851                                         !
 ! D64   D(19,18,24,26)        -53.7146                                         !
 ! D65   D(19,18,24,27)         65.4759                                         !
 ! D66   D(20,18,24,25)         66.5978                                         !
 ! D67   D(20,18,24,26)       -171.7316                                         !
 ! D68   D(20,18,24,27)        -52.5412                                         !
 ! D69   D(13,28,30,31)         -9.9663                                         !
 ! D70   D(13,28,30,32)       -127.509                                          !
 ! D71   D(13,28,30,33)        108.9809                                         !
 ! D72   D(29,28,30,31)        147.6033                                         !
 ! D73   D(29,28,30,32)         30.0606                                         !
 ! D74   D(29,28,30,33)        -93.4495                                         !
 ! D75   D(28,30,32,35)        -19.888                                          !
 ! D76   D(28,30,32,44)        160.7658                                         !
 ! D77   D(31,30,32,35)       -135.5785                                         !
 ! D78   D(31,30,32,44)         45.0752                                         !
 ! D79   D(33,30,32,35)        104.8756                                         !
 ! D80   D(33,30,32,44)        -74.4706                                         !
 ! D81   D(28,30,33,34)        178.4173                                         !
 ! D82   D(28,30,33,36)        -64.7895                                         !
 ! D83   D(28,30,33,40)         60.3098                                         !
 ! D84   D(31,30,33,34)        -63.3516                                         !
 ! D85   D(31,30,33,36)         53.4416                                         !
 ! D86   D(31,30,33,40)        178.5409                                         !
 ! D87   D(32,30,33,34)         57.1256                                         !
 ! D88   D(32,30,33,36)        173.9188                                         !
 ! D89   D(32,30,33,40)        -60.9819                                         !
 ! D90   D(30,32,44,45)          4.4264                                         !
 ! D91   D(30,32,44,46)        172.844                                          !
 ! D92   D(35,32,44,45)       -174.9252                                         !
 ! D93   D(35,32,44,46)         -6.5076                                         !
 ! D94   D(30,33,36,37)         65.1223                                         !
 ! D95   D(30,33,36,38)       -175.5231                                         !
 ! D96   D(30,33,36,39)        -55.0562                                         !
 ! D97   D(34,33,36,37)       -179.1753                                         !
 ! D98   D(34,33,36,38)        -59.8208                                         !
 ! D99   D(34,33,36,39)         60.6461                                         !
 ! D100  D(40,33,36,37)        -60.5757                                         !
 ! D101  D(40,33,36,38)         58.7789                                         !
 ! D102  D(40,33,36,39)        179.2458                                         !
 ! D103  D(30,33,40,41)        -63.6823                                         !
 ! D104  D(30,33,40,42)        177.4666                                         !
 ! D105  D(30,33,40,43)         57.1373                                         !
 ! D106  D(34,33,40,41)        179.4278                                         !
 ! D107  D(34,33,40,42)         60.5767                                         !
 ! D108  D(34,33,40,43)        -59.7526                                         !
 ! D109  D(36,33,40,41)         61.0047                                         !
 ! D110  D(36,33,40,42)        -57.8463                                         !
 ! D111  D(36,33,40,43)       -178.1757                                         !
 ! D112  D(32,44,46,47)        -44.6418                                         !
 ! D113  D(32,44,46,48)       -161.6042                                         !
 ! D114  D(32,44,46,49)         74.2538                                         !
 ! D115  D(45,44,46,47)        124.3371                                         !
 ! D116  D(45,44,46,48)          7.3746                                         !
 ! D117  D(45,44,46,49)       -116.7674                                         !
 ! D118  D(44,46,48,52)         -5.4458                                         !
 ! D119  D(44,46,48,66)        175.0241                                         !
 ! D120  D(47,46,48,52)       -122.7872                                         !
 ! D121  D(47,46,48,66)         57.6827                                         !
 ! D122  D(49,46,48,52)        117.8058                                         !
 ! D123  D(49,46,48,66)        -61.7242                                         !
 ! D124  D(44,46,49,50)        -37.9486                                         !
 ! D125  D(44,46,49,51)         77.7117                                         !
 ! D126  D(44,46,49,53)       -157.0682                                         !
 ! D127  D(47,46,49,50)         81.5329                                         !
 ! D128  D(47,46,49,51)       -162.8067                                         !
 ! D129  D(47,46,49,53)        -37.5866                                         !
 ! D130  D(48,46,49,50)       -158.8253                                         !
 ! D131  D(48,46,49,51)        -43.165                                          !
 ! D132  D(48,46,49,53)         82.0551                                         !
 ! D133  D(46,48,66,67)       -179.4392                                         !
 ! D134  D(52,48,66,67)          1.0241                                         !
 ! D135  D(46,49,53,54)         51.4132                                         !
 ! D136  D(46,49,53,55)        -65.9191                                         !
 ! D137  D(46,49,53,56)        171.3989                                         !
 ! D138  D(50,49,53,54)        -65.8734                                         !
 ! D139  D(50,49,53,55)        176.7942                                         !
 ! D140  D(50,49,53,56)         54.1123                                         !
 ! D141  D(51,49,53,54)        176.0555                                         !
 ! D142  D(51,49,53,55)         58.7231                                         !
 ! D143  D(51,49,53,56)        -63.9589                                         !
 ! D144  D(49,53,56,57)        -56.0433                                         !
 ! D145  D(49,53,56,58)         61.3776                                         !
 ! D146  D(49,53,56,59)       -177.0001                                         !
 ! D147  D(54,53,56,57)         63.8298                                         !
 ! D148  D(54,53,56,58)       -178.7493                                         !
 ! D149  D(54,53,56,59)        -57.1269                                         !
 ! D150  D(55,53,56,57)       -179.0745                                         !
 ! D151  D(55,53,56,58)        -61.6537                                         !
 ! D152  D(55,53,56,59)         59.9687                                         !
 ! D153  D(53,56,59,60)        -63.7001                                         !
 ! D154  D(53,56,59,61)         59.9636                                         !
 ! D155  D(53,56,59,62)        177.9328                                         !
 ! D156  D(57,56,59,60)        175.6023                                         !
 ! D157  D(57,56,59,61)        -60.734                                          !
 ! D158  D(57,56,59,62)         57.2352                                         !
 ! D159  D(58,56,59,60)         57.9199                                         !
 ! D160  D(58,56,59,61)       -178.4164                                         !
 ! D161  D(58,56,59,62)        -60.4472                                         !
 ! D162  D(56,59,62,63)       -179.8394                                         !
 ! D163  D(56,59,62,64)        -59.4085                                         !
 ! D164  D(56,59,62,65)         59.5696                                         !
 ! D165  D(60,59,62,63)         57.6753                                         !
 ! D166  D(60,59,62,64)        178.1062                                         !
 ! D167  D(60,59,62,65)        -62.9156                                         !
 ! D168  D(61,59,62,63)        -57.8437                                         !
 ! D169  D(61,59,62,64)         62.5872                                         !
 ! D170  D(61,59,62,65)       -178.4346                                         !
 --------------------------------------------------------------------------------
 Symmetry turned off by external request.
 Stoichiometry    C19H38N5O5(1+)
 Framework group  C1[X(C19H38N5O5)]
 Deg. of freedom   195
 Full point group                 C1      NOp   1
                          Input orientation:                          
 ---------------------------------------------------------------------
 Center     Atomic      Atomic             Coordinates (Angstroms)
 Number     Number       Type             X           Y           Z
 ---------------------------------------------------------------------
      1          7           0       -3.964912    2.035286    3.667604
      2          1           0       -3.176611    1.563395    4.102607
      3          1           0       -3.636854    2.902997    3.252763
      4          6           0       -4.667065    1.190491    2.713767
      5          1           0       -5.546360    1.730073    2.342653
      6          1           0       -5.062206    0.312750    3.237275
      7          6           0       -3.933722    0.649895    1.472742
      8          8           0       -4.492101   -0.124343    0.700867
      9          7           0       -2.659841    1.106794    1.287013
     10          1           0       -2.198628    1.583234    2.053859
     11          6           0       -1.766549    0.530516    0.300365
     12          1           0       -2.226020   -0.398570   -0.051688
     13          6           0       -0.432524    0.233334    1.001218
     14          6           0       -1.502192    1.476239   -0.899218
     15          1           0       -1.046657    2.393818   -0.501560
     16          1           0       -0.747713    1.009218   -1.550945
     17          8           0       -0.075657    0.858401    1.997255
     18          6           0       -2.737082    1.842314   -1.744402
     19          1           0       -3.490268    2.266284   -1.067058
     20          6           0       -2.359242    2.926169   -2.766197
     21          1           0       -1.605238    2.553381   -3.473864
     22          1           0       -3.233430    3.236880   -3.349499
     23          1           0       -1.947649    3.817769   -2.277322
     24          6           0       -3.359105    0.622149   -2.439265
     25          1           0       -2.620221    0.107750   -3.070413
     26          1           0       -3.761926   -0.088268   -1.712039
     27          1           0       -4.187411    0.930916   -3.087631
     28          7           0        0.323265   -0.742420    0.421118
     29          1           0        0.048598   -1.100848   -0.486356
     30          6           0        1.719874   -0.947700    0.764695
     31          1           0        2.023036   -0.094889    1.382323
     32          6           0        2.518974   -0.945711   -0.544780
     33          6           0        1.972497   -2.251721    1.583225
     34          1           0        3.059028   -2.302272    1.751033
     35          8           0        1.991158   -1.149792   -1.639796
     36          6           0        1.286679   -2.169896    2.953489
     37          1           0        0.197832   -2.131994    2.844243
     38          1           0        1.533563   -3.052970    3.552837
     39          1           0        1.596386   -1.279044    3.509525
     40          6           0        1.545918   -3.513399    0.819650
     41          1           0        0.465106   -3.511561    0.638145
     42          1           0        1.779740   -4.407830    1.406481
     43          1           0        2.049749   -3.606593   -0.149125
     44          7           0        3.855949   -0.717986   -0.429109
     45          1           0        4.303336   -0.625293    0.475890
     46          6           0        4.732919   -0.845629   -1.577185
     47          1           0        4.474781   -1.764429   -2.120814
     48          6           0        6.154226   -0.987191   -1.047069
     49          6           0        4.567511    0.350255   -2.555896
     50          1           0        3.498697    0.580860   -2.555900
     51          1           0        5.096257    1.228236   -2.163760
     52          8           0        6.464619   -0.894319    0.118254
     53          6           0        5.003776    0.045440   -3.995171
     54          1           0        4.508126   -0.877073   -4.326366
     55          1           0        6.082985   -0.135014   -4.041817
     56          6           0        4.618152    1.190310   -4.949938
     57          1           0        3.536268    1.370157   -4.879448
     58          1           0        5.124683    2.116572   -4.644405
     59          6           0        4.987273    0.850354   -6.387922
     60          1           0        6.064418    0.736405   -6.531872
     61          1           0        4.483643   -0.051125   -6.745355
     62          7           0        4.554319    1.972172   -7.339407
     63          1           0        4.790524    1.764610   -8.317819
     64          1           0        3.538931    2.123883   -7.289393
     65          1           0        5.005338    2.861681   -7.091464
     66          8           0        7.043710   -1.221143   -2.036304
     67          1           0        7.919515   -1.306825   -1.610965
 ---------------------------------------------------------------------
 Rotational constants (GHZ):           0.1879798           0.0708156           0.0555181
 Standard basis: 6-31G(d) (6D, 7F)
   511 basis functions,   964 primitive gaussians,   511 cartesian basis functions
   113 alpha electrons      113 beta electrons
       nuclear repulsion energy      2944.3795585108 Hartrees.
 NAtoms=   67 NActive=   67 NUniq=   67 SFac= 1.00D+00 NAtFMM=   60 NAOKFM=T Big=T
 Integral buffers will be    131072 words long.
 Raffenetti 2 integral format.
 Two-electron integral symmetry is turned off.
 One-electron integrals computed using PRISM.
 NBasis=   511 RedAO= T EigKep=  1.97D-03  NBF=   511
 NBsUse=   511 1.00D-06 EigRej= -1.00D+00 NBFU=   511
 Initial guess from the checkpoint file:  "conf-879.chk"
 B after Tr=     0.000000    0.000000    0.000000
         Rot=    1.000000    0.000000    0.000000    0.000000 Ang=   0.00 deg.
 Requested convergence on RMS density matrix=1.00D-08 within 128 cycles.
 Requested convergence on MAX density matrix=1.00D-06.
 Requested convergence on             energy=1.00D-06.
 No special actions if energy rises.
 SCF Done:  E(RB3LYP) =  -1396.62003495     A.U. after    3 cycles
            NFock=  3  Conv=0.81D-09     -V/T= 2.0095

 **********************************************************************

            Population analysis using the SCF Density.

 **********************************************************************

 Alpha  occ. eigenvalues --  -19.30888 -19.25168 -19.20966 -19.18295 -19.15175
 Alpha  occ. eigenvalues --  -14.66617 -14.45537 -14.42641 -14.40180 -14.36718
 Alpha  occ. eigenvalues --  -10.43634 -10.43175 -10.37790 -10.36218 -10.35199
 Alpha  occ. eigenvalues --  -10.34935 -10.32619 -10.32402 -10.30920 -10.30583
 Alpha  occ. eigenvalues --  -10.28694 -10.26653 -10.25882 -10.24547 -10.24070
 Alpha  occ. eigenvalues --  -10.23839 -10.23108 -10.22985 -10.21496  -1.21755
 Alpha  occ. eigenvalues --   -1.20456  -1.13173  -1.12628  -1.10154  -1.07039
 Alpha  occ. eigenvalues --   -1.02314  -0.99345  -0.97247  -0.97012  -0.92870
 Alpha  occ. eigenvalues --   -0.90901  -0.87507  -0.86006  -0.85320  -0.81015
 Alpha  occ. eigenvalues --   -0.80556  -0.79038  -0.77820  -0.77266  -0.74553
 Alpha  occ. eigenvalues --   -0.73708  -0.73587  -0.73079  -0.71687  -0.69852
 Alpha  occ. eigenvalues --   -0.68516  -0.67768  -0.65948  -0.64644  -0.63593
 Alpha  occ. eigenvalues --   -0.62900  -0.62539  -0.61506  -0.59913  -0.59558
 Alpha  occ. eigenvalues --   -0.58706  -0.57363  -0.56682  -0.55742  -0.55240
 Alpha  occ. eigenvalues --   -0.55005  -0.54625  -0.53624  -0.52847  -0.52630
 Alpha  occ. eigenvalues --   -0.52074  -0.51867  -0.51404  -0.50962  -0.49926
 Alpha  occ. eigenvalues --   -0.49473  -0.49026  -0.48492  -0.48075  -0.47473
 Alpha  occ. eigenvalues --   -0.46740  -0.46381  -0.45695  -0.45542  -0.45291
 Alpha  occ. eigenvalues --   -0.44956  -0.44508  -0.44150  -0.43869  -0.43149
 Alpha  occ. eigenvalues --   -0.42892  -0.42757  -0.41557  -0.40706  -0.40039
 Alpha  occ. eigenvalues --   -0.39841  -0.39241  -0.38819  -0.38042  -0.37577
 Alpha  occ. eigenvalues --   -0.37238  -0.35348  -0.34721  -0.32681  -0.32227
 Alpha  occ. eigenvalues --   -0.31551  -0.29753  -0.26682
 Alpha virt. eigenvalues --   -0.16892  -0.10242  -0.10172  -0.10083  -0.08135
 Alpha virt. eigenvalues --   -0.06712  -0.04539  -0.04127  -0.03246  -0.02800
 Alpha virt. eigenvalues --   -0.01673  -0.01360   0.00223   0.00615   0.01766
 Alpha virt. eigenvalues --    0.01995   0.02481   0.02978   0.03764   0.03886
 Alpha virt. eigenvalues --    0.04448   0.05698   0.06167   0.06893   0.07609
 Alpha virt. eigenvalues --    0.07777   0.08104   0.08805   0.09220   0.09332
 Alpha virt. eigenvalues --    0.09625   0.09753   0.09873   0.10260   0.10546
 Alpha virt. eigenvalues --    0.10643   0.11287   0.11877   0.12114   0.12608
 Alpha virt. eigenvalues --    0.12930   0.13260   0.13377   0.13809   0.13963
 Alpha virt. eigenvalues --    0.15048   0.15454   0.15641   0.15999   0.16250
 Alpha virt. eigenvalues --    0.16655   0.17513   0.17846   0.18166   0.18706
 Alpha virt. eigenvalues --    0.19482   0.19764   0.20470   0.21087   0.21616
 Alpha virt. eigenvalues --    0.22648   0.23140   0.26172   0.26293   0.29543
 Alpha virt. eigenvalues --    0.29769   0.30279   0.32415   0.33720   0.34514
 Alpha virt. eigenvalues --    0.34793   0.35280   0.36784   0.40246   0.40311
 Alpha virt. eigenvalues --    0.41384   0.42445   0.43056   0.44072   0.44558
 Alpha virt. eigenvalues --    0.45138   0.45310   0.46160   0.46627   0.47244
 Alpha virt. eigenvalues --    0.47723   0.48103   0.48477   0.48879   0.49829
 Alpha virt. eigenvalues --    0.50695   0.51555   0.52028   0.52896   0.53394
 Alpha virt. eigenvalues --    0.53645   0.53843   0.54814   0.55131   0.55940
 Alpha virt. eigenvalues --    0.56847   0.57196   0.58113   0.58401   0.58630
 Alpha virt. eigenvalues --    0.59067   0.60851   0.61184   0.61625   0.61787
 Alpha virt. eigenvalues --    0.62269   0.62804   0.63325   0.63740   0.63875
 Alpha virt. eigenvalues --    0.64424   0.64597   0.65194   0.66043   0.66689
 Alpha virt. eigenvalues --    0.67422   0.67773   0.68372   0.69125   0.69422
 Alpha virt. eigenvalues --    0.69839   0.70417   0.71076   0.71342   0.71674
 Alpha virt. eigenvalues --    0.72476   0.73639   0.73801   0.74700   0.75158
 Alpha virt. eigenvalues --    0.76043   0.76629   0.77055   0.77370   0.77737
 Alpha virt. eigenvalues --    0.78100   0.78602   0.78899   0.79113   0.80072
 Alpha virt. eigenvalues --    0.80459   0.80737   0.81336   0.81595   0.81941
 Alpha virt. eigenvalues --    0.82686   0.82780   0.83290   0.83672   0.83863
 Alpha virt. eigenvalues --    0.84017   0.84657   0.85024   0.85520   0.85881
 Alpha virt. eigenvalues --    0.86858   0.87010   0.87512   0.87826   0.88118
 Alpha virt. eigenvalues --    0.88537   0.88956   0.89658   0.89833   0.90065
 Alpha virt. eigenvalues --    0.91110   0.91391   0.91774   0.92302   0.92525
 Alpha virt. eigenvalues --    0.93577   0.94243   0.94643   0.95151   0.95772
 Alpha virt. eigenvalues --    0.96621   0.96932   0.97848   0.98393   1.00792
 Alpha virt. eigenvalues --    1.01300   1.02523   1.03344   1.03764   1.05605
 Alpha virt. eigenvalues --    1.06823   1.07981   1.09241   1.09804   1.11031
 Alpha virt. eigenvalues --    1.13567   1.15298   1.16336   1.18308   1.19893
 Alpha virt. eigenvalues --    1.19920   1.21441   1.23806   1.24071   1.27244
 Alpha virt. eigenvalues --    1.27625   1.28698   1.29425   1.30114   1.31945
 Alpha virt. eigenvalues --    1.32096   1.32907   1.34417   1.36080   1.37644
 Alpha virt. eigenvalues --    1.38822   1.39422   1.39877   1.41843   1.42483
 Alpha virt. eigenvalues --    1.43319   1.45129   1.45420   1.46661   1.46944
 Alpha virt. eigenvalues --    1.48346   1.49628   1.52601   1.53742   1.54953
 Alpha virt. eigenvalues --    1.56426   1.56969   1.58042   1.58738   1.60686
 Alpha virt. eigenvalues --    1.61394   1.62388   1.63983   1.64146   1.65848
 Alpha virt. eigenvalues --    1.66187   1.66779   1.67258   1.67804   1.68502
 Alpha virt. eigenvalues --    1.68793   1.70099   1.70734   1.71960   1.72153
 Alpha virt. eigenvalues --    1.72624   1.73028   1.73426   1.74653   1.75144
 Alpha virt. eigenvalues --    1.75216   1.75358   1.76608   1.77124   1.78316
 Alpha virt. eigenvalues --    1.78472   1.79948   1.80310   1.81122   1.81364
 Alpha virt. eigenvalues --    1.81701   1.82858   1.84761   1.84921   1.85538
 Alpha virt. eigenvalues --    1.86114   1.86703   1.87925   1.89209   1.90415
 Alpha virt. eigenvalues --    1.90896   1.91465   1.93045   1.93420   1.94370
 Alpha virt. eigenvalues --    1.94729   1.95111   1.96185   1.97304   1.98503
 Alpha virt. eigenvalues --    1.98985   1.99864   2.01086   2.01366   2.02170
 Alpha virt. eigenvalues --    2.02690   2.03927   2.04517   2.04648   2.04934
 Alpha virt. eigenvalues --    2.05290   2.06374   2.07033   2.07619   2.09248
 Alpha virt. eigenvalues --    2.09654   2.12402   2.14674   2.16194   2.16752
 Alpha virt. eigenvalues --    2.17388   2.18007   2.19755   2.20270   2.20759
 Alpha virt. eigenvalues --    2.21120   2.22629   2.23597   2.24245   2.24576
 Alpha virt. eigenvalues --    2.24755   2.25597   2.27058   2.28790   2.29583
 Alpha virt. eigenvalues --    2.30458   2.33935   2.34164   2.35095   2.36154
 Alpha virt. eigenvalues --    2.36817   2.37345   2.38747   2.41555   2.42966
 Alpha virt. eigenvalues --    2.43144   2.44074   2.44317   2.45751   2.45963
 Alpha virt. eigenvalues --    2.46988   2.47999   2.49238   2.50883   2.52451
 Alpha virt. eigenvalues --    2.53545   2.55591   2.57307   2.57962   2.59315
 Alpha virt. eigenvalues --    2.59911   2.62142   2.65932   2.66059   2.66467
 Alpha virt. eigenvalues --    2.67583   2.68698   2.71475   2.72231   2.74292
 Alpha virt. eigenvalues --    2.75131   2.78301   2.80349   2.83280   2.87123
 Alpha virt. eigenvalues --    2.88138   2.90554   2.92217   2.95717   2.98898
 Alpha virt. eigenvalues --    3.01001   3.07077   3.11334   3.13747   3.52465
 Alpha virt. eigenvalues --    3.74282   3.77114   3.91686   3.94661   3.99349
 Alpha virt. eigenvalues --    4.01920   4.03092   4.04978   4.07608   4.09098
 Alpha virt. eigenvalues --    4.13231   4.14155   4.15694   4.19234   4.22072
 Alpha virt. eigenvalues --    4.23944   4.24263   4.27476   4.29741   4.35226
 Alpha virt. eigenvalues --    4.39591   4.40762   4.47720   4.50222   4.51375
 Alpha virt. eigenvalues --    4.53481   4.60075   4.65190
          Condensed to atoms (all electrons):
 Mulliken charges:
               1
     1  N   -0.713743
     2  H    0.311373
     3  H    0.306471
     4  C   -0.235471
     5  H    0.185866
     6  H    0.187123
     7  C    0.573314
     8  O   -0.518611
     9  N   -0.597325
    10  H    0.323928
    11  C   -0.063980
    12  H    0.181936
    13  C    0.609417
    14  C   -0.253193
    15  H    0.136849
    16  H    0.119873
    17  O   -0.534520
    18  C   -0.062591
    19  H    0.146901
    20  C   -0.441870
    21  H    0.115761
    22  H    0.150649
    23  H    0.138176
    24  C   -0.467125
    25  H    0.115356
    26  H    0.194975
    27  H    0.145035
    28  N   -0.599484
    29  H    0.350359
    30  C   -0.069109
    31  H    0.183667
    32  C    0.631127
    33  C   -0.076440
    34  H    0.125237
    35  O   -0.555711
    36  C   -0.445515
    37  H    0.163164
    38  H    0.153542
    39  H    0.159538
    40  C   -0.462178
    41  H    0.159856
    42  H    0.160628
    43  H    0.145411
    44  N   -0.629992
    45  H    0.364674
    46  C   -0.017242
    47  H    0.196209
    48  C    0.581660
    49  C   -0.278279
    50  H    0.191994
    51  H    0.156923
    52  O   -0.443778
    53  C   -0.282448
    54  H    0.168212
    55  H    0.180329
    56  C   -0.294855
    57  H    0.176619
    58  H    0.171968
    59  C   -0.207496
    60  H    0.231863
    61  H    0.234199
    62  N   -0.731910
    63  H    0.434537
    64  H    0.430806
    65  H    0.429338
    66  O   -0.572359
    67  H    0.430363
 Sum of Mulliken charges =   1.00000
 Mulliken charges with hydrogens summed into heavy atoms:
               1
     1  N   -0.095899
     4  C    0.137518
     7  C    0.573314
     8  O   -0.518611
     9  N   -0.273396
    11  C    0.117955
    13  C    0.609417
    14  C    0.003529
    17  O   -0.534520
    18  C    0.084310
    20  C   -0.037284
    24  C   -0.011759
    28  N   -0.249125
    30  C    0.114559
    32  C    0.631127
    33  C    0.048797
    35  O   -0.555711
    36  C    0.030729
    40  C    0.003717
    44  N   -0.265318
    46  C    0.178967
    48  C    0.581660
    49  C    0.070637
    52  O   -0.443778
    53  C    0.066092
    56  C    0.053733
    59  C    0.258566
    62  N    0.562770
    66  O   -0.141997
 Electronic spatial extent (au):  <R**2>=          20459.3133
 Charge=              1.0000 electrons
 Dipole moment (field-independent basis, Debye):
    X=             27.3840    Y=              7.4748    Z=            -31.8815  Tot=             42.6871
 Quadrupole moment (field-independent basis, Debye-Ang):
   XX=            -57.5982   YY=           -150.5032   ZZ=             52.8629
   XY=             25.6459   XZ=           -152.6167   YZ=            -63.5677
 Traceless Quadrupole moment (field-independent basis, Debye-Ang):
   XX=             -5.8521   YY=            -98.7570   ZZ=            104.6091
   XY=             25.6459   XZ=           -152.6167   YZ=            -63.5677
 Octapole moment (field-independent basis, Debye-Ang**2):
  XXX=            313.2743  YYY=              4.5093  ZZZ=          -1339.7745  XYY=            -81.9512
  XXY=            131.5964  XXZ=           -654.9465  XZZ=            907.8197  YZZ=            406.9894
  YYZ=              4.6606  XYZ=           -258.8365
 Hexadecapole moment (field-independent basis, Debye-Ang**3):
 XXXX=         -10473.4357 YYYY=          -2465.1209 ZZZZ=           4415.2089 XXXY=           1494.1740
 XXXZ=           -935.1325 YYYX=           1278.6613 YYYZ=            354.0798 ZZZX=          -4794.6669
 ZZZY=          -2697.4298 XXYY=          -2406.3111 XXZZ=           1055.6029 YYZZ=           -891.2999
 XXYZ=          -1047.6782 YYXZ=            386.5583 ZZXY=           2459.8238
 N-N= 2.944379558511D+03 E-N=-9.120803164661D+03  KE= 1.383506218630D+03
 Unable to Open any file for archive entry.
 1\1\GINC-SKL-147\SP\RB3LYP\6-31G(d)\C19H38N5O5(1+)\KENGMITH\27-May-202
 2\0\\# B3LYP/6-31G* guess=read geom=check nosymm integral(ultrafinegri
 d)\\Candidate Structure: Conf:879 Charge calc in gas phase\\1,1\N,0,-3
 .964912353,2.0352859255,3.6676035483\H,0,-3.1766105039,1.5633950153,4.
 1026068665\H,0,-3.6368543155,2.9029970673,3.2527627648\C,0,-4.66706470
 28,1.1904914995,2.7137670391\H,0,-5.5463601314,1.7300726918,2.34265281
 92\H,0,-5.0622061861,0.3127498299,3.2372746994\C,0,-3.9337216696,0.649
 895285,1.4727418957\O,0,-4.4921005536,-0.1243430137,0.700867384\N,0,-2
 .659841003,1.1067937818,1.2870127755\H,0,-2.1986276688,1.583234477,2.0
 538588164\C,0,-1.7665486456,0.5305160181,0.3003648813\H,0,-2.226020259
 3,-0.3985697745,-0.0516882737\C,0,-0.4325239335,0.2333337726,1.0012184
 419\C,0,-1.5021916547,1.4762388589,-0.8992180203\H,0,-1.0466568317,2.3
 938183317,-0.5015595573\H,0,-0.7477129967,1.0092181604,-1.5509451385\O
 ,0,-0.0756574113,0.8584014825,1.9972546394\C,0,-2.7370823483,1.8423140
 315,-1.7444020138\H,0,-3.4902679658,2.2662843821,-1.0670582335\C,0,-2.
 3592420463,2.9261690625,-2.766197265\H,0,-1.6052379136,2.5533813966,-3
 .4738638891\H,0,-3.2334296486,3.2368804215,-3.3494990191\H,0,-1.947648
 805,3.8177691694,-2.2773217202\C,0,-3.3591049226,0.6221491922,-2.43926
 4806\H,0,-2.6202212897,0.1077495634,-3.0704129353\H,0,-3.7619258387,-0
 .0882676415,-1.7120393839\H,0,-4.1874106591,0.9309156249,-3.0876305321
 \N,0,0.3232649519,-0.7424203593,0.4211184899\H,0,0.0485978325,-1.10084
 76182,-0.4863555642\C,0,1.7198740191,-0.947700004,0.7646945288\H,0,2.0
 230361943,-0.0948885328,1.3823233779\C,0,2.5189744075,-0.945710556,-0.
 5447803637\C,0,1.9724974308,-2.2517214853,1.5832251156\H,0,3.059028109
 4,-2.3022720588,1.7510326671\O,0,1.9911579903,-1.1497921254,-1.6397959
 51\C,0,1.2866793668,-2.1698960386,2.9534889583\H,0,0.1978323347,-2.131
 9936989,2.8442428688\H,0,1.5335631464,-3.0529701546,3.5528367279\H,0,1
 .5963859184,-1.279044136,3.5095246781\C,0,1.5459180965,-3.5133991657,0
 .8196501276\H,0,0.4651061275,-3.5115605788,0.6381453894\H,0,1.77974040
 48,-4.4078296347,1.4064811709\H,0,2.0497493768,-3.6065931318,-0.149125
 0092\N,0,3.8559486021,-0.7179857127,-0.4291092574\H,0,4.3033362158,-0.
 6252931001,0.4758901157\C,0,4.7329189774,-0.8456289385,-1.5771851512\H
 ,0,4.4747812083,-1.7644286815,-2.1208136033\C,0,6.1542255212,-0.987191
 1488,-1.047069294\C,0,4.5675112152,0.3502545821,-2.5558958647\H,0,3.49
 86974285,0.5808595505,-2.5558999617\H,0,5.0962567075,1.2282359164,-2.1
 63760488\O,0,6.4646189682,-0.8943192444,0.1182538962\C,0,5.0037758967,
 0.0454402341,-3.9951713929\H,0,4.5081264983,-0.8770725599,-4.326365558
 \H,0,6.0829854564,-0.1350144946,-4.0418174474\C,0,4.6181518019,1.19031
 04367,-4.9499375507\H,0,3.5362675573,1.3701571017,-4.8794480606\H,0,5.
 1246831443,2.1165719755,-4.6444048977\C,0,4.9872725544,0.8503541076,-6
 .3879219973\H,0,6.0644179171,0.7364051856,-6.5318715242\H,0,4.48364349
 65,-0.0511249427,-6.7453553889\N,0,4.5543190848,1.9721723626,-7.339407
 1847\H,0,4.7905236421,1.7646101626,-8.31781856\H,0,3.5389308226,2.1238
 829372,-7.2893932568\H,0,5.0053382153,2.8616813875,-7.0914644276\O,0,7
 .0437096026,-1.2211425553,-2.0363040819\H,0,7.9195150658,-1.3068249144
 ,-1.6109649087\\Version=ES64L-G16RevC.01\HF=-1396.620035\RMSD=8.081e-1
 0\Dipole=8.7007426,2.7971296,-11.0450143\Quadrupole=-4.3508652,-73.423
 4187,77.7742839,19.0670628,-113.4667629,-47.2610345\PG=C01 [X(C19H38N5
 O5)]\\@
 The archive entry for this job was punched.


 THERE IS AN OLD, OLD RECIPE IN MAINE FOR STEWING COOT. PLACE THE
 BIRD IN A KETTLE OF WATER WITH A RED BUILDING BRICK FREE OF MORTAR AND
 BLEMISHES. PARBOIL THE COOT AND BRICK TOGETHER FOR THREE HOURS.
 POUR OFF THE WATER, REFILL THE KETTLE, AND AGAIN PARBOIL FOR THREE HOURS.
 ONCE AGAIN POUR OFF THE WATER, FOR THE LAST TIME ADD FRESH WATER,
 AND LET THE COOT AND BRICK SIMMER TOGETHER OVERNIGHT. IN THE MORNING,
 THROW AWAY THE COOT AND EAT THE BRICK.
 Job cpu time:       0 days  0 hours  2 minutes 20.9 seconds.
 Elapsed time:       0 days  0 hours  0 minutes 36.0 seconds.
 File lengths (MBytes):  RWF=    256 Int=      0 D2E=      0 Chk=     40 Scr=     16
 Normal termination of Gaussian 16 at Fri May 27 02:24:56 2022.
