 Entering Gaussian System, Link 0=/opt/software/Gaussian/g16-AVX2-C.01/g16/g16
 Input=charge-conf-102.com
 Output=charge-conf-102.log
 Initial command:
 /opt/software/Gaussian/g16-AVX2-C.01/g16/l1.exe "/mnt/gs18/scratch/users/kengmith/Gau-25556.inp" -scrdir="/mnt/gs18/scratch/users/kengmith/"
 Entering Link 1 = /opt/software/Gaussian/g16-AVX2-C.01/g16/l1.exe PID=     25567.
  
 Copyright (c) 1988-2019, Gaussian, Inc.  All Rights Reserved.
  
 This is part of the Gaussian(R) 16 program.  It is based on
 the Gaussian(R) 09 system (copyright 2009, Gaussian, Inc.),
 the Gaussian(R) 03 system (copyright 2003, Gaussian, Inc.),
 the Gaussian(R) 98 system (copyright 1998, Gaussian, Inc.),
 the Gaussian(R) 94 system (copyright 1995, Gaussian, Inc.),
 the Gaussian 92(TM) system (copyright 1992, Gaussian, Inc.),
 the Gaussian 90(TM) system (copyright 1990, Gaussian, Inc.),
 the Gaussian 88(TM) system (copyright 1988, Gaussian, Inc.),
 the Gaussian 86(TM) system (copyright 1986, Carnegie Mellon
 University), and the Gaussian 82(TM) system (copyright 1983,
 Carnegie Mellon University). Gaussian is a federally registered
 trademark of Gaussian, Inc.
  
 This software contains proprietary and confidential information,
 including trade secrets, belonging to Gaussian, Inc.
  
 This software is provided under written license and may be
 used, copied, transmitted, or stored only in accord with that
 written license.
  
 The following legend is applicable only to US Government
 contracts under FAR:
  
                    RESTRICTED RIGHTS LEGEND
  
 Use, reproduction and disclosure by the US Government is
 subject to restrictions as set forth in subparagraphs (a)
 and (c) of the Commercial Computer Software - Restricted
 Rights clause in FAR 52.227-19.
  
 Gaussian, Inc.
 340 Quinnipiac St., Bldg. 40, Wallingford CT 06492
  
  
 ---------------------------------------------------------------
 Warning -- This program may not be used in any manner that
 competes with the business of Gaussian, Inc. or will provide
 assistance to any competitor of Gaussian, Inc.  The licensee
 of this program is prohibited from giving any competitor of
 Gaussian, Inc. access to this program.  By using this program,
 the user acknowledges that Gaussian, Inc. is engaged in the
 business of creating and licensing software in the field of
 computational chemistry and represents and warrants to the
 licensee that it is not a competitor of Gaussian, Inc. and that
 it will not use this program in any manner prohibited above.
 ---------------------------------------------------------------
  

 Cite this work as:
 Gaussian 16, Revision C.01,
 M. J. Frisch, G. W. Trucks, H. B. Schlegel, G. E. Scuseria, 
 M. A. Robb, J. R. Cheeseman, G. Scalmani, V. Barone, 
 G. A. Petersson, H. Nakatsuji, X. Li, M. Caricato, A. V. Marenich, 
 J. Bloino, B. G. Janesko, R. Gomperts, B. Mennucci, H. P. Hratchian, 
 J. V. Ortiz, A. F. Izmaylov, J. L. Sonnenberg, D. Williams-Young, 
 F. Ding, F. Lipparini, F. Egidi, J. Goings, B. Peng, A. Petrone, 
 T. Henderson, D. Ranasinghe, V. G. Zakrzewski, J. Gao, N. Rega, 
 G. Zheng, W. Liang, M. Hada, M. Ehara, K. Toyota, R. Fukuda, 
 J. Hasegawa, M. Ishida, T. Nakajima, Y. Honda, O. Kitao, H. Nakai, 
 T. Vreven, K. Throssell, J. A. Montgomery, Jr., J. E. Peralta, 
 F. Ogliaro, M. J. Bearpark, J. J. Heyd, E. N. Brothers, K. N. Kudin, 
 V. N. Staroverov, T. A. Keith, R. Kobayashi, J. Normand, 
 K. Raghavachari, A. P. Rendell, J. C. Burant, S. S. Iyengar, 
 J. Tomasi, M. Cossi, J. M. Millam, M. Klene, C. Adamo, R. Cammi, 
 J. W. Ochterski, R. L. Martin, K. Morokuma, O. Farkas, 
 J. B. Foresman, and D. J. Fox, Gaussian, Inc., Wallingford CT, 2019.
 
 ******************************************
 Gaussian 16:  ES64L-G16RevC.01  3-Jul-2019
                27-May-2022 
 ******************************************
 %mem=8gb
 %nproc=4
 Will use up to    4 processors via shared memory.
 %chk=conf-102.chk
 -------------------------------------------------------------------
 # B3LYP/6-31G* guess=read geom=check nosymm integral(ultrafinegrid)
 -------------------------------------------------------------------
 1/29=2,38=1,172=1/1;
 2/12=2,15=1,40=1/2;
 3/5=1,6=6,7=1,11=2,14=-4,25=1,30=1,74=-5,75=-5,116=-2/1,2,3;
 4/5=1/1;
 5/5=2,38=6/2;
 6/7=2,8=2,9=2,10=2,28=1/1;
 99/5=1,9=1/99;
 ------------------------------------------------------
 Candidate Structure: Conf:102 Charge calc in gas phase
 ------------------------------------------------------
 Structure from the checkpoint file:  "conf-102.chk"
 Charge =  1 Multiplicity = 1
 Redundant internal coordinates found in file.  (old form).
 N,0,-3.313136978,0.6305017051,4.2958183254
 H,0,-3.5520499351,-0.344931483,4.1271706735
 H,0,-2.3357765472,0.6291347129,4.5811873371
 C,0,-3.4718770778,1.3850234014,3.0719887062
 H,0,-3.1813899729,2.4296076256,3.2474349031
 H,0,-4.5370919773,1.4077253779,2.8023429965
 C,0,-2.6986842801,0.8459485705,1.8580878458
 O,0,-2.1560139414,-0.2613391608,1.8632142885
 N,0,-2.6637089134,1.6533153216,0.7571090515
 H,0,-3.1105150393,2.5606363653,0.7923087836
 C,0,-2.1353468263,1.1800468038,-0.5252747275
 H,0,-2.3409504512,0.1064102524,-0.5552301121
 C,0,-0.5948663447,1.3472430191,-0.5541388041
 C,0,-2.8436874149,1.866462484,-1.6955184397
 H,0,-3.9228701976,1.833202146,-1.4971782713
 H,0,-2.5612035753,2.9297400276,-1.7036085324
 O,0,-0.0149070812,2.2749348441,-1.1602033268
 C,0,-2.5779047508,1.240055449,-3.0830316283
 H,0,-1.4896647093,1.206817448,-3.2430950279
 C,0,-3.0977967783,-0.2027533253,-3.1877938476
 H,0,-4.1736074281,-0.2489800173,-2.9778369615
 H,0,-2.93925295,-0.5941630498,-4.1981277513
 H,0,-2.5852850969,-0.8807973872,-2.4982992809
 C,0,-3.2131976769,2.110668765,-4.179627905
 H,0,-4.3045805779,2.1355290157,-4.0775893115
 H,0,-2.8710228411,3.1556730842,-4.1375945619
 H,0,-2.986899363,1.7204597957,-5.1778523507
 N,0,0.058655605,0.4244296533,0.1576423941
 H,0,-0.5248350985,-0.228353966,0.6811802842
 C,0,1.5087993633,0.261804198,0.1996638038
 H,0,1.9608216075,1.1819989263,0.5952228525
 C,0,2.0082079276,0.0542341127,-1.2532039931
 C,0,1.8612880037,-0.9200691451,1.1489174627
 H,0,1.3447240342,-1.8051756261,0.7508712482
 O,0,1.288108878,-0.419180608,-2.1233591572
 C,0,3.3675812945,-1.2216737953,1.1773779046
 H,0,3.9385448466,-0.3566881033,1.5426756089
 H,0,3.5604378031,-2.0456877936,1.871362166
 H,0,3.7667979002,-1.5099112133,0.2019035689
 C,0,1.3592771749,-0.6498543777,2.5790431307
 H,0,1.840729627,0.2444167411,2.9952361482
 H,0,1.6171418591,-1.4948422824,3.225720145
 H,0,0.2756027216,-0.5136470981,2.6395578678
 N,0,3.2842582793,0.4766578814,-1.4962364139
 H,0,3.8566658772,0.8047343897,-0.7305960715
 C,0,3.8465049756,0.4606983486,-2.8375980527
 H,0,3.1989559773,-0.2135987587,-3.4105827882
 C,0,5.2539392146,-0.1248891406,-2.9066240528
 C,0,3.8170674532,1.8556249503,-3.5125342216
 H,0,4.6070104266,2.492018184,-3.091450343
 H,0,4.0574663547,1.7228961722,-4.5722082013
 O,0,5.9699965067,-0.0101826657,-3.8728955124
 C,0,2.4541512735,2.5244587029,-3.3135269875
 H,0,2.3059643946,2.6913617279,-2.2414163279
 H,0,1.6681018667,1.8186450795,-3.6106693012
 C,0,2.2729813774,3.8558378487,-4.0540362598
 H,0,3.1837830522,4.4643479881,-3.9896418563
 H,0,2.0931486231,3.6919928942,-5.1250236232
 C,0,1.1506950467,4.7058011436,-3.4584758478
 H,0,1.4001833809,5.0498536543,-2.4516042516
 H,0,0.9207277421,5.5744976099,-4.0803231543
 N,0,-0.1379684947,3.9157010743,-3.3034606347
 H,0,-0.929529163,4.5425813359,-3.1324308809
 H,0,-0.3574000996,3.3868646944,-4.1537689229
 H,0,-0.1129131547,3.2259415514,-2.4865813961
 O,0,5.6118681705,-0.7875402133,-1.7840285248
 H,0,6.5098199173,-1.138538007,-1.9438634096
 Recover connectivity data from disk.
                           ----------------------------
                           !    Current Parameters    !
                           ! (Angstroms and Degrees)  !
 --------------------------                            --------------------------
 ! Name  Definition              Value                                          !
 --------------------------------------------------------------------------------
 ! R1    R(1,2)                  1.0183                                         !
 ! R2    R(1,3)                  1.0182                                         !
 ! R3    R(1,4)                  1.4465                                         !
 ! R4    R(4,5)                  1.0983                                         !
 ! R5    R(4,6)                  1.099                                          !
 ! R6    R(4,7)                  1.5369                                         !
 ! R7    R(7,8)                  1.2331                                         !
 ! R8    R(7,9)                  1.3657                                         !
 ! R9    R(9,10)                 1.012                                          !
 ! R10   R(9,11)                 1.4655                                         !
 ! R11   R(11,12)                1.0936                                         !
 ! R12   R(11,13)                1.5498                                         !
 ! R13   R(11,14)                1.5305                                         !
 ! R14   R(13,17)                1.2507                                         !
 ! R15   R(13,28)                1.3362                                         !
 ! R16   R(14,15)                1.0978                                         !
 ! R17   R(14,16)                1.1002                                         !
 ! R18   R(14,18)                1.5454                                         !
 ! R19   R(18,19)                1.1005                                         !
 ! R20   R(18,20)                1.5372                                         !
 ! R21   R(18,24)                1.5376                                         !
 ! R22   R(20,21)                1.0971                                         !
 ! R23   R(20,22)                1.095                                          !
 ! R24   R(20,23)                1.0944                                         !
 ! R25   R(24,25)                1.0964                                         !
 ! R26   R(24,26)                1.1004                                         !
 ! R27   R(24,27)                1.0954                                         !
 ! R28   R(28,29)                1.0201                                         !
 ! R29   R(28,30)                1.4598                                         !
 ! R30   R(30,31)                1.0989                                         !
 ! R31   R(30,32)                1.5503                                         !
 ! R32   R(30,33)                1.5563                                         !
 ! R33   R(32,35)                1.2247                                         !
 ! R34   R(32,44)                1.3659                                         !
 ! R35   R(33,34)                1.0994                                         !
 ! R36   R(33,36)                1.5365                                         !
 ! R37   R(33,40)                1.5396                                         !
 ! R38   R(36,37)                1.0989                                         !
 ! R39   R(36,38)                1.0944                                         !
 ! R40   R(36,39)                1.0927                                         !
 ! R41   R(40,41)                1.0976                                         !
 ! R42   R(40,42)                1.0948                                         !
 ! R43   R(40,43)                1.0939                                         !
 ! R44   R(44,45)                1.0107                                         !
 ! R45   R(44,46)                1.4545                                         !
 ! R46   R(46,47)                1.0965                                         !
 ! R47   R(46,48)                1.526                                          !
 ! R48   R(46,49)                1.5499                                         !
 ! R49   R(48,52)                1.2081                                         !
 ! R50   R(48,66)                1.3518                                         !
 ! R51   R(49,50)                1.0983                                         !
 ! R52   R(49,51)                1.0947                                         !
 ! R53   R(49,53)                1.5312                                         !
 ! R54   R(53,54)                1.0951                                         !
 ! R55   R(53,55)                1.0974                                         !
 ! R56   R(53,56)                1.5342                                         !
 ! R57   R(56,57)                1.0973                                         !
 ! R58   R(56,58)                1.0983                                         !
 ! R59   R(56,59)                1.5286                                         !
 ! R60   R(59,60)                1.0929                                         !
 ! R61   R(59,61)                1.0928                                         !
 ! R62   R(59,62)                1.5195                                         !
 ! R63   R(62,63)                1.0241                                         !
 ! R64   R(62,64)                1.0251                                         !
 ! R65   R(62,65)                1.0694                                         !
 ! R66   R(66,67)                0.9773                                         !
 ! A1    A(2,1,3)              105.6845                                         !
 ! A2    A(2,1,4)              109.499                                          !
 ! A3    A(3,1,4)              110.0709                                         !
 ! A4    A(1,4,5)              109.3859                                         !
 ! A5    A(1,4,6)              108.9487                                         !
 ! A6    A(1,4,7)              115.4739                                         !
 ! A7    A(5,4,6)              106.0148                                         !
 ! A8    A(5,4,7)              109.0691                                         !
 ! A9    A(6,4,7)              107.5217                                         !
 ! A10   A(4,7,8)              122.2139                                         !
 ! A11   A(4,7,9)              116.2484                                         !
 ! A12   A(8,7,9)              121.528                                          !
 ! A13   A(7,9,10)             119.385                                          !
 ! A14   A(7,9,11)             121.5838                                         !
 ! A15   A(10,9,11)            118.6308                                         !
 ! A16   A(9,11,12)            105.8574                                         !
 ! A17   A(9,11,13)            109.8663                                         !
 ! A18   A(9,11,14)            110.9397                                         !
 ! A19   A(12,11,13)           106.9952                                         !
 ! A20   A(12,11,14)           109.4123                                         !
 ! A21   A(13,11,14)           113.4166                                         !
 ! A22   A(11,13,17)           123.3644                                         !
 ! A23   A(11,13,28)           113.6868                                         !
 ! A24   A(17,13,28)           122.9299                                         !
 ! A25   A(11,14,15)           107.6529                                         !
 ! A26   A(11,14,16)           108.6772                                         !
 ! A27   A(11,14,18)           115.1582                                         !
 ! A28   A(15,14,16)           106.4407                                         !
 ! A29   A(15,14,18)           108.6032                                         !
 ! A30   A(16,14,18)           109.9365                                         !
 ! A31   A(14,18,19)           108.2348                                         !
 ! A32   A(14,18,20)           112.5491                                         !
 ! A33   A(14,18,24)           109.8628                                         !
 ! A34   A(19,18,20)           107.2291                                         !
 ! A35   A(19,18,24)           108.7817                                         !
 ! A36   A(20,18,24)           110.0668                                         !
 ! A37   A(18,20,21)           110.9871                                         !
 ! A38   A(18,20,22)           110.4509                                         !
 ! A39   A(18,20,23)           112.3448                                         !
 ! A40   A(21,20,22)           107.6673                                         !
 ! A41   A(21,20,23)           108.2119                                         !
 ! A42   A(22,20,23)           106.9787                                         !
 ! A43   A(18,24,25)           110.9619                                         !
 ! A44   A(18,24,26)           112.4577                                         !
 ! A45   A(18,24,27)           111.2764                                         !
 ! A46   A(25,24,26)           106.5252                                         !
 ! A47   A(25,24,27)           107.3689                                         !
 ! A48   A(26,24,27)           107.9904                                         !
 ! A49   A(13,28,29)           115.822                                          !
 ! A50   A(13,28,30)           125.3192                                         !
 ! A51   A(29,28,30)           118.8238                                         !
 ! A52   A(28,30,31)           109.0074                                         !
 ! A53   A(28,30,32)           107.9354                                         !
 ! A54   A(28,30,33)           109.0951                                         !
 ! A55   A(31,30,32)           108.479                                          !
 ! A56   A(31,30,33)           108.8562                                         !
 ! A57   A(32,30,33)           113.389                                          !
 ! A58   A(30,32,35)           121.8852                                         !
 ! A59   A(30,32,44)           115.2317                                         !
 ! A60   A(35,32,44)           122.8487                                         !
 ! A61   A(30,33,34)           106.5068                                         !
 ! A62   A(30,33,36)           112.483                                          !
 ! A63   A(30,33,40)           111.0656                                         !
 ! A64   A(34,33,36)           108.0173                                         !
 ! A65   A(34,33,40)           108.9299                                         !
 ! A66   A(36,33,40)           109.6891                                         !
 ! A67   A(33,36,37)           111.1623                                         !
 ! A68   A(33,36,38)           109.4082                                         !
 ! A69   A(33,36,39)           113.1674                                         !
 ! A70   A(37,36,38)           106.8753                                         !
 ! A71   A(37,36,39)           108.3341                                         !
 ! A72   A(38,36,39)           107.643                                          !
 ! A73   A(33,40,41)           110.6218                                         !
 ! A74   A(33,40,42)           109.6582                                         !
 ! A75   A(33,40,43)           113.3454                                         !
 ! A76   A(41,40,42)           107.5498                                         !
 ! A77   A(41,40,43)           108.1871                                         !
 ! A78   A(42,40,43)           107.2628                                         !
 ! A79   A(32,44,45)           119.6489                                         !
 ! A80   A(32,44,46)           121.453                                          !
 ! A81   A(45,44,46)           118.8976                                         !
 ! A82   A(44,46,47)           105.092                                          !
 ! A83   A(44,46,48)           113.7316                                         !
 ! A84   A(44,46,49)           112.6048                                         !
 ! A85   A(47,46,48)           106.5627                                         !
 ! A86   A(47,46,49)           108.342                                          !
 ! A87   A(48,46,49)           110.0718                                         !
 ! A88   A(46,48,52)           123.1208                                         !
 ! A89   A(46,48,66)           113.2507                                         !
 ! A90   A(52,48,66)           123.6276                                         !
 ! A91   A(46,49,50)           109.9298                                         !
 ! A92   A(46,49,51)           107.9536                                         !
 ! A93   A(46,49,53)           110.6979                                         !
 ! A94   A(50,49,51)           106.4654                                         !
 ! A95   A(50,49,53)           109.7103                                         !
 ! A96   A(51,49,53)           111.9782                                         !
 ! A97   A(49,53,54)           108.3165                                         !
 ! A98   A(49,53,55)           108.7495                                         !
 ! A99   A(49,53,56)           114.9259                                         !
 ! A100  A(54,53,55)           105.437                                          !
 ! A101  A(54,53,56)           108.923                                          !
 ! A102  A(55,53,56)           110.0512                                         !
 ! A103  A(53,56,57)           110.788                                          !
 ! A104  A(53,56,58)           111.1341                                         !
 ! A105  A(53,56,59)           112.4066                                         !
 ! A106  A(57,56,58)           106.0143                                         !
 ! A107  A(57,56,59)           106.1526                                         !
 ! A108  A(58,56,59)           110.0393                                         !
 ! A109  A(56,59,60)           111.493                                          !
 ! A110  A(56,59,61)           112.0123                                         !
 ! A111  A(56,59,62)           111.9174                                         !
 ! A112  A(60,59,61)           108.7864                                         !
 ! A113  A(60,59,62)           105.2663                                         !
 ! A114  A(61,59,62)           107.0328                                         !
 ! A115  A(59,62,63)           110.7476                                         !
 ! A116  A(59,62,64)           111.4173                                         !
 ! A117  A(59,62,65)           113.1676                                         !
 ! A118  A(63,62,64)           106.7898                                         !
 ! A119  A(63,62,65)           106.5797                                         !
 ! A120  A(64,62,65)           107.8109                                         !
 ! A121  A(48,66,67)           106.4705                                         !
 ! D1    D(2,1,4,5)           -178.1084                                         !
 ! D2    D(2,1,4,6)             66.4218                                         !
 ! D3    D(2,1,4,7)            -54.6533                                         !
 ! D4    D(3,1,4,5)            -62.3416                                         !
 ! D5    D(3,1,4,6)           -177.8114                                         !
 ! D6    D(3,1,4,7)             61.1135                                         !
 ! D7    D(1,4,7,8)             11.112                                          !
 ! D8    D(1,4,7,9)           -170.0071                                         !
 ! D9    D(5,4,7,8)            134.7338                                         !
 ! D10   D(5,4,7,9)            -46.3853                                         !
 ! D11   D(6,4,7,8)           -110.7317                                         !
 ! D12   D(6,4,7,9)             68.1492                                         !
 ! D13   D(4,7,9,10)             1.8437                                         !
 ! D14   D(4,7,9,11)          -170.7919                                         !
 ! D15   D(8,7,9,10)          -179.2671                                         !
 ! D16   D(8,7,9,11)             8.0973                                         !
 ! D17   D(7,9,11,12)           30.4769                                         !
 ! D18   D(7,9,11,13)          -84.7193                                         !
 ! D19   D(7,9,11,14)          149.0735                                         !
 ! D20   D(10,9,11,12)        -142.2126                                         !
 ! D21   D(10,9,11,13)         102.5913                                         !
 ! D22   D(10,9,11,14)         -23.6159                                         !
 ! D23   D(9,11,13,17)        -102.1099                                         !
 ! D24   D(9,11,13,28)          76.3471                                         !
 ! D25   D(12,11,13,17)        143.4188                                         !
 ! D26   D(12,11,13,28)        -38.1242                                         !
 ! D27   D(14,11,13,17)         22.6816                                         !
 ! D28   D(14,11,13,28)       -158.8614                                         !
 ! D29   D(9,11,14,15)         -46.6322                                         !
 ! D30   D(9,11,14,16)          68.2716                                         !
 ! D31   D(9,11,14,18)        -167.9195                                         !
 ! D32   D(12,11,14,15)         69.7942                                         !
 ! D33   D(12,11,14,16)       -175.302                                          !
 ! D34   D(12,11,14,18)        -51.4931                                         !
 ! D35   D(13,11,14,15)       -170.8428                                         !
 ! D36   D(13,11,14,16)        -55.939                                          !
 ! D37   D(13,11,14,18)         67.8699                                         !
 ! D38   D(11,13,28,29)         -4.1913                                         !
 ! D39   D(11,13,28,30)        173.6199                                         !
 ! D40   D(17,13,28,29)        174.2733                                         !
 ! D41   D(17,13,28,30)         -7.9155                                         !
 ! D42   D(11,14,18,19)        -55.0043                                         !
 ! D43   D(11,14,18,20)         63.3202                                         !
 ! D44   D(11,14,18,24)       -173.6537                                         !
 ! D45   D(15,14,18,19)       -175.7744                                         !
 ! D46   D(15,14,18,20)        -57.4498                                         !
 ! D47   D(15,14,18,24)         65.5762                                         !
 ! D48   D(16,14,18,19)         68.1374                                         !
 ! D49   D(16,14,18,20)       -173.538                                          !
 ! D50   D(16,14,18,24)        -50.512                                          !
 ! D51   D(14,18,20,21)         57.7017                                         !
 ! D52   D(14,18,20,22)        177.0402                                         !
 ! D53   D(14,18,20,23)        -63.6033                                         !
 ! D54   D(19,18,20,21)        176.6156                                         !
 ! D55   D(19,18,20,22)        -64.0459                                         !
 ! D56   D(19,18,20,23)         55.3106                                         !
 ! D57   D(24,18,20,21)        -65.2101                                         !
 ! D58   D(24,18,20,22)         54.1284                                         !
 ! D59   D(24,18,20,23)        173.4849                                         !
 ! D60   D(14,18,24,25)        -63.9646                                         !
 ! D61   D(14,18,24,26)         55.2411                                         !
 ! D62   D(14,18,24,27)        176.5471                                         !
 ! D63   D(19,18,24,25)        177.7234                                         !
 ! D64   D(19,18,24,26)        -63.0709                                         !
 ! D65   D(19,18,24,27)         58.2352                                         !
 ! D66   D(20,18,24,25)         60.5106                                         !
 ! D67   D(20,18,24,26)        179.7162                                         !
 ! D68   D(20,18,24,27)        -58.9777                                         !
 ! D69   D(13,28,30,31)         61.0275                                         !
 ! D70   D(13,28,30,32)        -56.6086                                         !
 ! D71   D(13,28,30,33)        179.7774                                         !
 ! D72   D(29,28,30,31)       -121.2214                                         !
 ! D73   D(29,28,30,32)        121.1424                                         !
 ! D74   D(29,28,30,33)         -2.4715                                         !
 ! D75   D(28,30,32,35)        -26.3136                                         !
 ! D76   D(28,30,32,44)        151.6121                                         !
 ! D77   D(31,30,32,35)       -144.2897                                         !
 ! D78   D(31,30,32,44)         33.636                                          !
 ! D79   D(33,30,32,35)         94.6586                                         !
 ! D80   D(33,30,32,44)        -87.4157                                         !
 ! D81   D(28,30,33,34)         57.9777                                         !
 ! D82   D(28,30,33,36)        176.1277                                         !
 ! D83   D(28,30,33,40)        -60.4945                                         !
 ! D84   D(31,30,33,34)        176.822                                          !
 ! D85   D(31,30,33,36)        -65.028                                          !
 ! D86   D(31,30,33,40)         58.3497                                         !
 ! D87   D(32,30,33,34)        -62.3389                                         !
 ! D88   D(32,30,33,36)         55.8111                                         !
 ! D89   D(32,30,33,40)        179.1889                                         !
 ! D90   D(30,32,44,45)          6.0071                                         !
 ! D91   D(30,32,44,46)       -174.2729                                         !
 ! D92   D(35,32,44,45)       -176.0894                                         !
 ! D93   D(35,32,44,46)          3.6306                                         !
 ! D94   D(30,33,36,37)         61.1811                                         !
 ! D95   D(30,33,36,38)        178.9836                                         !
 ! D96   D(30,33,36,39)        -60.9968                                         !
 ! D97   D(34,33,36,37)        178.4372                                         !
 ! D98   D(34,33,36,38)        -63.7604                                         !
 ! D99   D(34,33,36,39)         56.2593                                         !
 ! D100  D(40,33,36,37)        -62.9615                                         !
 ! D101  D(40,33,36,38)         54.8409                                         !
 ! D102  D(40,33,36,39)        174.8606                                         !
 ! D103  D(30,33,40,41)        -61.6529                                         !
 ! D104  D(30,33,40,42)        179.887                                          !
 ! D105  D(30,33,40,43)         60.0587                                         !
 ! D106  D(34,33,40,41)       -178.6527                                         !
 ! D107  D(34,33,40,42)         62.8872                                         !
 ! D108  D(34,33,40,43)        -56.9411                                         !
 ! D109  D(36,33,40,41)         63.3119                                         !
 ! D110  D(36,33,40,42)        -55.1482                                         !
 ! D111  D(36,33,40,43)       -174.9765                                         !
 ! D112  D(32,44,46,47)        -17.6765                                         !
 ! D113  D(32,44,46,48)       -133.849                                          !
 ! D114  D(32,44,46,49)        100.0552                                         !
 ! D115  D(45,44,46,47)        162.0455                                         !
 ! D116  D(45,44,46,48)         45.873                                          !
 ! D117  D(45,44,46,49)        -80.2228                                         !
 ! D118  D(44,46,48,52)       -166.5748                                         !
 ! D119  D(44,46,48,66)         13.7572                                         !
 ! D120  D(47,46,48,52)         78.1174                                         !
 ! D121  D(47,46,48,66)       -101.5506                                         !
 ! D122  D(49,46,48,52)        -39.1541                                         !
 ! D123  D(49,46,48,66)        141.1779                                         !
 ! D124  D(44,46,49,50)         75.7985                                         !
 ! D125  D(44,46,49,51)       -168.4537                                         !
 ! D126  D(44,46,49,53)        -45.567                                          !
 ! D127  D(47,46,49,50)       -168.4055                                         !
 ! D128  D(47,46,49,51)        -52.6577                                         !
 ! D129  D(47,46,49,53)         70.229                                          !
 ! D130  D(48,46,49,50)        -52.2454                                         !
 ! D131  D(48,46,49,51)         63.5024                                         !
 ! D132  D(48,46,49,53)       -173.611                                          !
 ! D133  D(46,48,66,67)        178.4695                                         !
 ! D134  D(52,48,66,67)         -1.1966                                         !
 ! D135  D(46,49,53,54)         63.3983                                         !
 ! D136  D(46,49,53,55)        -50.7103                                         !
 ! D137  D(46,49,53,56)       -174.5599                                         !
 ! D138  D(50,49,53,54)        -58.0967                                         !
 ! D139  D(50,49,53,55)       -172.2052                                         !
 ! D140  D(50,49,53,56)         63.9451                                         !
 ! D141  D(51,49,53,54)       -176.0828                                         !
 ! D142  D(51,49,53,55)         69.8087                                         !
 ! D143  D(51,49,53,56)        -54.041                                          !
 ! D144  D(49,53,56,57)        -41.1335                                         !
 ! D145  D(49,53,56,58)         76.4547                                         !
 ! D146  D(49,53,56,59)       -159.7138                                         !
 ! D147  D(54,53,56,57)         80.5797                                         !
 ! D148  D(54,53,56,58)       -161.8322                                         !
 ! D149  D(54,53,56,59)        -38.0006                                         !
 ! D150  D(55,53,56,57)       -164.2906                                         !
 ! D151  D(55,53,56,58)        -46.7025                                         !
 ! D152  D(55,53,56,59)         77.1291                                         !
 ! D153  D(53,56,59,60)         66.8559                                         !
 ! D154  D(53,56,59,61)       -170.9686                                         !
 ! D155  D(53,56,59,62)        -50.7548                                         !
 ! D156  D(57,56,59,60)        -54.4152                                         !
 ! D157  D(57,56,59,61)         67.7603                                         !
 ! D158  D(57,56,59,62)       -172.0259                                         !
 ! D159  D(58,56,59,60)       -168.7059                                         !
 ! D160  D(58,56,59,61)        -46.5304                                         !
 ! D161  D(58,56,59,62)         73.6833                                         !
 ! D162  D(56,59,62,63)       -165.6972                                         !
 ! D163  D(56,59,62,64)        -46.986                                          !
 ! D164  D(56,59,62,65)         74.6984                                         !
 ! D165  D(60,59,62,63)         73.0247                                         !
 ! D166  D(60,59,62,64)       -168.2641                                         !
 ! D167  D(60,59,62,65)        -46.5798                                         !
 ! D168  D(61,59,62,63)        -42.6176                                         !
 ! D169  D(61,59,62,64)         76.0936                                         !
 ! D170  D(61,59,62,65)       -162.2221                                         !
 --------------------------------------------------------------------------------
 Symmetry turned off by external request.
 Stoichiometry    C19H38N5O5(1+)
 Framework group  C1[X(C19H38N5O5)]
 Deg. of freedom   195
 Full point group                 C1      NOp   1
                          Input orientation:                          
 ---------------------------------------------------------------------
 Center     Atomic      Atomic             Coordinates (Angstroms)
 Number     Number       Type             X           Y           Z
 ---------------------------------------------------------------------
      1          7           0       -3.313137    0.630502    4.295818
      2          1           0       -3.552050   -0.344931    4.127171
      3          1           0       -2.335777    0.629135    4.581187
      4          6           0       -3.471877    1.385023    3.071989
      5          1           0       -3.181390    2.429608    3.247435
      6          1           0       -4.537092    1.407725    2.802343
      7          6           0       -2.698684    0.845949    1.858088
      8          8           0       -2.156014   -0.261339    1.863214
      9          7           0       -2.663709    1.653315    0.757109
     10          1           0       -3.110515    2.560636    0.792309
     11          6           0       -2.135347    1.180047   -0.525275
     12          1           0       -2.340950    0.106410   -0.555230
     13          6           0       -0.594866    1.347243   -0.554139
     14          6           0       -2.843687    1.866462   -1.695518
     15          1           0       -3.922870    1.833202   -1.497178
     16          1           0       -2.561204    2.929740   -1.703609
     17          8           0       -0.014907    2.274935   -1.160203
     18          6           0       -2.577905    1.240055   -3.083032
     19          1           0       -1.489665    1.206817   -3.243095
     20          6           0       -3.097797   -0.202753   -3.187794
     21          1           0       -4.173607   -0.248980   -2.977837
     22          1           0       -2.939253   -0.594163   -4.198128
     23          1           0       -2.585285   -0.880797   -2.498299
     24          6           0       -3.213198    2.110669   -4.179628
     25          1           0       -4.304581    2.135529   -4.077589
     26          1           0       -2.871023    3.155673   -4.137595
     27          1           0       -2.986899    1.720460   -5.177852
     28          7           0        0.058656    0.424430    0.157642
     29          1           0       -0.524835   -0.228354    0.681180
     30          6           0        1.508799    0.261804    0.199664
     31          1           0        1.960822    1.181999    0.595223
     32          6           0        2.008208    0.054234   -1.253204
     33          6           0        1.861288   -0.920069    1.148917
     34          1           0        1.344724   -1.805176    0.750871
     35          8           0        1.288109   -0.419181   -2.123359
     36          6           0        3.367581   -1.221674    1.177378
     37          1           0        3.938545   -0.356688    1.542676
     38          1           0        3.560438   -2.045688    1.871362
     39          1           0        3.766798   -1.509911    0.201904
     40          6           0        1.359277   -0.649854    2.579043
     41          1           0        1.840730    0.244417    2.995236
     42          1           0        1.617142   -1.494842    3.225720
     43          1           0        0.275603   -0.513647    2.639558
     44          7           0        3.284258    0.476658   -1.496236
     45          1           0        3.856666    0.804734   -0.730596
     46          6           0        3.846505    0.460698   -2.837598
     47          1           0        3.198956   -0.213599   -3.410583
     48          6           0        5.253939   -0.124889   -2.906624
     49          6           0        3.817067    1.855625   -3.512534
     50          1           0        4.607010    2.492018   -3.091450
     51          1           0        4.057466    1.722896   -4.572208
     52          8           0        5.969997   -0.010183   -3.872896
     53          6           0        2.454151    2.524459   -3.313527
     54          1           0        2.305964    2.691362   -2.241416
     55          1           0        1.668102    1.818645   -3.610669
     56          6           0        2.272981    3.855838   -4.054036
     57          1           0        3.183783    4.464348   -3.989642
     58          1           0        2.093149    3.691993   -5.125024
     59          6           0        1.150695    4.705801   -3.458476
     60          1           0        1.400183    5.049854   -2.451604
     61          1           0        0.920728    5.574498   -4.080323
     62          7           0       -0.137968    3.915701   -3.303461
     63          1           0       -0.929529    4.542581   -3.132431
     64          1           0       -0.357400    3.386865   -4.153769
     65          1           0       -0.112913    3.225942   -2.486581
     66          8           0        5.611868   -0.787540   -1.784029
     67          1           0        6.509820   -1.138538   -1.943863
 ---------------------------------------------------------------------
 Rotational constants (GHZ):           0.1873765           0.1068178           0.0784602
 Standard basis: 6-31G(d) (6D, 7F)
   511 basis functions,   964 primitive gaussians,   511 cartesian basis functions
   113 alpha electrons      113 beta electrons
       nuclear repulsion energy      3164.6031311598 Hartrees.
 NAtoms=   67 NActive=   67 NUniq=   67 SFac= 1.00D+00 NAtFMM=   60 NAOKFM=T Big=T
 Integral buffers will be    131072 words long.
 Raffenetti 2 integral format.
 Two-electron integral symmetry is turned off.
 One-electron integrals computed using PRISM.
 NBasis=   511 RedAO= T EigKep=  1.82D-03  NBF=   511
 NBsUse=   511 1.00D-06 EigRej= -1.00D+00 NBFU=   511
 Initial guess from the checkpoint file:  "conf-102.chk"
 B after Tr=     0.000000    0.000000    0.000000
         Rot=    1.000000    0.000000    0.000000    0.000000 Ang=   0.00 deg.
 Requested convergence on RMS density matrix=1.00D-08 within 128 cycles.
 Requested convergence on MAX density matrix=1.00D-06.
 Requested convergence on             energy=1.00D-06.
 No special actions if energy rises.
 SCF Done:  E(RB3LYP) =  -1396.65537093     A.U. after    2 cycles
            NFock=  2  Conv=0.85D-08     -V/T= 2.0095

 **********************************************************************

            Population analysis using the SCF Density.

 **********************************************************************

 Alpha  occ. eigenvalues --  -19.29178 -19.25100 -19.23043 -19.22635 -19.21562
 Alpha  occ. eigenvalues --  -14.58685 -14.47380 -14.47062 -14.46408 -14.39570
 Alpha  occ. eigenvalues --  -10.41454 -10.41024 -10.39038 -10.38901 -10.38815
 Alpha  occ. eigenvalues --  -10.34801 -10.33942 -10.33878 -10.32452 -10.31120
 Alpha  occ. eigenvalues --  -10.30585 -10.30447 -10.30015 -10.29599 -10.29490
 Alpha  occ. eigenvalues --  -10.28794 -10.27015 -10.26411 -10.26210  -1.19904
 Alpha  occ. eigenvalues --   -1.16016  -1.14192  -1.13579  -1.13192  -1.10881
 Alpha  occ. eigenvalues --   -1.04211  -1.03175  -1.02901  -0.96736  -0.93286
 Alpha  occ. eigenvalues --   -0.92436  -0.90687  -0.88350  -0.86284  -0.83735
 Alpha  occ. eigenvalues --   -0.81142  -0.78868  -0.78610  -0.77576  -0.77063
 Alpha  occ. eigenvalues --   -0.75153  -0.73041  -0.71817  -0.71322  -0.70384
 Alpha  occ. eigenvalues --   -0.69704  -0.69556  -0.68196  -0.67447  -0.66411
 Alpha  occ. eigenvalues --   -0.63381  -0.63195  -0.62526  -0.61385  -0.60384
 Alpha  occ. eigenvalues --   -0.59710  -0.59260  -0.58488  -0.58100  -0.57504
 Alpha  occ. eigenvalues --   -0.56928  -0.56289  -0.55465  -0.54821  -0.54463
 Alpha  occ. eigenvalues --   -0.53850  -0.53396  -0.53248  -0.52670  -0.52447
 Alpha  occ. eigenvalues --   -0.51644  -0.51201  -0.50846  -0.50513  -0.49606
 Alpha  occ. eigenvalues --   -0.49555  -0.49509  -0.48866  -0.48628  -0.47979
 Alpha  occ. eigenvalues --   -0.47729  -0.47358  -0.47286  -0.46824  -0.45871
 Alpha  occ. eigenvalues --   -0.45425  -0.45157  -0.44578  -0.44111  -0.43652
 Alpha  occ. eigenvalues --   -0.43470  -0.43384  -0.42965  -0.42384  -0.40936
 Alpha  occ. eigenvalues --   -0.39900  -0.37948  -0.37570  -0.36683  -0.35988
 Alpha  occ. eigenvalues --   -0.35285  -0.34776  -0.32149
 Alpha virt. eigenvalues --   -0.11391  -0.10725  -0.08485  -0.08074  -0.07911
 Alpha virt. eigenvalues --   -0.05891  -0.03844  -0.02595  -0.02195  -0.01606
 Alpha virt. eigenvalues --   -0.00872  -0.00417   0.00086   0.00436   0.00488
 Alpha virt. eigenvalues --    0.01529   0.02300   0.02485   0.02902   0.03187
 Alpha virt. eigenvalues --    0.03485   0.04017   0.04412   0.04564   0.05312
 Alpha virt. eigenvalues --    0.05553   0.05831   0.06224   0.06385   0.06562
 Alpha virt. eigenvalues --    0.06793   0.07358   0.07579   0.07977   0.08383
 Alpha virt. eigenvalues --    0.08656   0.08943   0.09094   0.09450   0.09888
 Alpha virt. eigenvalues --    0.10208   0.10765   0.11167   0.11634   0.11964
 Alpha virt. eigenvalues --    0.12352   0.12770   0.13093   0.13153   0.13565
 Alpha virt. eigenvalues --    0.13927   0.14743   0.15064   0.15791   0.15974
 Alpha virt. eigenvalues --    0.16594   0.17000   0.17822   0.18185   0.19029
 Alpha virt. eigenvalues --    0.19776   0.20541   0.23053   0.25485   0.26110
 Alpha virt. eigenvalues --    0.28137   0.28540   0.29233   0.31509   0.32042
 Alpha virt. eigenvalues --    0.36586   0.38333   0.38521   0.38999   0.39525
 Alpha virt. eigenvalues --    0.40450   0.40874   0.40979   0.41251   0.42074
 Alpha virt. eigenvalues --    0.42540   0.43264   0.43737   0.44277   0.44824
 Alpha virt. eigenvalues --    0.45309   0.45886   0.46109   0.47053   0.48089
 Alpha virt. eigenvalues --    0.48477   0.48849   0.49268   0.49880   0.50632
 Alpha virt. eigenvalues --    0.51467   0.51887   0.52564   0.53036   0.54021
 Alpha virt. eigenvalues --    0.54469   0.54911   0.55566   0.56114   0.56564
 Alpha virt. eigenvalues --    0.57202   0.57452   0.58288   0.58536   0.60495
 Alpha virt. eigenvalues --    0.60713   0.61307   0.61854   0.62661   0.62869
 Alpha virt. eigenvalues --    0.63351   0.64501   0.65328   0.65720   0.67017
 Alpha virt. eigenvalues --    0.67246   0.67658   0.68475   0.68786   0.69762
 Alpha virt. eigenvalues --    0.69946   0.71336   0.71687   0.72072   0.72719
 Alpha virt. eigenvalues --    0.72982   0.73208   0.73453   0.74070   0.74650
 Alpha virt. eigenvalues --    0.75121   0.75359   0.75710   0.76299   0.76569
 Alpha virt. eigenvalues --    0.76986   0.77662   0.78167   0.78522   0.79048
 Alpha virt. eigenvalues --    0.79621   0.79882   0.80268   0.80363   0.80946
 Alpha virt. eigenvalues --    0.81119   0.81489   0.81559   0.81997   0.82254
 Alpha virt. eigenvalues --    0.82643   0.83079   0.83344   0.83553   0.84012
 Alpha virt. eigenvalues --    0.84301   0.84967   0.85393   0.86121   0.86395
 Alpha virt. eigenvalues --    0.86575   0.86841   0.87128   0.87990   0.88299
 Alpha virt. eigenvalues --    0.89642   0.90219   0.90453   0.90886   0.91794
 Alpha virt. eigenvalues --    0.92831   0.93520   0.95144   0.95852   0.96267
 Alpha virt. eigenvalues --    0.97027   0.98329   0.99265   0.99737   1.00759
 Alpha virt. eigenvalues --    1.02580   1.04118   1.04896   1.06434   1.06875
 Alpha virt. eigenvalues --    1.07854   1.08275   1.10248   1.11327   1.13438
 Alpha virt. eigenvalues --    1.13868   1.15175   1.16720   1.18203   1.19157
 Alpha virt. eigenvalues --    1.21626   1.22393   1.23157   1.25385   1.26012
 Alpha virt. eigenvalues --    1.26416   1.27397   1.27774   1.28155   1.30640
 Alpha virt. eigenvalues --    1.32526   1.32827   1.34304   1.34592   1.35454
 Alpha virt. eigenvalues --    1.35928   1.36774   1.38723   1.38933   1.41619
 Alpha virt. eigenvalues --    1.43044   1.44526   1.44688   1.46056   1.47500
 Alpha virt. eigenvalues --    1.48647   1.49558   1.50586   1.51137   1.52981
 Alpha virt. eigenvalues --    1.54802   1.55099   1.56281   1.57037   1.58914
 Alpha virt. eigenvalues --    1.59378   1.60683   1.61527   1.62412   1.63242
 Alpha virt. eigenvalues --    1.63833   1.66084   1.66498   1.67341   1.67802
 Alpha virt. eigenvalues --    1.68362   1.68793   1.69412   1.69815   1.70645
 Alpha virt. eigenvalues --    1.71219   1.71682   1.71844   1.72484   1.73055
 Alpha virt. eigenvalues --    1.74181   1.75406   1.76691   1.77330   1.78092
 Alpha virt. eigenvalues --    1.78329   1.78522   1.79417   1.79670   1.80642
 Alpha virt. eigenvalues --    1.81431   1.82617   1.83699   1.84321   1.84961
 Alpha virt. eigenvalues --    1.85716   1.86216   1.87357   1.87916   1.88474
 Alpha virt. eigenvalues --    1.89302   1.89694   1.89858   1.91182   1.91480
 Alpha virt. eigenvalues --    1.92397   1.92627   1.94283   1.94710   1.95664
 Alpha virt. eigenvalues --    1.96070   1.96645   1.98481   1.98564   1.99151
 Alpha virt. eigenvalues --    1.99722   2.00304   2.01156   2.03169   2.03391
 Alpha virt. eigenvalues --    2.03724   2.05434   2.07072   2.07645   2.08075
 Alpha virt. eigenvalues --    2.10263   2.11976   2.12749   2.13893   2.14178
 Alpha virt. eigenvalues --    2.14870   2.16346   2.16524   2.17769   2.18189
 Alpha virt. eigenvalues --    2.18716   2.20504   2.22175   2.23270   2.24045
 Alpha virt. eigenvalues --    2.25286   2.26348   2.26963   2.28149   2.29054
 Alpha virt. eigenvalues --    2.30346   2.30941   2.31386   2.32386   2.33506
 Alpha virt. eigenvalues --    2.34729   2.35596   2.36846   2.38644   2.38758
 Alpha virt. eigenvalues --    2.39484   2.40762   2.42830   2.43530   2.45089
 Alpha virt. eigenvalues --    2.46170   2.47548   2.49800   2.50297   2.50958
 Alpha virt. eigenvalues --    2.52590   2.53868   2.54497   2.56223   2.57452
 Alpha virt. eigenvalues --    2.57925   2.60161   2.60633   2.62452   2.63269
 Alpha virt. eigenvalues --    2.64322   2.65290   2.67064   2.69333   2.70821
 Alpha virt. eigenvalues --    2.73900   2.74851   2.78549   2.83430   2.84239
 Alpha virt. eigenvalues --    2.88610   2.90434   2.91724   2.93649   2.94000
 Alpha virt. eigenvalues --    3.03862   3.04942   3.05719   3.10357   3.70213
 Alpha virt. eigenvalues --    3.72157   3.74991   3.91917   3.93298   3.97170
 Alpha virt. eigenvalues --    3.99615   4.03917   4.06376   4.07164   4.11169
 Alpha virt. eigenvalues --    4.13070   4.15944   4.18085   4.19127   4.20392
 Alpha virt. eigenvalues --    4.22225   4.24912   4.27701   4.30104   4.32457
 Alpha virt. eigenvalues --    4.37409   4.40237   4.40383   4.45039   4.51988
 Alpha virt. eigenvalues --    4.54484   4.57168   4.63450
          Condensed to atoms (all electrons):
 Mulliken charges:
               1
     1  N   -0.674063
     2  H    0.319931
     3  H    0.309222
     4  C   -0.247659
     5  H    0.169254
     6  H    0.188637
     7  C    0.588600
     8  O   -0.526877
     9  N   -0.603350
    10  H    0.337902
    11  C   -0.060201
    12  H    0.199571
    13  C    0.680101
    14  C   -0.283545
    15  H    0.164262
    16  H    0.104539
    17  O   -0.612311
    18  C   -0.097155
    19  H    0.126284
    20  C   -0.454564
    21  H    0.157788
    22  H    0.165840
    23  H    0.168341
    24  C   -0.450924
    25  H    0.175458
    26  H    0.091377
    27  H    0.167875
    28  N   -0.610757
    29  H    0.394693
    30  C   -0.019565
    31  H    0.155460
    32  C    0.632079
    33  C   -0.116822
    34  H    0.161387
    35  O   -0.528978
    36  C   -0.479982
    37  H    0.138689
    38  H    0.172654
    39  H    0.180881
    40  C   -0.470107
    41  H    0.146824
    42  H    0.170233
    43  H    0.171117
    44  N   -0.606335
    45  H    0.341232
    46  C   -0.064584
    47  H    0.226151
    48  C    0.591746
    49  C   -0.268593
    50  H    0.151982
    51  H    0.184456
    52  O   -0.444446
    53  C   -0.297619
    54  H    0.164482
    55  H    0.158166
    56  C   -0.291735
    57  H    0.189736
    58  H    0.170132
    59  C   -0.188656
    60  H    0.213865
    61  H    0.206469
    62  N   -0.789073
    63  H    0.404480
    64  H    0.405751
    65  H    0.478935
    66  O   -0.566660
    67  H    0.427978
 Sum of Mulliken charges =   1.00000
 Mulliken charges with hydrogens summed into heavy atoms:
               1
     1  N   -0.044910
     4  C    0.110232
     7  C    0.588600
     8  O   -0.526877
     9  N   -0.265447
    11  C    0.139370
    13  C    0.680101
    14  C   -0.014744
    17  O   -0.612311
    18  C    0.029130
    20  C    0.037405
    24  C   -0.016213
    28  N   -0.216064
    30  C    0.135895
    32  C    0.632079
    33  C    0.044565
    35  O   -0.528978
    36  C    0.012242
    40  C    0.018067
    44  N   -0.265103
    46  C    0.161567
    48  C    0.591746
    49  C    0.067845
    52  O   -0.444446
    53  C    0.025029
    56  C    0.068133
    59  C    0.231678
    62  N    0.500092
    66  O   -0.138682
 Electronic spatial extent (au):  <R**2>=          16109.0306
 Charge=              1.0000 electrons
 Dipole moment (field-independent basis, Debye):
    X=              0.6821    Y=             14.5623    Z=             -9.0936  Tot=             17.1819
 Quadrupole moment (field-independent basis, Debye-Ang):
   XX=           -133.9991   YY=           -109.8978   ZZ=           -137.9573
   XY=             -7.9091   XZ=             12.1384   YZ=            -47.2114
 Traceless Quadrupole moment (field-independent basis, Debye-Ang):
   XX=             -6.7144   YY=             17.3869   ZZ=            -10.6725
   XY=             -7.9091   XZ=             12.1384   YZ=            -47.2114
 Octapole moment (field-independent basis, Debye-Ang**2):
  XXX=           -191.4158  YYY=           -263.3571  ZZZ=            394.9299  XYY=            -70.2117
  XXY=           -160.4081  XXZ=            183.4736  XZZ=           -108.7720  YZZ=            -13.7201
  YYZ=             -5.8792  XYZ=             -5.3613
 Hexadecapole moment (field-independent basis, Debye-Ang**3):
 XXXX=          -8445.0789 YYYY=          -2494.1670 ZZZZ=          -7201.0163 XXXY=            -52.5638
 XXXZ=           1845.5133 YYYX=            260.8458 YYYZ=            555.1284 ZZZX=           1994.0213
 ZZZY=            676.6882 XXYY=          -1904.9038 XXZZ=          -3220.0294 YYZZ=          -1127.2445
 XXYZ=            431.4747 YYXZ=            373.6891 ZZXY=            180.1741
 N-N= 3.164603131160D+03 E-N=-9.556502216930D+03  KE= 1.383507325947D+03
 Unable to Open any file for archive entry.
 1\1\GINC-AMR-177\SP\RB3LYP\6-31G(d)\C19H38N5O5(1+)\KENGMITH\27-May-202
 2\0\\# B3LYP/6-31G* guess=read geom=check nosymm integral(ultrafinegri
 d)\\Candidate Structure: Conf:102 Charge calc in gas phase\\1,1\N,0,-3
 .313136978,0.6305017051,4.2958183254\H,0,-3.5520499351,-0.344931483,4.
 1271706735\H,0,-2.3357765472,0.6291347129,4.5811873371\C,0,-3.47187707
 78,1.3850234014,3.0719887062\H,0,-3.1813899729,2.4296076256,3.24743490
 31\H,0,-4.5370919773,1.4077253779,2.8023429965\C,0,-2.6986842801,0.845
 9485705,1.8580878458\O,0,-2.1560139414,-0.2613391608,1.8632142885\N,0,
 -2.6637089134,1.6533153216,0.7571090515\H,0,-3.1105150393,2.5606363653
 ,0.7923087836\C,0,-2.1353468263,1.1800468038,-0.5252747275\H,0,-2.3409
 504512,0.1064102524,-0.5552301121\C,0,-0.5948663447,1.3472430191,-0.55
 41388041\C,0,-2.8436874149,1.866462484,-1.6955184397\H,0,-3.9228701976
 ,1.833202146,-1.4971782713\H,0,-2.5612035753,2.9297400276,-1.703608532
 4\O,0,-0.0149070812,2.2749348441,-1.1602033268\C,0,-2.5779047508,1.240
 055449,-3.0830316283\H,0,-1.4896647093,1.206817448,-3.2430950279\C,0,-
 3.0977967783,-0.2027533253,-3.1877938476\H,0,-4.1736074281,-0.24898001
 73,-2.9778369615\H,0,-2.93925295,-0.5941630498,-4.1981277513\H,0,-2.58
 52850969,-0.8807973872,-2.4982992809\C,0,-3.2131976769,2.110668765,-4.
 179627905\H,0,-4.3045805779,2.1355290157,-4.0775893115\H,0,-2.87102284
 11,3.1556730842,-4.1375945619\H,0,-2.986899363,1.7204597957,-5.1778523
 507\N,0,0.058655605,0.4244296533,0.1576423941\H,0,-0.5248350985,-0.228
 353966,0.6811802842\C,0,1.5087993633,0.261804198,0.1996638038\H,0,1.96
 08216075,1.1819989263,0.5952228525\C,0,2.0082079276,0.0542341127,-1.25
 32039931\C,0,1.8612880037,-0.9200691451,1.1489174627\H,0,1.3447240342,
 -1.8051756261,0.7508712482\O,0,1.288108878,-0.419180608,-2.1233591572\
 C,0,3.3675812945,-1.2216737953,1.1773779046\H,0,3.9385448466,-0.356688
 1033,1.5426756089\H,0,3.5604378031,-2.0456877936,1.871362166\H,0,3.766
 7979002,-1.5099112133,0.2019035689\C,0,1.3592771749,-0.6498543777,2.57
 90431307\H,0,1.840729627,0.2444167411,2.9952361482\H,0,1.6171418591,-1
 .4948422824,3.225720145\H,0,0.2756027216,-0.5136470981,2.6395578678\N,
 0,3.2842582793,0.4766578814,-1.4962364139\H,0,3.8566658772,0.804734389
 7,-0.7305960715\C,0,3.8465049756,0.4606983486,-2.8375980527\H,0,3.1989
 559773,-0.2135987587,-3.4105827882\C,0,5.2539392146,-0.1248891406,-2.9
 066240528\C,0,3.8170674532,1.8556249503,-3.5125342216\H,0,4.6070104266
 ,2.492018184,-3.091450343\H,0,4.0574663547,1.7228961722,-4.5722082013\
 O,0,5.9699965067,-0.0101826657,-3.8728955124\C,0,2.4541512735,2.524458
 7029,-3.3135269875\H,0,2.3059643946,2.6913617279,-2.2414163279\H,0,1.6
 681018667,1.8186450795,-3.6106693012\C,0,2.2729813774,3.8558378487,-4.
 0540362598\H,0,3.1837830522,4.4643479881,-3.9896418563\H,0,2.093148623
 1,3.6919928942,-5.1250236232\C,0,1.1506950467,4.7058011436,-3.45847584
 78\H,0,1.4001833809,5.0498536543,-2.4516042516\H,0,0.9207277421,5.5744
 976099,-4.0803231543\N,0,-0.1379684947,3.9157010743,-3.3034606347\H,0,
 -0.929529163,4.5425813359,-3.1324308809\H,0,-0.3574000996,3.3868646944
 ,-4.1537689229\H,0,-0.1129131547,3.2259415514,-2.4865813961\O,0,5.6118
 681705,-0.7875402133,-1.7840285248\H,0,6.5098199173,-1.138538007,-1.94
 38634096\\Version=ES64L-G16RevC.01\HF=-1396.6553709\RMSD=8.470e-09\Dip
 ole=-0.7229575,3.8215473,-1.5303782\Quadrupole=-4.9919723,12.926735,-7
 .9347628,-5.8802183,9.0246327,-35.1005475\PG=C01 [X(C19H38N5O5)]\\@
 The archive entry for this job was punched.


 TIME IS NATURE'S WAY OF MAKING SURE EVERYTHING
 DOESN'T HAPPEN AT ONCE.
                     - WOODY ALLEN
 Job cpu time:       0 days  0 hours  1 minutes 46.1 seconds.
 Elapsed time:       0 days  0 hours  0 minutes 27.0 seconds.
 File lengths (MBytes):  RWF=    256 Int=      0 D2E=      0 Chk=     40 Scr=     16
 Normal termination of Gaussian 16 at Fri May 27 02:06:05 2022.
