 Entering Gaussian System, Link 0=/opt/software/Gaussian/g16-AVX2-C.01/g16/g16
 Input=charge-conf-883.com
 Output=charge-conf-883.log
 Initial command:
 /opt/software/Gaussian/g16-AVX2-C.01/g16/l1.exe "/mnt/gs18/scratch/users/kengmith/Gau-25514.inp" -scrdir="/mnt/gs18/scratch/users/kengmith/"
 Entering Link 1 = /opt/software/Gaussian/g16-AVX2-C.01/g16/l1.exe PID=     25542.
  
 Copyright (c) 1988-2019, Gaussian, Inc.  All Rights Reserved.
  
 This is part of the Gaussian(R) 16 program.  It is based on
 the Gaussian(R) 09 system (copyright 2009, Gaussian, Inc.),
 the Gaussian(R) 03 system (copyright 2003, Gaussian, Inc.),
 the Gaussian(R) 98 system (copyright 1998, Gaussian, Inc.),
 the Gaussian(R) 94 system (copyright 1995, Gaussian, Inc.),
 the Gaussian 92(TM) system (copyright 1992, Gaussian, Inc.),
 the Gaussian 90(TM) system (copyright 1990, Gaussian, Inc.),
 the Gaussian 88(TM) system (copyright 1988, Gaussian, Inc.),
 the Gaussian 86(TM) system (copyright 1986, Carnegie Mellon
 University), and the Gaussian 82(TM) system (copyright 1983,
 Carnegie Mellon University). Gaussian is a federally registered
 trademark of Gaussian, Inc.
  
 This software contains proprietary and confidential information,
 including trade secrets, belonging to Gaussian, Inc.
  
 This software is provided under written license and may be
 used, copied, transmitted, or stored only in accord with that
 written license.
  
 The following legend is applicable only to US Government
 contracts under FAR:
  
                    RESTRICTED RIGHTS LEGEND
  
 Use, reproduction and disclosure by the US Government is
 subject to restrictions as set forth in subparagraphs (a)
 and (c) of the Commercial Computer Software - Restricted
 Rights clause in FAR 52.227-19.
  
 Gaussian, Inc.
 340 Quinnipiac St., Bldg. 40, Wallingford CT 06492
  
  
 ---------------------------------------------------------------
 Warning -- This program may not be used in any manner that
 competes with the business of Gaussian, Inc. or will provide
 assistance to any competitor of Gaussian, Inc.  The licensee
 of this program is prohibited from giving any competitor of
 Gaussian, Inc. access to this program.  By using this program,
 the user acknowledges that Gaussian, Inc. is engaged in the
 business of creating and licensing software in the field of
 computational chemistry and represents and warrants to the
 licensee that it is not a competitor of Gaussian, Inc. and that
 it will not use this program in any manner prohibited above.
 ---------------------------------------------------------------
  

 Cite this work as:
 Gaussian 16, Revision C.01,
 M. J. Frisch, G. W. Trucks, H. B. Schlegel, G. E. Scuseria, 
 M. A. Robb, J. R. Cheeseman, G. Scalmani, V. Barone, 
 G. A. Petersson, H. Nakatsuji, X. Li, M. Caricato, A. V. Marenich, 
 J. Bloino, B. G. Janesko, R. Gomperts, B. Mennucci, H. P. Hratchian, 
 J. V. Ortiz, A. F. Izmaylov, J. L. Sonnenberg, D. Williams-Young, 
 F. Ding, F. Lipparini, F. Egidi, J. Goings, B. Peng, A. Petrone, 
 T. Henderson, D. Ranasinghe, V. G. Zakrzewski, J. Gao, N. Rega, 
 G. Zheng, W. Liang, M. Hada, M. Ehara, K. Toyota, R. Fukuda, 
 J. Hasegawa, M. Ishida, T. Nakajima, Y. Honda, O. Kitao, H. Nakai, 
 T. Vreven, K. Throssell, J. A. Montgomery, Jr., J. E. Peralta, 
 F. Ogliaro, M. J. Bearpark, J. J. Heyd, E. N. Brothers, K. N. Kudin, 
 V. N. Staroverov, T. A. Keith, R. Kobayashi, J. Normand, 
 K. Raghavachari, A. P. Rendell, J. C. Burant, S. S. Iyengar, 
 J. Tomasi, M. Cossi, J. M. Millam, M. Klene, C. Adamo, R. Cammi, 
 J. W. Ochterski, R. L. Martin, K. Morokuma, O. Farkas, 
 J. B. Foresman, and D. J. Fox, Gaussian, Inc., Wallingford CT, 2019.
 
 ******************************************
 Gaussian 16:  ES64L-G16RevC.01  3-Jul-2019
                27-May-2022 
 ******************************************
 %mem=8gb
 %nproc=4
 Will use up to    4 processors via shared memory.
 %chk=conf-883.chk
 -------------------------------------------------------------------
 # B3LYP/6-31G* guess=read geom=check nosymm integral(ultrafinegrid)
 -------------------------------------------------------------------
 1/29=2,38=1,172=1/1;
 2/12=2,15=1,40=1/2;
 3/5=1,6=6,7=1,11=2,14=-4,25=1,30=1,74=-5,75=-5,116=-2/1,2,3;
 4/5=1/1;
 5/5=2,38=6/2;
 6/7=2,8=2,9=2,10=2,28=1/1;
 99/5=1,9=1/99;
 ------------------------------------------------------
 Candidate Structure: Conf:883 Charge calc in gas phase
 ------------------------------------------------------
 Structure from the checkpoint file:  "conf-883.chk"
 Charge =  1 Multiplicity = 1
 Redundant internal coordinates found in file.  (old form).
 N,0,-1.7094364919,-3.5175199775,-1.8891530718
 H,0,-1.9809135335,-4.4026545126,-1.4627343953
 H,0,-2.107618695,-3.5212903448,-2.8285839915
 C,0,-2.308870046,-2.4169119909,-1.1216829401
 H,0,-2.0014199666,-2.5197876774,-0.0746781636
 H,0,-3.4104783495,-2.4272959826,-1.1304859127
 C,0,-1.830288995,-1.0572564459,-1.6489708698
 O,0,-1.1376240306,-0.9469797942,-2.6645350483
 N,0,-2.2040485509,0.0191432328,-0.9154805472
 H,0,-2.8720634915,-0.1026113001,-0.1632027855
 C,0,-1.8606756814,1.3926001922,-1.31837142
 H,0,-2.0700723292,1.4990962157,-2.3850709278
 C,0,-0.3512617185,1.6675292562,-1.1734849555
 C,0,-2.714721637,2.3822041989,-0.4989822882
 H,0,-3.7704003202,2.1236335717,-0.6681441187
 H,0,-2.5111363971,2.2153540904,0.5688783311
 O,0,0.2241322339,2.4436971835,-1.9277619226
 C,0,-2.5146496031,3.878282209,-0.8193752514
 H,0,-1.4647214224,4.1313778059,-0.6229417513
 C,0,-2.810786477,4.2092653841,-2.2897323238
 H,0,-3.8257629041,3.8982462624,-2.5708538874
 H,0,-2.7402620802,5.2893342467,-2.4571628029
 H,0,-2.0969645705,3.7282686139,-2.9654867152
 C,0,-3.3903263616,4.7174197383,0.1237640512
 H,0,-4.4565436072,4.5161603427,-0.0413279621
 H,0,-3.1681838135,4.5084977187,1.1771211003
 H,0,-3.2260032053,5.7866253564,-0.0458387407
 N,0,0.2768129109,1.0475254723,-0.1307087703
 H,0,-0.202923767,0.2874494292,0.3324841716
 C,0,1.7300440896,1.1146706008,0.0195982067
 H,0,2.0203602474,2.1533166928,-0.1661740466
 C,0,2.3428750107,0.2037025309,-1.0576490076
 C,0,2.1737885549,0.7019703327,1.4387479437
 H,0,1.8400265908,-0.3346595052,1.5906364348
 O,0,2.2381022765,-1.0333276993,-0.9751960971
 C,0,3.7056742776,0.7250109274,1.5566097941
 H,0,4.1025055897,1.7298243425,1.3657604264
 H,0,4.0098998621,0.4375468239,2.5679658783
 H,0,4.1819554654,0.0281861712,0.8593131937
 C,0,1.5307108826,1.6007879642,2.5049517321
 H,0,1.8597725372,2.6408558253,2.3912063453
 H,0,1.8236709496,1.2677733648,3.5060135967
 H,0,0.4372713953,1.5913050195,2.4542175183
 N,0,2.959534817,0.8280025192,-2.0790804103
 H,0,2.8646596899,1.8329377922,-2.1642724548
 C,0,3.5271283614,0.0887176707,-3.1977746156
 H,0,3.9451225318,-0.8290361239,-2.7787675999
 C,0,4.6857765904,0.8281580309,-3.8533949963
 C,0,2.4616290751,-0.2701495174,-4.2780954631
 H,0,1.4992788875,-0.3561353735,-3.7650525437
 H,0,2.342528504,0.5806191574,-4.9593690396
 O,0,5.4593102725,0.297802356,-4.6154813137
 C,0,2.7944530119,-1.5248924685,-5.108882244
 H,0,3.7356779202,-1.3401589131,-5.6367949969
 H,0,2.0256752799,-1.6397335598,-5.8849846781
 C,0,2.9495271248,-2.8571410265,-4.3468775145
 H,0,3.4073846364,-3.5822980791,-5.0304753501
 H,0,3.6613277765,-2.756326368,-3.5181573252
 C,0,1.6785732313,-3.5355661944,-3.8291549459
 H,0,0.9631180228,-3.7133348092,-4.6378623106
 H,0,1.9296338923,-4.5014417153,-3.3827344506
 N,0,0.9514233533,-2.7503440252,-2.7740622683
 H,0,0.19861543,-3.29635133,-2.290872045
 H,0,1.5821293241,-2.307827766,-2.070396702
 H,0,0.3947169828,-1.9704244162,-3.1544674656
 O,0,4.7147937915,2.1409365773,-3.5406041605
 H,0,5.4580805738,2.5404668261,-4.0330659249
 Recover connectivity data from disk.
                           ----------------------------
                           !    Current Parameters    !
                           ! (Angstroms and Degrees)  !
 --------------------------                            --------------------------
 ! Name  Definition              Value                                          !
 --------------------------------------------------------------------------------
 ! R1    R(1,2)                  1.0193                                         !
 ! R2    R(1,3)                  1.0203                                         !
 ! R3    R(1,4)                  1.4696                                         !
 ! R4    R(4,5)                  1.0961                                         !
 ! R5    R(4,6)                  1.1017                                         !
 ! R6    R(4,7)                  1.5348                                         !
 ! R7    R(7,8)                  1.2342                                         !
 ! R8    R(7,9)                  1.3551                                         !
 ! R9    R(9,10)                 1.0134                                         !
 ! R10   R(9,11)                 1.4719                                         !
 ! R11   R(11,12)                1.0923                                         !
 ! R12   R(11,13)                1.5411                                         !
 ! R13   R(11,14)                1.5428                                         !
 ! R14   R(13,17)                1.2257                                         !
 ! R15   R(13,28)                1.3661                                         !
 ! R16   R(14,15)                1.1                                            !
 ! R17   R(14,16)                1.0998                                         !
 ! R18   R(14,18)                1.543                                          !
 ! R19   R(18,19)                1.0977                                         !
 ! R20   R(18,20)                1.536                                          !
 ! R21   R(18,24)                1.5364                                         !
 ! R22   R(20,21)                1.0982                                         !
 ! R23   R(20,22)                1.0952                                         !
 ! R24   R(20,23)                1.0943                                         !
 ! R25   R(24,25)                1.0975                                         !
 ! R26   R(24,26)                1.0966                                         !
 ! R27   R(24,27)                1.095                                          !
 ! R28   R(28,29)                1.0111                                         !
 ! R29   R(28,30)                1.4625                                         !
 ! R30   R(30,31)                1.0943                                         !
 ! R31   R(30,32)                1.5381                                         !
 ! R32   R(30,33)                1.5431                                         !
 ! R33   R(32,35)                1.2442                                         !
 ! R34   R(32,44)                1.3466                                         !
 ! R35   R(33,34)                1.0996                                         !
 ! R36   R(33,36)                1.5366                                         !
 ! R37   R(33,40)                1.5356                                         !
 ! R38   R(36,37)                1.0971                                         !
 ! R39   R(36,38)                1.0945                                         !
 ! R40   R(36,39)                1.0948                                         !
 ! R41   R(40,41)                1.0968                                         !
 ! R42   R(40,42)                1.0949                                         !
 ! R43   R(40,43)                1.0947                                         !
 ! R44   R(44,45)                1.013                                          !
 ! R45   R(44,46)                1.4561                                         !
 ! R46   R(46,47)                1.092                                          !
 ! R47   R(46,48)                1.5229                                         !
 ! R48   R(46,49)                1.5592                                         !
 ! R49   R(48,52)                1.2085                                         !
 ! R50   R(48,66)                1.3498                                         !
 ! R51   R(49,50)                1.0939                                         !
 ! R52   R(49,51)                1.0964                                         !
 ! R53   R(49,53)                1.5412                                         !
 ! R54   R(53,54)                1.0949                                         !
 ! R55   R(53,55)                1.0984                                         !
 ! R56   R(53,56)                1.5426                                         !
 ! R57   R(56,57)                1.0967                                         !
 ! R58   R(56,58)                1.0971                                         !
 ! R59   R(56,59)                1.5309                                         !
 ! R60   R(59,60)                1.0943                                         !
 ! R61   R(59,61)                1.0933                                         !
 ! R62   R(59,62)                1.5028                                         !
 ! R63   R(62,63)                1.048                                          !
 ! R64   R(62,64)                1.0434                                         !
 ! R65   R(62,65)                1.031                                          !
 ! R66   R(66,67)                0.977                                          !
 ! A1    A(2,1,3)              106.1422                                         !
 ! A2    A(2,1,4)              108.8585                                         !
 ! A3    A(3,1,4)              108.9301                                         !
 ! A4    A(1,4,5)              108.3099                                         !
 ! A5    A(1,4,6)              113.3677                                         !
 ! A6    A(1,4,7)              110.9066                                         !
 ! A7    A(5,4,6)              106.6924                                         !
 ! A8    A(5,4,7)              108.8962                                         !
 ! A9    A(6,4,7)              108.5053                                         !
 ! A10   A(4,7,8)              122.4677                                         !
 ! A11   A(4,7,9)              115.5758                                         !
 ! A12   A(8,7,9)              121.9513                                         !
 ! A13   A(7,9,10)             119.221                                          !
 ! A14   A(7,9,11)             121.9163                                         !
 ! A15   A(10,9,11)            117.9735                                         !
 ! A16   A(9,11,12)            108.2741                                         !
 ! A17   A(9,11,13)            111.6674                                         !
 ! A18   A(9,11,14)            108.9061                                         !
 ! A19   A(12,11,13)           105.2002                                         !
 ! A20   A(12,11,14)           110.4886                                         !
 ! A21   A(13,11,14)           112.2                                            !
 ! A22   A(11,13,17)           120.9903                                         !
 ! A23   A(11,13,28)           116.1745                                         !
 ! A24   A(17,13,28)           122.7709                                         !
 ! A25   A(11,14,15)           107.3872                                         !
 ! A26   A(11,14,16)           108.4151                                         !
 ! A27   A(11,14,18)           116.0958                                         !
 ! A28   A(15,14,16)           106.9364                                         !
 ! A29   A(15,14,18)           108.6888                                         !
 ! A30   A(16,14,18)           108.947                                          !
 ! A31   A(14,18,19)           108.0839                                         !
 ! A32   A(14,18,20)           112.5012                                         !
 ! A33   A(14,18,24)           109.1592                                         !
 ! A34   A(19,18,20)           107.8199                                         !
 ! A35   A(19,18,24)           108.021                                          !
 ! A36   A(20,18,24)           111.1041                                         !
 ! A37   A(18,20,21)           111.2371                                         !
 ! A38   A(18,20,22)           110.269                                          !
 ! A39   A(18,20,23)           111.7559                                         !
 ! A40   A(21,20,22)           107.4382                                         !
 ! A41   A(21,20,23)           108.6825                                         !
 ! A42   A(22,20,23)           107.2803                                         !
 ! A43   A(18,24,25)           111.1741                                         !
 ! A44   A(18,24,26)           111.7245                                         !
 ! A45   A(18,24,27)           110.6529                                         !
 ! A46   A(25,24,26)           107.839                                          !
 ! A47   A(25,24,27)           107.5506                                         !
 ! A48   A(26,24,27)           107.723                                          !
 ! A49   A(13,28,29)           118.2092                                         !
 ! A50   A(13,28,30)           120.9602                                         !
 ! A51   A(29,28,30)           117.314                                          !
 ! A52   A(28,30,31)           106.8418                                         !
 ! A53   A(28,30,32)           107.2609                                         !
 ! A54   A(28,30,33)           111.5907                                         !
 ! A55   A(31,30,32)           109.726                                          !
 ! A56   A(31,30,33)           109.4915                                         !
 ! A57   A(32,30,33)           111.785                                          !
 ! A58   A(30,32,35)           120.5891                                         !
 ! A59   A(30,32,44)           116.0474                                         !
 ! A60   A(35,32,44)           123.3513                                         !
 ! A61   A(30,33,34)           106.9709                                         !
 ! A62   A(30,33,36)           110.6841                                         !
 ! A63   A(30,33,40)           111.1964                                         !
 ! A64   A(34,33,36)           107.8273                                         !
 ! A65   A(34,33,40)           109.1946                                         !
 ! A66   A(36,33,40)           110.8212                                         !
 ! A67   A(33,36,37)           111.1619                                         !
 ! A68   A(33,36,38)           110.1228                                         !
 ! A69   A(33,36,39)           112.0431                                         !
 ! A70   A(37,36,38)           107.5027                                         !
 ! A71   A(37,36,39)           108.3485                                         !
 ! A72   A(38,36,39)           107.483                                          !
 ! A73   A(33,40,41)           110.9398                                         !
 ! A74   A(33,40,42)           110.1649                                         !
 ! A75   A(33,40,43)           112.3988                                         !
 ! A76   A(41,40,42)           107.6353                                         !
 ! A77   A(41,40,43)           107.6436                                         !
 ! A78   A(42,40,43)           107.8788                                         !
 ! A79   A(32,44,45)           118.7393                                         !
 ! A80   A(32,44,46)           121.7281                                         !
 ! A81   A(45,44,46)           118.3971                                         !
 ! A82   A(44,46,47)           106.3263                                         !
 ! A83   A(44,46,48)           112.3843                                         !
 ! A84   A(44,46,49)           112.507                                          !
 ! A85   A(47,46,48)           106.3816                                         !
 ! A86   A(47,46,49)           109.5106                                         !
 ! A87   A(48,46,49)           109.4746                                         !
 ! A88   A(46,48,52)           123.0525                                         !
 ! A89   A(46,48,66)           112.8814                                         !
 ! A90   A(52,48,66)           123.9994                                         !
 ! A91   A(46,49,50)           107.1156                                         !
 ! A92   A(46,49,51)           109.0357                                         !
 ! A93   A(46,49,53)           114.4117                                         !
 ! A94   A(50,49,51)           104.8827                                         !
 ! A95   A(50,49,53)           112.2583                                         !
 ! A96   A(51,49,53)           108.6773                                         !
 ! A97   A(49,53,54)           107.9504                                         !
 ! A98   A(49,53,55)           108.3514                                         !
 ! A99   A(49,53,56)           117.2933                                         !
 ! A100  A(54,53,55)           106.1787                                         !
 ! A101  A(54,53,56)           107.3064                                         !
 ! A102  A(55,53,56)           109.2134                                         !
 ! A103  A(53,56,57)           107.765                                          !
 ! A104  A(53,56,58)           111.039                                          !
 ! A105  A(53,56,59)           117.7961                                         !
 ! A106  A(57,56,58)           105.1136                                         !
 ! A107  A(57,56,59)           105.3295                                         !
 ! A108  A(58,56,59)           108.8996                                         !
 ! A109  A(56,59,60)           111.3988                                         !
 ! A110  A(56,59,61)           109.8136                                         !
 ! A111  A(56,59,62)           114.0526                                         !
 ! A112  A(60,59,61)           107.9621                                         !
 ! A113  A(60,59,62)           106.7009                                         !
 ! A114  A(61,59,62)           106.6211                                         !
 ! A115  A(59,62,63)           113.5179                                         !
 ! A116  A(59,62,64)           113.7393                                         !
 ! A117  A(59,62,65)           113.4209                                         !
 ! A118  A(63,62,64)           110.1342                                         !
 ! A119  A(63,62,65)           100.1581                                         !
 ! A120  A(64,62,65)           104.7379                                         !
 ! A121  A(48,66,67)           107.2923                                         !
 ! D1    D(2,1,4,5)             55.5698                                         !
 ! D2    D(2,1,4,6)            -62.6309                                         !
 ! D3    D(2,1,4,7)            175.0138                                         !
 ! D4    D(3,1,4,5)            170.8939                                         !
 ! D5    D(3,1,4,6)             52.6932                                         !
 ! D6    D(3,1,4,7)            -69.6621                                         !
 ! D7    D(1,4,7,8)              6.3721                                         !
 ! D8    D(1,4,7,9)           -172.8156                                         !
 ! D9    D(5,4,7,8)            125.464                                          !
 ! D10   D(5,4,7,9)            -53.7238                                         !
 ! D11   D(6,4,7,8)           -118.7687                                         !
 ! D12   D(6,4,7,9)             62.0435                                         !
 ! D13   D(4,7,9,10)            -8.9025                                         !
 ! D14   D(4,7,9,11)          -177.8874                                         !
 ! D15   D(8,7,9,10)           171.9051                                         !
 ! D16   D(8,7,9,11)             2.9203                                         !
 ! D17   D(7,9,11,12)           45.5879                                         !
 ! D18   D(7,9,11,13)          -69.772                                          !
 ! D19   D(7,9,11,14)          165.7686                                         !
 ! D20   D(10,9,11,12)        -123.5286                                         !
 ! D21   D(10,9,11,13)         121.1115                                         !
 ! D22   D(10,9,11,14)          -3.3479                                         !
 ! D23   D(9,11,13,17)         148.4179                                         !
 ! D24   D(9,11,13,28)         -34.4192                                         !
 ! D25   D(12,11,13,17)         31.187                                          !
 ! D26   D(12,11,13,28)       -151.6501                                         !
 ! D27   D(14,11,13,17)        -88.987                                          !
 ! D28   D(14,11,13,28)         88.1759                                         !
 ! D29   D(9,11,14,15)         -56.526                                          !
 ! D30   D(9,11,14,16)          58.6875                                         !
 ! D31   D(9,11,14,18)        -178.3464                                         !
 ! D32   D(12,11,14,15)         62.2773                                         !
 ! D33   D(12,11,14,16)        177.4907                                         !
 ! D34   D(12,11,14,18)        -59.5431                                         !
 ! D35   D(13,11,14,15)        179.329                                          !
 ! D36   D(13,11,14,16)        -65.4575                                         !
 ! D37   D(13,11,14,18)         57.5086                                         !
 ! D38   D(11,13,28,29)         14.9069                                         !
 ! D39   D(11,13,28,30)        173.1901                                         !
 ! D40   D(17,13,28,29)       -167.9856                                         !
 ! D41   D(17,13,28,30)         -9.7024                                         !
 ! D42   D(11,14,18,19)        -60.2913                                         !
 ! D43   D(11,14,18,20)         58.6374                                         !
 ! D44   D(11,14,18,24)       -177.548                                          !
 ! D45   D(15,14,18,19)        178.5807                                         !
 ! D46   D(15,14,18,20)        -62.4906                                         !
 ! D47   D(15,14,18,24)         61.324                                          !
 ! D48   D(16,14,18,19)         62.396                                          !
 ! D49   D(16,14,18,20)       -178.6753                                         !
 ! D50   D(16,14,18,24)        -54.8606                                         !
 ! D51   D(14,18,20,21)         56.1302                                         !
 ! D52   D(14,18,20,22)        175.2246                                         !
 ! D53   D(14,18,20,23)        -65.5453                                         !
 ! D54   D(19,18,20,21)        175.2132                                         !
 ! D55   D(19,18,20,22)        -65.6924                                         !
 ! D56   D(19,18,20,23)         53.5377                                         !
 ! D57   D(24,18,20,21)        -66.5978                                         !
 ! D58   D(24,18,20,22)         52.4966                                         !
 ! D59   D(24,18,20,23)        171.7267                                         !
 ! D60   D(14,18,24,25)        -63.6423                                         !
 ! D61   D(14,18,24,26)         56.887                                          !
 ! D62   D(14,18,24,27)        176.9122                                         !
 ! D63   D(19,18,24,25)        179.0613                                         !
 ! D64   D(19,18,24,26)        -60.4094                                         !
 ! D65   D(19,18,24,27)         59.6158                                         !
 ! D66   D(20,18,24,25)         60.994                                          !
 ! D67   D(20,18,24,26)       -178.4767                                         !
 ! D68   D(20,18,24,27)        -58.4516                                         !
 ! D69   D(13,28,30,31)         44.2992                                         !
 ! D70   D(13,28,30,32)        -73.3035                                         !
 ! D71   D(13,28,30,33)        163.9506                                         !
 ! D72   D(29,28,30,31)       -157.2309                                         !
 ! D73   D(29,28,30,32)         85.1664                                         !
 ! D74   D(29,28,30,33)        -37.5795                                         !
 ! D75   D(28,30,32,35)        -70.5671                                         !
 ! D76   D(28,30,32,44)        108.2061                                         !
 ! D77   D(31,30,32,35)        173.7291                                         !
 ! D78   D(31,30,32,44)         -7.4977                                         !
 ! D79   D(33,30,32,35)         52.0584                                         !
 ! D80   D(33,30,32,44)       -129.1684                                         !
 ! D81   D(28,30,33,34)         60.4878                                         !
 ! D82   D(28,30,33,36)        177.7047                                         !
 ! D83   D(28,30,33,40)        -58.6583                                         !
 ! D84   D(31,30,33,34)        178.5615                                         !
 ! D85   D(31,30,33,36)        -64.2215                                         !
 ! D86   D(31,30,33,40)         59.4154                                         !
 ! D87   D(32,30,33,34)        -59.6327                                         !
 ! D88   D(32,30,33,36)         57.5842                                         !
 ! D89   D(32,30,33,40)       -178.7788                                         !
 ! D90   D(30,32,44,45)         -9.4387                                         !
 ! D91   D(30,32,44,46)       -177.0592                                         !
 ! D92   D(35,32,44,45)        169.297                                          !
 ! D93   D(35,32,44,46)          1.6765                                         !
 ! D94   D(30,33,36,37)         60.5888                                         !
 ! D95   D(30,33,36,38)        179.6211                                         !
 ! D96   D(30,33,36,39)        -60.8053                                         !
 ! D97   D(34,33,36,37)        177.2779                                         !
 ! D98   D(34,33,36,38)        -63.6898                                         !
 ! D99   D(34,33,36,39)         55.8838                                         !
 ! D100  D(40,33,36,37)        -63.2639                                         !
 ! D101  D(40,33,36,38)         55.7684                                         !
 ! D102  D(40,33,36,39)        175.342                                          !
 ! D103  D(30,33,40,41)        -63.25                                           !
 ! D104  D(30,33,40,42)        177.6663                                         !
 ! D105  D(30,33,40,43)         57.3287                                         !
 ! D106  D(34,33,40,41)        178.9426                                         !
 ! D107  D(34,33,40,42)         59.8589                                         !
 ! D108  D(34,33,40,43)        -60.4786                                         !
 ! D109  D(36,33,40,41)         60.3087                                         !
 ! D110  D(36,33,40,42)        -58.775                                          !
 ! D111  D(36,33,40,43)       -179.1125                                         !
 ! D112  D(32,44,46,47)        -36.8462                                         !
 ! D113  D(32,44,46,48)       -152.8525                                         !
 ! D114  D(32,44,46,49)         83.027                                          !
 ! D115  D(45,44,46,47)        155.4925                                         !
 ! D116  D(45,44,46,48)         39.4861                                         !
 ! D117  D(45,44,46,49)        -84.6344                                         !
 ! D118  D(44,46,48,52)        165.1505                                         !
 ! D119  D(44,46,48,66)        -17.7133                                         !
 ! D120  D(47,46,48,52)         49.1774                                         !
 ! D121  D(47,46,48,66)       -133.6864                                         !
 ! D122  D(49,46,48,52)        -69.0642                                         !
 ! D123  D(49,46,48,66)        108.072                                          !
 ! D124  D(44,46,49,50)        -28.4926                                         !
 ! D125  D(44,46,49,51)         84.4952                                         !
 ! D126  D(44,46,49,53)       -153.5928                                         !
 ! D127  D(47,46,49,50)         89.5183                                         !
 ! D128  D(47,46,49,51)       -157.494                                          !
 ! D129  D(47,46,49,53)        -35.5819                                         !
 ! D130  D(48,46,49,50)       -154.2075                                         !
 ! D131  D(48,46,49,51)        -41.2197                                         !
 ! D132  D(48,46,49,53)         80.6923                                         !
 ! D133  D(46,48,66,67)       -177.4294                                         !
 ! D134  D(52,48,66,67)         -0.3248                                         !
 ! D135  D(46,49,53,54)        -61.0293                                         !
 ! D136  D(46,49,53,55)       -175.6146                                         !
 ! D137  D(46,49,53,56)         60.2385                                         !
 ! D138  D(50,49,53,54)        176.6286                                         !
 ! D139  D(50,49,53,55)         62.0433                                         !
 ! D140  D(50,49,53,56)        -62.1036                                         !
 ! D141  D(51,49,53,54)         61.0786                                         !
 ! D142  D(51,49,53,55)        -53.5067                                         !
 ! D143  D(51,49,53,56)       -177.6537                                         !
 ! D144  D(49,53,56,57)       -166.981                                          !
 ! D145  D(49,53,56,58)        -52.3621                                         !
 ! D146  D(49,53,56,59)         74.1562                                         !
 ! D147  D(54,53,56,57)        -45.3785                                         !
 ! D148  D(54,53,56,58)         69.2404                                         !
 ! D149  D(54,53,56,59)       -164.2412                                         !
 ! D150  D(55,53,56,57)         69.3078                                         !
 ! D151  D(55,53,56,58)       -176.0732                                         !
 ! D152  D(55,53,56,59)        -49.5549                                         !
 ! D153  D(53,56,59,60)         55.9949                                         !
 ! D154  D(53,56,59,61)        175.5494                                         !
 ! D155  D(53,56,59,62)        -64.8627                                         !
 ! D156  D(57,56,59,60)        -64.1468                                         !
 ! D157  D(57,56,59,61)         55.4077                                         !
 ! D158  D(57,56,59,62)        174.9956                                         !
 ! D159  D(58,56,59,60)       -176.4563                                         !
 ! D160  D(58,56,59,61)        -56.9018                                         !
 ! D161  D(58,56,59,62)         62.6861                                         !
 ! D162  D(56,59,62,63)       -168.5055                                         !
 ! D163  D(56,59,62,64)        -41.5286                                         !
 ! D164  D(56,59,62,65)         78.0337                                         !
 ! D165  D(60,59,62,63)         68.0548                                         !
 ! D166  D(60,59,62,64)       -164.9684                                         !
 ! D167  D(60,59,62,65)        -45.406                                          !
 ! D168  D(61,59,62,63)        -47.1321                                         !
 ! D169  D(61,59,62,64)         79.8447                                         !
 ! D170  D(61,59,62,65)       -160.593                                          !
 --------------------------------------------------------------------------------
 Symmetry turned off by external request.
 Stoichiometry    C19H38N5O5(1+)
 Framework group  C1[X(C19H38N5O5)]
 Deg. of freedom   195
 Full point group                 C1      NOp   1
                          Input orientation:                          
 ---------------------------------------------------------------------
 Center     Atomic      Atomic             Coordinates (Angstroms)
 Number     Number       Type             X           Y           Z
 ---------------------------------------------------------------------
      1          7           0       -1.709436   -3.517520   -1.889153
      2          1           0       -1.980914   -4.402655   -1.462734
      3          1           0       -2.107619   -3.521290   -2.828584
      4          6           0       -2.308870   -2.416912   -1.121683
      5          1           0       -2.001420   -2.519788   -0.074678
      6          1           0       -3.410478   -2.427296   -1.130486
      7          6           0       -1.830289   -1.057256   -1.648971
      8          8           0       -1.137624   -0.946980   -2.664535
      9          7           0       -2.204049    0.019143   -0.915481
     10          1           0       -2.872063   -0.102611   -0.163203
     11          6           0       -1.860676    1.392600   -1.318371
     12          1           0       -2.070072    1.499096   -2.385071
     13          6           0       -0.351262    1.667529   -1.173485
     14          6           0       -2.714722    2.382204   -0.498982
     15          1           0       -3.770400    2.123634   -0.668144
     16          1           0       -2.511136    2.215354    0.568878
     17          8           0        0.224132    2.443697   -1.927762
     18          6           0       -2.514650    3.878282   -0.819375
     19          1           0       -1.464721    4.131378   -0.622942
     20          6           0       -2.810786    4.209265   -2.289732
     21          1           0       -3.825763    3.898246   -2.570854
     22          1           0       -2.740262    5.289334   -2.457163
     23          1           0       -2.096965    3.728269   -2.965487
     24          6           0       -3.390326    4.717420    0.123764
     25          1           0       -4.456544    4.516160   -0.041328
     26          1           0       -3.168184    4.508498    1.177121
     27          1           0       -3.226003    5.786625   -0.045839
     28          7           0        0.276813    1.047525   -0.130709
     29          1           0       -0.202924    0.287449    0.332484
     30          6           0        1.730044    1.114671    0.019598
     31          1           0        2.020360    2.153317   -0.166174
     32          6           0        2.342875    0.203703   -1.057649
     33          6           0        2.173789    0.701970    1.438748
     34          1           0        1.840027   -0.334660    1.590636
     35          8           0        2.238102   -1.033328   -0.975196
     36          6           0        3.705674    0.725011    1.556610
     37          1           0        4.102506    1.729824    1.365760
     38          1           0        4.009900    0.437547    2.567966
     39          1           0        4.181955    0.028186    0.859313
     40          6           0        1.530711    1.600788    2.504952
     41          1           0        1.859773    2.640856    2.391206
     42          1           0        1.823671    1.267773    3.506014
     43          1           0        0.437271    1.591305    2.454218
     44          7           0        2.959535    0.828003   -2.079080
     45          1           0        2.864660    1.832938   -2.164272
     46          6           0        3.527128    0.088718   -3.197775
     47          1           0        3.945123   -0.829036   -2.778768
     48          6           0        4.685777    0.828158   -3.853395
     49          6           0        2.461629   -0.270150   -4.278095
     50          1           0        1.499279   -0.356135   -3.765053
     51          1           0        2.342529    0.580619   -4.959369
     52          8           0        5.459310    0.297802   -4.615481
     53          6           0        2.794453   -1.524892   -5.108882
     54          1           0        3.735678   -1.340159   -5.636795
     55          1           0        2.025675   -1.639734   -5.884985
     56          6           0        2.949527   -2.857141   -4.346878
     57          1           0        3.407385   -3.582298   -5.030475
     58          1           0        3.661328   -2.756326   -3.518157
     59          6           0        1.678573   -3.535566   -3.829155
     60          1           0        0.963118   -3.713335   -4.637862
     61          1           0        1.929634   -4.501442   -3.382734
     62          7           0        0.951423   -2.750344   -2.774062
     63          1           0        0.198615   -3.296351   -2.290872
     64          1           0        1.582129   -2.307828   -2.070397
     65          1           0        0.394717   -1.970424   -3.154467
     66          8           0        4.714794    2.140937   -3.540604
     67          1           0        5.458081    2.540467   -4.033066
 ---------------------------------------------------------------------
 Rotational constants (GHZ):           0.1783254           0.1124000           0.0950310
 Standard basis: 6-31G(d) (6D, 7F)
   511 basis functions,   964 primitive gaussians,   511 cartesian basis functions
   113 alpha electrons      113 beta electrons
       nuclear repulsion energy      3214.6134042377 Hartrees.
 NAtoms=   67 NActive=   67 NUniq=   67 SFac= 1.00D+00 NAtFMM=   60 NAOKFM=T Big=T
 Integral buffers will be    131072 words long.
 Raffenetti 2 integral format.
 Two-electron integral symmetry is turned off.
 One-electron integrals computed using PRISM.
 NBasis=   511 RedAO= T EigKep=  1.83D-03  NBF=   511
 NBsUse=   511 1.00D-06 EigRej= -1.00D+00 NBFU=   511
 Initial guess from the checkpoint file:  "conf-883.chk"
 B after Tr=     0.000000    0.000000    0.000000
         Rot=    1.000000    0.000000    0.000000    0.000000 Ang=   0.00 deg.
 Requested convergence on RMS density matrix=1.00D-08 within 128 cycles.
 Requested convergence on MAX density matrix=1.00D-06.
 Requested convergence on             energy=1.00D-06.
 No special actions if energy rises.
 SCF Done:  E(RB3LYP) =  -1396.68368942     A.U. after    3 cycles
            NFock=  3  Conv=0.70D-09     -V/T= 2.0095

 **********************************************************************

            Population analysis using the SCF Density.

 **********************************************************************

 Alpha  occ. eigenvalues --  -19.30053 -19.25570 -19.23943 -19.23649 -19.21832
 Alpha  occ. eigenvalues --  -14.53291 -14.49276 -14.47606 -14.47256 -14.46615
 Alpha  occ. eigenvalues --  -10.42503 -10.42417 -10.40227 -10.38999 -10.36139
 Alpha  occ. eigenvalues --  -10.36016 -10.34826 -10.34160 -10.33518 -10.30745
 Alpha  occ. eigenvalues --  -10.30178 -10.29367 -10.29237 -10.29057 -10.27278
 Alpha  occ. eigenvalues --  -10.26326 -10.26290 -10.24741 -10.24506  -1.20818
 Alpha  occ. eigenvalues --   -1.17186  -1.15131  -1.13617  -1.11818  -1.09016
 Alpha  occ. eigenvalues --   -1.05512  -1.04127  -1.03003  -1.02675  -0.91960
 Alpha  occ. eigenvalues --   -0.91058  -0.89841  -0.88067  -0.86010  -0.83187
 Alpha  occ. eigenvalues --   -0.81801  -0.79950  -0.77340  -0.76685  -0.75800
 Alpha  occ. eigenvalues --   -0.74645  -0.72563  -0.71794  -0.70724  -0.69860
 Alpha  occ. eigenvalues --   -0.68464  -0.67661  -0.66903  -0.66668  -0.65575
 Alpha  occ. eigenvalues --   -0.64645  -0.63980  -0.62232  -0.61526  -0.61130
 Alpha  occ. eigenvalues --   -0.60213  -0.59920  -0.58158  -0.57869  -0.57650
 Alpha  occ. eigenvalues --   -0.56951  -0.56445  -0.56144  -0.55782  -0.54603
 Alpha  occ. eigenvalues --   -0.54149  -0.53640  -0.53123  -0.52519  -0.52296
 Alpha  occ. eigenvalues --   -0.51605  -0.51239  -0.50661  -0.50451  -0.50235
 Alpha  occ. eigenvalues --   -0.50009  -0.49737  -0.48683  -0.48599  -0.47798
 Alpha  occ. eigenvalues --   -0.47205  -0.46929  -0.46585  -0.45747  -0.45387
 Alpha  occ. eigenvalues --   -0.44515  -0.44419  -0.44184  -0.43379  -0.42973
 Alpha  occ. eigenvalues --   -0.42444  -0.41928  -0.41448  -0.40859  -0.40527
 Alpha  occ. eigenvalues --   -0.40417  -0.39642  -0.39035  -0.38629  -0.38248
 Alpha  occ. eigenvalues --   -0.36518  -0.35411  -0.34596
 Alpha virt. eigenvalues --   -0.11395  -0.10029  -0.09016  -0.07990  -0.06529
 Alpha virt. eigenvalues --   -0.04727  -0.03213  -0.02407  -0.01236  -0.01012
 Alpha virt. eigenvalues --    0.00204   0.00419   0.00634   0.01082   0.01355
 Alpha virt. eigenvalues --    0.02033   0.02480   0.03014   0.03381   0.03564
 Alpha virt. eigenvalues --    0.03698   0.04257   0.04672   0.05448   0.05563
 Alpha virt. eigenvalues --    0.05816   0.06291   0.06880   0.06919   0.07223
 Alpha virt. eigenvalues --    0.07519   0.07853   0.08334   0.08410   0.08802
 Alpha virt. eigenvalues --    0.08938   0.09128   0.09626   0.09680   0.10204
 Alpha virt. eigenvalues --    0.10467   0.10826   0.10933   0.11147   0.12215
 Alpha virt. eigenvalues --    0.12233   0.12825   0.13878   0.14236   0.14398
 Alpha virt. eigenvalues --    0.14986   0.15274   0.15620   0.16084   0.16638
 Alpha virt. eigenvalues --    0.16998   0.17106   0.17270   0.17676   0.19139
 Alpha virt. eigenvalues --    0.19662   0.20362   0.21885   0.23814   0.25753
 Alpha virt. eigenvalues --    0.26112   0.26876   0.29497   0.30940   0.32680
 Alpha virt. eigenvalues --    0.36528   0.38113   0.38966   0.39182   0.39952
 Alpha virt. eigenvalues --    0.40403   0.40929   0.41366   0.42146   0.42681
 Alpha virt. eigenvalues --    0.42945   0.43300   0.43765   0.44159   0.44276
 Alpha virt. eigenvalues --    0.44720   0.45013   0.45647   0.46450   0.47679
 Alpha virt. eigenvalues --    0.48207   0.49047   0.49639   0.50473   0.50898
 Alpha virt. eigenvalues --    0.51870   0.52778   0.53186   0.53829   0.54581
 Alpha virt. eigenvalues --    0.55075   0.55680   0.56247   0.56479   0.56948
 Alpha virt. eigenvalues --    0.57519   0.58179   0.59140   0.59287   0.59855
 Alpha virt. eigenvalues --    0.60997   0.61435   0.61917   0.62793   0.63512
 Alpha virt. eigenvalues --    0.64051   0.64486   0.65247   0.66266   0.67120
 Alpha virt. eigenvalues --    0.67761   0.68117   0.68880   0.69444   0.69549
 Alpha virt. eigenvalues --    0.70292   0.70852   0.71298   0.71767   0.72412
 Alpha virt. eigenvalues --    0.72614   0.73265   0.74540   0.74667   0.75240
 Alpha virt. eigenvalues --    0.75501   0.76047   0.76446   0.76912   0.77045
 Alpha virt. eigenvalues --    0.77229   0.77865   0.78173   0.78655   0.79087
 Alpha virt. eigenvalues --    0.79683   0.79987   0.80344   0.80550   0.81006
 Alpha virt. eigenvalues --    0.81393   0.81755   0.82072   0.82770   0.83067
 Alpha virt. eigenvalues --    0.83517   0.83684   0.84143   0.84253   0.84648
 Alpha virt. eigenvalues --    0.85082   0.85396   0.85498   0.86058   0.86841
 Alpha virt. eigenvalues --    0.87545   0.87955   0.88196   0.89147   0.89551
 Alpha virt. eigenvalues --    0.89775   0.90340   0.90935   0.91410   0.92425
 Alpha virt. eigenvalues --    0.92987   0.93566   0.94253   0.94784   0.95378
 Alpha virt. eigenvalues --    0.95685   0.97337   0.97898   0.98894   0.99091
 Alpha virt. eigenvalues --    1.00518   1.01663   1.02468   1.03206   1.04462
 Alpha virt. eigenvalues --    1.06673   1.08324   1.08706   1.10347   1.11852
 Alpha virt. eigenvalues --    1.13496   1.14239   1.15550   1.17126   1.18626
 Alpha virt. eigenvalues --    1.20597   1.22517   1.22837   1.24164   1.25837
 Alpha virt. eigenvalues --    1.26349   1.27074   1.28822   1.30917   1.31334
 Alpha virt. eigenvalues --    1.32263   1.33498   1.34157   1.35079   1.35636
 Alpha virt. eigenvalues --    1.37163   1.37263   1.38185   1.39302   1.40507
 Alpha virt. eigenvalues --    1.42111   1.43437   1.43953   1.45371   1.46758
 Alpha virt. eigenvalues --    1.47849   1.49279   1.50520   1.51719   1.52819
 Alpha virt. eigenvalues --    1.54651   1.55541   1.55930   1.56952   1.57598
 Alpha virt. eigenvalues --    1.57743   1.59648   1.61335   1.61872   1.63575
 Alpha virt. eigenvalues --    1.64398   1.65292   1.65703   1.66581   1.66927
 Alpha virt. eigenvalues --    1.67656   1.69093   1.70056   1.70392   1.71008
 Alpha virt. eigenvalues --    1.71088   1.72109   1.72449   1.72671   1.73743
 Alpha virt. eigenvalues --    1.74474   1.75307   1.75767   1.77283   1.78210
 Alpha virt. eigenvalues --    1.78468   1.79307   1.80305   1.80678   1.81018
 Alpha virt. eigenvalues --    1.81440   1.82001   1.82751   1.82847   1.83783
 Alpha virt. eigenvalues --    1.84782   1.85191   1.85654   1.87595   1.87766
 Alpha virt. eigenvalues --    1.87987   1.88951   1.90126   1.91245   1.91430
 Alpha virt. eigenvalues --    1.91790   1.92591   1.94042   1.94898   1.94950
 Alpha virt. eigenvalues --    1.95413   1.96389   1.97573   1.99143   1.99479
 Alpha virt. eigenvalues --    2.00250   2.00801   2.01835   2.02661   2.03142
 Alpha virt. eigenvalues --    2.04106   2.06072   2.07379   2.09091   2.09415
 Alpha virt. eigenvalues --    2.10676   2.13141   2.13660   2.14167   2.15446
 Alpha virt. eigenvalues --    2.15718   2.16500   2.17671   2.17805   2.18904
 Alpha virt. eigenvalues --    2.19441   2.20516   2.22435   2.23149   2.23840
 Alpha virt. eigenvalues --    2.24458   2.26004   2.26706   2.27789   2.28429
 Alpha virt. eigenvalues --    2.30281   2.31038   2.32390   2.32988   2.33617
 Alpha virt. eigenvalues --    2.34919   2.35878   2.37047   2.37650   2.38461
 Alpha virt. eigenvalues --    2.39943   2.40277   2.42798   2.43477   2.44394
 Alpha virt. eigenvalues --    2.47640   2.48417   2.49173   2.50304   2.52049
 Alpha virt. eigenvalues --    2.53144   2.54761   2.54983   2.56888   2.58106
 Alpha virt. eigenvalues --    2.58713   2.59617   2.60083   2.62289   2.63457
 Alpha virt. eigenvalues --    2.64755   2.65123   2.65917   2.68549   2.71144
 Alpha virt. eigenvalues --    2.73423   2.75801   2.76393   2.79479   2.83218
 Alpha virt. eigenvalues --    2.87067   2.89468   2.91089   2.93518   2.95776
 Alpha virt. eigenvalues --    3.01973   3.03029   3.07124   3.08750   3.71378
 Alpha virt. eigenvalues --    3.78355   3.82378   3.89553   3.90617   3.95422
 Alpha virt. eigenvalues --    3.98288   4.02982   4.06635   4.08804   4.10153
 Alpha virt. eigenvalues --    4.10529   4.12050   4.18489   4.20546   4.20968
 Alpha virt. eigenvalues --    4.22162   4.22232   4.26772   4.29406   4.34829
 Alpha virt. eigenvalues --    4.37809   4.38144   4.40865   4.45103   4.54667
 Alpha virt. eigenvalues --    4.58051   4.59405   4.62392
          Condensed to atoms (all electrons):
 Mulliken charges:
               1
     1  N   -0.751859
     2  H    0.343039
     3  H    0.337591
     4  C   -0.250477
     5  H    0.192258
     6  H    0.189910
     7  C    0.628994
     8  O   -0.544260
     9  N   -0.638478
    10  H    0.347504
    11  C   -0.019321
    12  H    0.200967
    13  C    0.633116
    14  C   -0.305564
    15  H    0.152372
    16  H    0.140963
    17  O   -0.527730
    18  C   -0.079163
    19  H    0.152282
    20  C   -0.458666
    21  H    0.140180
    22  H    0.161216
    23  H    0.164175
    24  C   -0.447553
    25  H    0.147605
    26  H    0.144192
    27  H    0.162514
    28  N   -0.603910
    29  H    0.329571
    30  C   -0.029309
    31  H    0.172609
    32  C    0.647717
    33  C   -0.105040
    34  H    0.140452
    35  O   -0.598014
    36  C   -0.463973
    37  H    0.154639
    38  H    0.168924
    39  H    0.160639
    40  C   -0.447193
    41  H    0.158796
    42  H    0.166065
    43  H    0.141957
    44  N   -0.586454
    45  H    0.377152
    46  C   -0.055442
    47  H    0.198486
    48  C    0.594744
    49  C   -0.299807
    50  H    0.155595
    51  H    0.180159
    52  O   -0.441314
    53  C   -0.285394
    54  H    0.198751
    55  H    0.152955
    56  C   -0.294855
    57  H    0.186400
    58  H    0.171305
    59  C   -0.178213
    60  H    0.190035
    61  H    0.196571
    62  N   -0.815315
    63  H    0.417515
    64  H    0.431196
    65  H    0.431490
    66  O   -0.569057
    67  H    0.433761
 Sum of Mulliken charges =   1.00000
 Mulliken charges with hydrogens summed into heavy atoms:
               1
     1  N   -0.071229
     4  C    0.131690
     7  C    0.628994
     8  O   -0.544260
     9  N   -0.290975
    11  C    0.181646
    13  C    0.633116
    14  C   -0.012230
    17  O   -0.527730
    18  C    0.073119
    20  C    0.006905
    24  C    0.006758
    28  N   -0.274339
    30  C    0.143301
    32  C    0.647717
    33  C    0.035412
    35  O   -0.598014
    36  C    0.020229
    40  C    0.019625
    44  N   -0.209302
    46  C    0.143043
    48  C    0.594744
    49  C    0.035946
    52  O   -0.441314
    53  C    0.066312
    56  C    0.062850
    59  C    0.208393
    62  N    0.464887
    66  O   -0.135296
 Electronic spatial extent (au):  <R**2>=          16086.2229
 Charge=              1.0000 electrons
 Dipole moment (field-independent basis, Debye):
    X=             -0.7951    Y=             -6.8027    Z=             -7.6648  Tot=             10.2790
 Quadrupole moment (field-independent basis, Debye-Ang):
   XX=           -135.7499   YY=           -125.9779   ZZ=           -139.6846
   XY=             12.3141   XZ=             -9.5197   YZ=             23.5357
 Traceless Quadrupole moment (field-independent basis, Debye-Ang):
   XX=             -1.9458   YY=              7.8263   ZZ=             -5.8805
   XY=             12.3141   XZ=             -9.5197   YZ=             23.5357
 Octapole moment (field-independent basis, Debye-Ang**2):
  XXX=           -392.6512  YYY=           -303.3372  ZZZ=            757.3240  XYY=           -124.2508
  XXY=            -20.5645  XXZ=            243.2110  XZZ=            -72.4245  YZZ=           -138.4963
  YYZ=            165.4359  XYZ=            -22.9747
 Hexadecapole moment (field-independent basis, Debye-Ang**3):
 XXXX=          -7550.7043 YYYY=          -4786.9904 ZZZZ=          -6650.6490 XXXY=           1072.9508
 XXXZ=           1539.0055 YYYX=            700.0861 YYYZ=           -244.9171 ZZZX=           1357.9280
 ZZZY=           -299.4920 XXYY=          -1779.6484 XXZZ=          -2406.9477 YYZZ=          -1675.3965
 XXYZ=           -369.4712 YYXZ=            314.4906 ZZXY=            315.9807
 N-N= 3.214613404238D+03 E-N=-9.656591341660D+03  KE= 1.383531571071D+03
 Unable to Open any file for archive entry.
 1\1\GINC-SKL-147\SP\RB3LYP\6-31G(d)\C19H38N5O5(1+)\KENGMITH\27-May-202
 2\0\\# B3LYP/6-31G* guess=read geom=check nosymm integral(ultrafinegri
 d)\\Candidate Structure: Conf:883 Charge calc in gas phase\\1,1\N,0,-1
 .7094364919,-3.5175199775,-1.8891530718\H,0,-1.9809135335,-4.402654512
 6,-1.4627343953\H,0,-2.107618695,-3.5212903448,-2.8285839915\C,0,-2.30
 8870046,-2.4169119909,-1.1216829401\H,0,-2.0014199666,-2.5197876774,-0
 .0746781636\H,0,-3.4104783495,-2.4272959826,-1.1304859127\C,0,-1.83028
 8995,-1.0572564459,-1.6489708698\O,0,-1.1376240306,-0.9469797942,-2.66
 45350483\N,0,-2.2040485509,0.0191432328,-0.9154805472\H,0,-2.872063491
 5,-0.1026113001,-0.1632027855\C,0,-1.8606756814,1.3926001922,-1.318371
 42\H,0,-2.0700723292,1.4990962157,-2.3850709278\C,0,-0.3512617185,1.66
 75292562,-1.1734849555\C,0,-2.714721637,2.3822041989,-0.4989822882\H,0
 ,-3.7704003202,2.1236335717,-0.6681441187\H,0,-2.5111363971,2.21535409
 04,0.5688783311\O,0,0.2241322339,2.4436971835,-1.9277619226\C,0,-2.514
 6496031,3.878282209,-0.8193752514\H,0,-1.4647214224,4.1313778059,-0.62
 29417513\C,0,-2.810786477,4.2092653841,-2.2897323238\H,0,-3.8257629041
 ,3.8982462624,-2.5708538874\H,0,-2.7402620802,5.2893342467,-2.45716280
 29\H,0,-2.0969645705,3.7282686139,-2.9654867152\C,0,-3.3903263616,4.71
 74197383,0.1237640512\H,0,-4.4565436072,4.5161603427,-0.0413279621\H,0
 ,-3.1681838135,4.5084977187,1.1771211003\H,0,-3.2260032053,5.786625356
 4,-0.0458387407\N,0,0.2768129109,1.0475254723,-0.1307087703\H,0,-0.202
 923767,0.2874494292,0.3324841716\C,0,1.7300440896,1.1146706008,0.01959
 82067\H,0,2.0203602474,2.1533166928,-0.1661740466\C,0,2.3428750107,0.2
 037025309,-1.0576490076\C,0,2.1737885549,0.7019703327,1.4387479437\H,0
 ,1.8400265908,-0.3346595052,1.5906364348\O,0,2.2381022765,-1.033327699
 3,-0.9751960971\C,0,3.7056742776,0.7250109274,1.5566097941\H,0,4.10250
 55897,1.7298243425,1.3657604264\H,0,4.0098998621,0.4375468239,2.567965
 8783\H,0,4.1819554654,0.0281861712,0.8593131937\C,0,1.5307108826,1.600
 7879642,2.5049517321\H,0,1.8597725372,2.6408558253,2.3912063453\H,0,1.
 8236709496,1.2677733648,3.5060135967\H,0,0.4372713953,1.5913050195,2.4
 542175183\N,0,2.959534817,0.8280025192,-2.0790804103\H,0,2.8646596899,
 1.8329377922,-2.1642724548\C,0,3.5271283614,0.0887176707,-3.1977746156
 \H,0,3.9451225318,-0.8290361239,-2.7787675999\C,0,4.6857765904,0.82815
 80309,-3.8533949963\C,0,2.4616290751,-0.2701495174,-4.2780954631\H,0,1
 .4992788875,-0.3561353735,-3.7650525437\H,0,2.342528504,0.5806191574,-
 4.9593690396\O,0,5.4593102725,0.297802356,-4.6154813137\C,0,2.79445301
 19,-1.5248924685,-5.108882244\H,0,3.7356779202,-1.3401589131,-5.636794
 9969\H,0,2.0256752799,-1.6397335598,-5.8849846781\C,0,2.9495271248,-2.
 8571410265,-4.3468775145\H,0,3.4073846364,-3.5822980791,-5.0304753501\
 H,0,3.6613277765,-2.756326368,-3.5181573252\C,0,1.6785732313,-3.535566
 1944,-3.8291549459\H,0,0.9631180228,-3.7133348092,-4.6378623106\H,0,1.
 9296338923,-4.5014417153,-3.3827344506\N,0,0.9514233533,-2.7503440252,
 -2.7740622683\H,0,0.19861543,-3.29635133,-2.290872045\H,0,1.5821293241
 ,-2.307827766,-2.070396702\H,0,0.3947169828,-1.9704244162,-3.154467465
 6\O,0,4.7147937915,2.1409365773,-3.5406041605\H,0,5.4580805738,2.54046
 68261,-4.0330659249\\Version=ES64L-G16RevC.01\HF=-1396.6836894\RMSD=6.
 977e-10\Dipole=-1.7869583,-3.3164191,0.2458939\Quadrupole=-1.4466304,5
 .8186335,-4.372003,9.1552415,-7.0776615,17.4982034\PG=C01 [X(C19H38N5O
 5)]\\@
 The archive entry for this job was punched.


 THERE'S A SUCKER BORN EVERY MINUTE

              -- PHINEAS TAYLOR (P.T.) BARNUM
 Job cpu time:       0 days  0 hours  2 minutes 58.2 seconds.
 Elapsed time:       0 days  0 hours  0 minutes 45.2 seconds.
 File lengths (MBytes):  RWF=    256 Int=      0 D2E=      0 Chk=     40 Scr=     16
 Normal termination of Gaussian 16 at Fri May 27 02:25:06 2022.
