 Entering Gaussian System, Link 0=/opt/software/Gaussian/g16-AVX2-C.01/g16/g16
 Input=charge-conf-156.com
 Output=charge-conf-156.log
 Initial command:
 /opt/software/Gaussian/g16-AVX2-C.01/g16/l1.exe "/mnt/gs18/scratch/users/kengmith/Gau-92537.inp" -scrdir="/mnt/gs18/scratch/users/kengmith/"
 Entering Link 1 = /opt/software/Gaussian/g16-AVX2-C.01/g16/l1.exe PID=     92547.
  
 Copyright (c) 1988-2019, Gaussian, Inc.  All Rights Reserved.
  
 This is part of the Gaussian(R) 16 program.  It is based on
 the Gaussian(R) 09 system (copyright 2009, Gaussian, Inc.),
 the Gaussian(R) 03 system (copyright 2003, Gaussian, Inc.),
 the Gaussian(R) 98 system (copyright 1998, Gaussian, Inc.),
 the Gaussian(R) 94 system (copyright 1995, Gaussian, Inc.),
 the Gaussian 92(TM) system (copyright 1992, Gaussian, Inc.),
 the Gaussian 90(TM) system (copyright 1990, Gaussian, Inc.),
 the Gaussian 88(TM) system (copyright 1988, Gaussian, Inc.),
 the Gaussian 86(TM) system (copyright 1986, Carnegie Mellon
 University), and the Gaussian 82(TM) system (copyright 1983,
 Carnegie Mellon University). Gaussian is a federally registered
 trademark of Gaussian, Inc.
  
 This software contains proprietary and confidential information,
 including trade secrets, belonging to Gaussian, Inc.
  
 This software is provided under written license and may be
 used, copied, transmitted, or stored only in accord with that
 written license.
  
 The following legend is applicable only to US Government
 contracts under FAR:
  
                    RESTRICTED RIGHTS LEGEND
  
 Use, reproduction and disclosure by the US Government is
 subject to restrictions as set forth in subparagraphs (a)
 and (c) of the Commercial Computer Software - Restricted
 Rights clause in FAR 52.227-19.
  
 Gaussian, Inc.
 340 Quinnipiac St., Bldg. 40, Wallingford CT 06492
  
  
 ---------------------------------------------------------------
 Warning -- This program may not be used in any manner that
 competes with the business of Gaussian, Inc. or will provide
 assistance to any competitor of Gaussian, Inc.  The licensee
 of this program is prohibited from giving any competitor of
 Gaussian, Inc. access to this program.  By using this program,
 the user acknowledges that Gaussian, Inc. is engaged in the
 business of creating and licensing software in the field of
 computational chemistry and represents and warrants to the
 licensee that it is not a competitor of Gaussian, Inc. and that
 it will not use this program in any manner prohibited above.
 ---------------------------------------------------------------
  

 Cite this work as:
 Gaussian 16, Revision C.01,
 M. J. Frisch, G. W. Trucks, H. B. Schlegel, G. E. Scuseria, 
 M. A. Robb, J. R. Cheeseman, G. Scalmani, V. Barone, 
 G. A. Petersson, H. Nakatsuji, X. Li, M. Caricato, A. V. Marenich, 
 J. Bloino, B. G. Janesko, R. Gomperts, B. Mennucci, H. P. Hratchian, 
 J. V. Ortiz, A. F. Izmaylov, J. L. Sonnenberg, D. Williams-Young, 
 F. Ding, F. Lipparini, F. Egidi, J. Goings, B. Peng, A. Petrone, 
 T. Henderson, D. Ranasinghe, V. G. Zakrzewski, J. Gao, N. Rega, 
 G. Zheng, W. Liang, M. Hada, M. Ehara, K. Toyota, R. Fukuda, 
 J. Hasegawa, M. Ishida, T. Nakajima, Y. Honda, O. Kitao, H. Nakai, 
 T. Vreven, K. Throssell, J. A. Montgomery, Jr., J. E. Peralta, 
 F. Ogliaro, M. J. Bearpark, J. J. Heyd, E. N. Brothers, K. N. Kudin, 
 V. N. Staroverov, T. A. Keith, R. Kobayashi, J. Normand, 
 K. Raghavachari, A. P. Rendell, J. C. Burant, S. S. Iyengar, 
 J. Tomasi, M. Cossi, J. M. Millam, M. Klene, C. Adamo, R. Cammi, 
 J. W. Ochterski, R. L. Martin, K. Morokuma, O. Farkas, 
 J. B. Foresman, and D. J. Fox, Gaussian, Inc., Wallingford CT, 2019.
 
 ******************************************
 Gaussian 16:  ES64L-G16RevC.01  3-Jul-2019
                 6-Jun-2022 
 ******************************************
 %mem=8gb
 %nproc=4
 Will use up to    4 processors via shared memory.
 %chk=conf-156.chk
 ----------------------------------------------------------------------
 # B3LYP/6-31G* empiricaldispersion=gd3 guess=read geom=check nosymm in
 tegral(ultrafinegrid)
 ----------------------------------------------------------------------
 1/29=2,38=1,172=1/1;
 2/12=2,15=1,40=1/2;
 3/5=1,6=6,7=1,11=2,14=-4,25=1,30=1,74=-5,75=-5,116=-2,124=31/1,2,3;
 4/5=1/1;
 5/5=2,38=6/2;
 6/7=2,8=2,9=2,10=2,28=1/1;
 99/5=1,9=1/99;
 ------------------------------------------------------
 Candidate Structure: Conf:156 Charge calc in gas phase
 ------------------------------------------------------
 Structure from the checkpoint file:  "conf-156.chk"
 Charge =  1 Multiplicity = 1
 Redundant internal coordinates found in file.  (old form).
 N,0,-7.5019686803,-0.4383136655,3.8086098621
 H,0,-7.8442759368,0.2523858658,3.1383398962
 H,0,-7.5257090438,0.0561340832,4.7000125849
 C,0,-6.1092537961,-0.7245149654,3.4774587975
 H,0,-5.6454749799,-1.2199331047,4.337850169
 C,0,-5.3045534479,0.5648649703,3.1726088232
 C,0,-6.0626218338,-1.7118959631,2.2872644199
 H,0,-6.9856453057,-2.3011672092,2.3264446864
 H,0,-6.0737752172,-1.173099328,1.3296075775
 O,0,-5.8739667063,1.6463356187,3.0260406169
 C,0,-4.8549999466,-2.645013906,2.2984256567
 N,0,-4.9832406732,-3.7634416375,1.5362083998
 H,0,-4.2286070645,-4.4359390961,1.5495968601
 H,0,-5.8647108976,-4.0396255601,1.1301776939
 O,0,-3.8220451244,-2.4139823606,2.9278054969
 N,0,-3.9582431627,0.4041339985,3.0872226802
 H,0,-3.5845757857,-0.546514399,3.1259366439
 C,0,-3.0707803559,1.5071086109,2.7804446109
 H,0,-3.699999737,2.3988276268,2.7187191089
 C,0,-2.4134203264,1.2469802028,1.4275750592
 C,0,-1.9881731567,1.7140887518,3.8748812427
 H,0,-1.3944862156,0.7913806274,3.9210013157
 O,0,-1.8687083661,0.159044865,1.1730446474
 C,0,-2.6342330437,1.9133909667,5.2624707738
 H,0,-1.8181832689,2.0102805306,5.9906269056
 H,0,-3.1775063405,0.999520357,5.5295985462
 C,0,-1.0330549645,2.857293622,3.4967950669
 H,0,-1.5735626079,3.7862276061,3.2768651771
 H,0,-0.3447832938,3.0614274616,4.3233146985
 H,0,-0.4219035338,2.595531162,2.628005845
 C,0,-3.5812281594,3.1144450593,5.3881756064
 H,0,-3.9282350464,3.2149992846,6.4223817104
 H,0,-3.0859424882,4.0548221287,5.1190381233
 H,0,-4.4678012429,2.9994079541,4.7551322863
 N,0,-2.4347775579,2.2709233737,0.5416442375
 H,0,-2.846411674,3.1486509603,0.831196553
 C,0,-1.7663501824,2.2365074094,-0.7659763778
 H,0,-1.9653811827,1.2500278337,-1.1988568419
 C,0,-0.2448685712,2.3772640835,-0.5392526908
 C,0,-2.3010388925,3.3354311279,-1.674822703
 H,0,-1.8234227759,3.2730761648,-2.6569330699
 H,0,-3.3822044145,3.2304937568,-1.8029540727
 H,0,-2.0748330402,4.3225712288,-1.2603254997
 O,0,0.3558509111,3.4487751375,-0.7220356681
 N,0,0.3423064411,1.2502416226,-0.0943838586
 H,0,-0.2983628453,0.4874584882,0.1228879139
 C,0,1.6835240625,1.1931975667,0.4963339367
 H,0,1.8512903066,2.1265240604,1.0482866471
 C,0,2.6897001048,1.0965672197,-0.66404777
 C,0,1.7529163402,0.0174925667,1.4944310271
 H,0,1.6107690468,-0.916241894,0.9300818536
 O,0,3.2422252765,0.0424278988,-0.9971420938
 C,0,3.0974734677,-0.0237552478,2.2087151766
 H,0,3.913470556,-0.1695072211,1.4965584079
 H,0,3.0975626942,-0.8484067932,2.9261963219
 H,0,3.2574737268,0.9076426078,2.7636908858
 O,0,0.7522963388,0.1734353833,2.4923682134
 H,0,-0.1186584894,-0.0969838403,2.1484145134
 N,0,2.858313076,2.2699554813,-1.3225476335
 H,0,2.2409242242,3.0224738914,-1.0189728994
 C,0,3.3025840939,2.3236442981,-2.7167281032
 H,0,2.9503652854,1.4116622689,-3.2168984228
 C,0,4.8318613381,2.3444828368,-2.8181980519
 C,0,2.6675345485,3.5347988907,-3.4153925791
 H,0,3.0544718585,3.5803302023,-4.4366966011
 H,0,2.9851398268,4.4593812095,-2.9123059794
 O,0,5.4702933509,3.2771329947,-3.2953768226
 O,0,1.2601993835,3.4116374948,-3.4936770511
 H,0,0.8723822533,3.6576020925,-2.6339747162
 N,0,5.4394331536,1.1865022464,-2.4053174587
 H,0,4.8680938736,0.5065985907,-1.8961115751
 C,0,6.8850013835,1.1307081658,-2.392523629
 H,0,7.3264976995,1.9028743728,-1.7535321731
 H,0,7.1981782924,0.1515992736,-2.0156898262
 C,0,7.4947570521,1.3583190824,-3.7834851199
 O,0,8.6415551059,1.8263968728,-3.8721957134
 N,0,6.7058105522,0.9644470578,-4.8192781907
 H,0,5.791258603,0.6511725438,-4.5077514893
 C,0,6.708191353,1.5370599492,-6.1727845389
 H,0,7.0561654723,2.5760701412,-6.0846167402
 C,0,5.295983318,1.6413817969,-6.7505478724
 C,0,7.6394733905,0.8087189849,-7.1802240025
 H,0,7.2636569876,-0.1980326245,-7.3936344598
 H,0,7.6314936399,1.375207674,-8.1159205531
 O,0,5.0861997641,1.9375189054,-7.9002550658
 C,0,9.0044610154,0.7835928396,-6.5092260741
 H,0,9.1171232068,1.789558512,-6.1014052698
 H,0,8.9090059917,0.1159696898,-5.6448576956
 C,0,10.3238789779,0.4501955221,-7.1978132753
 H,0,10.6055225754,1.2177857073,-7.9287254951
 H,0,10.3067259533,-0.5089777283,-7.727398376
 C,0,11.3851096255,0.3380847161,-6.0875125439
 H,0,11.2665570123,-0.5931524837,-5.5279620393
 H,0,12.4109309499,0.401711367,-6.4570995383
 N,0,11.2283816382,1.4475480138,-5.038660258
 H,0,11.9209188755,1.3417640799,-4.2903521485
 H,0,10.2707380117,1.4748820693,-4.5934648287
 H,0,11.3739032497,2.3735226556,-5.4559029928
 O,0,4.3183973385,1.381439806,-5.8490976687
 H,0,3.4626750311,1.4878525764,-6.3081662387
 Recover connectivity data from disk.
                           ----------------------------
                           !    Current Parameters    !
                           ! (Angstroms and Degrees)  !
 --------------------------                            --------------------------
 ! Name  Definition              Value                                          !
 --------------------------------------------------------------------------------
 ! R1    R(1,2)                  1.0215                                         !
 ! R2    R(1,3)                  1.0196                                         !
 ! R3    R(1,4)                  1.4599                                         !
 ! R4    R(4,5)                  1.0958                                         !
 ! R5    R(4,6)                  1.5502                                         !
 ! R6    R(4,7)                  1.5471                                         !
 ! R7    R(6,10)                 1.231                                          !
 ! R8    R(6,16)                 1.3586                                         !
 ! R9    R(7,8)                  1.0958                                         !
 ! R10   R(7,9)                  1.0989                                         !
 ! R11   R(7,11)                 1.5262                                         !
 ! R12   R(11,12)                1.3595                                         !
 ! R13   R(11,15)                1.2315                                         !
 ! R14   R(12,13)                1.0109                                         !
 ! R15   R(12,14)                1.009                                          !
 ! R16   R(16,17)                1.0222                                         !
 ! R17   R(16,18)                1.4485                                         !
 ! R18   R(18,19)                1.0931                                         !
 ! R19   R(18,20)                1.5264                                         !
 ! R20   R(18,21)                1.5533                                         !
 ! R21   R(20,23)                1.243                                          !
 ! R22   R(20,35)                1.3542                                         !
 ! R23   R(21,22)                1.0982                                         !
 ! R24   R(21,24)                1.5435                                         !
 ! R25   R(21,27)                1.5369                                         !
 ! R26   R(24,25)                1.098                                          !
 ! R27   R(24,26)                1.0962                                         !
 ! R28   R(24,31)                1.5346                                         !
 ! R29   R(27,28)                1.097                                          !
 ! R30   R(27,29)                1.0948                                         !
 ! R31   R(27,30)                1.094                                          !
 ! R32   R(31,32)                1.0955                                         !
 ! R33   R(31,33)                1.0964                                         !
 ! R34   R(31,34)                1.0954                                         !
 ! R35   R(35,36)                1.0118                                         !
 ! R36   R(35,37)                1.469                                          !
 ! R37   R(37,38)                1.0955                                         !
 ! R38   R(37,39)                1.5447                                         !
 ! R39   R(37,40)                1.523                                          !
 ! R40   R(39,44)                1.2419                                         !
 ! R41   R(39,45)                1.3464                                         !
 ! R42   R(40,41)                1.0939                                         !
 ! R43   R(40,42)                1.0938                                         !
 ! R44   R(40,43)                1.0943                                         !
 ! R45   R(45,46)                1.0196                                         !
 ! R46   R(45,47)                1.4667                                         !
 ! R47   R(47,48)                1.0972                                         !
 ! R48   R(47,49)                1.5389                                         !
 ! R49   R(47,50)                1.5438                                         !
 ! R50   R(49,52)                1.2359                                         !
 ! R51   R(49,59)                1.3561                                         !
 ! R52   R(50,51)                1.1003                                         !
 ! R53   R(50,53)                1.5231                                         !
 ! R54   R(50,57)                1.4218                                         !
 ! R55   R(53,54)                1.0928                                         !
 ! R56   R(53,55)                1.0931                                         !
 ! R57   R(53,56)                1.0959                                         !
 ! R58   R(57,58)                0.9747                                         !
 ! R59   R(59,60)                1.0196                                         !
 ! R60   R(59,61)                1.4642                                         !
 ! R61   R(61,62)                1.0982                                         !
 ! R62   R(61,63)                1.5328                                         !
 ! R63   R(61,64)                1.5357                                         !
 ! R64   R(63,67)                1.2268                                         !
 ! R65   R(63,70)                1.3713                                         !
 ! R66   R(64,65)                1.0931                                         !
 ! R67   R(64,66)                1.0995                                         !
 ! R68   R(64,68)                1.4149                                         !
 ! R69   R(68,69)                0.9747                                         !
 ! R70   R(70,71)                1.0237                                         !
 ! R71   R(70,72)                1.4467                                         !
 ! R72   R(72,73)                1.0952                                         !
 ! R73   R(72,74)                1.0949                                         !
 ! R74   R(72,75)                1.5357                                         !
 ! R75   R(75,76)                1.2418                                         !
 ! R76   R(75,77)                1.3603                                         !
 ! R77   R(77,78)                1.0157                                         !
 ! R78   R(77,79)                1.4696                                         !
 ! R79   R(79,80)                1.0993                                         !
 ! R80   R(79,81)                1.5294                                         !
 ! R81   R(79,82)                1.5533                                         !
 ! R82   R(81,85)                1.2056                                         !
 ! R83   R(81,99)                1.3549                                         !
 ! R84   R(82,83)                1.0956                                         !
 ! R85   R(82,84)                1.0938                                         !
 ! R86   R(82,86)                1.5212                                         !
 ! R87   R(86,87)                1.0913                                         !
 ! R88   R(86,88)                1.0963                                         !
 ! R89   R(86,89)                1.5252                                         !
 ! R90   R(89,90)                1.0967                                         !
 ! R91   R(89,91)                1.0958                                         !
 ! R92   R(89,92)                1.54                                           !
 ! R93   R(92,93)                1.0929                                         !
 ! R94   R(92,94)                1.0922                                         !
 ! R95   R(92,95)                1.5348                                         !
 ! R96   R(95,96)                1.0251                                         !
 ! R97   R(95,97)                1.0564                                         !
 ! R98   R(95,98)                1.026                                          !
 ! R99   R(99,100)               0.9769                                         !
 ! A1    A(2,1,3)              103.7654                                         !
 ! A2    A(2,1,4)              107.6619                                         !
 ! A3    A(3,1,4)              108.3964                                         !
 ! A4    A(1,4,5)              108.3179                                         !
 ! A5    A(1,4,6)              112.1339                                         !
 ! A6    A(1,4,7)              109.1699                                         !
 ! A7    A(5,4,6)              108.1046                                         !
 ! A8    A(5,4,7)              107.6216                                         !
 ! A9    A(6,4,7)              111.3401                                         !
 ! A10   A(4,6,10)             120.9337                                         !
 ! A11   A(4,6,16)             115.365                                          !
 ! A12   A(10,6,16)            123.7011                                         !
 ! A13   A(4,7,8)              106.876                                          !
 ! A14   A(4,7,9)              110.9282                                         !
 ! A15   A(4,7,11)             114.1059                                         !
 ! A16   A(8,7,9)              106.6356                                         !
 ! A17   A(8,7,11)             109.7227                                         !
 ! A18   A(9,7,11)             108.3119                                         !
 ! A19   A(7,11,12)            115.103                                          !
 ! A20   A(7,11,15)            123.5566                                         !
 ! A21   A(12,11,15)           121.3323                                         !
 ! A22   A(11,12,13)           117.9977                                         !
 ! A23   A(11,12,14)           122.2208                                         !
 ! A24   A(13,12,14)           118.3838                                         !
 ! A25   A(6,16,17)            118.0286                                         !
 ! A26   A(6,16,18)            122.03                                           !
 ! A27   A(17,16,18)           119.486                                          !
 ! A28   A(16,18,19)           106.2872                                         !
 ! A29   A(16,18,20)           108.7708                                         !
 ! A30   A(16,18,21)           112.2876                                         !
 ! A31   A(19,18,20)           109.6858                                         !
 ! A32   A(19,18,21)           109.4074                                         !
 ! A33   A(20,18,21)           110.3058                                         !
 ! A34   A(18,20,23)           121.2888                                         !
 ! A35   A(18,20,35)           116.3708                                         !
 ! A36   A(23,20,35)           122.3267                                         !
 ! A37   A(18,21,22)           107.1232                                         !
 ! A38   A(18,21,24)           111.0319                                         !
 ! A39   A(18,21,27)           111.0342                                         !
 ! A40   A(22,21,24)           107.2783                                         !
 ! A41   A(22,21,27)           107.4185                                         !
 ! A42   A(24,21,27)           112.6572                                         !
 ! A43   A(21,24,25)           107.2467                                         !
 ! A44   A(21,24,26)           108.5937                                         !
 ! A45   A(21,24,31)           115.6562                                         !
 ! A46   A(25,24,26)           106.2783                                         !
 ! A47   A(25,24,31)           109.5877                                         !
 ! A48   A(26,24,31)           109.0668                                         !
 ! A49   A(21,27,28)           111.9001                                         !
 ! A50   A(21,27,29)           110.1007                                         !
 ! A51   A(21,27,30)           111.3801                                         !
 ! A52   A(28,27,29)           107.6514                                         !
 ! A53   A(28,27,30)           108.5813                                         !
 ! A54   A(29,27,30)           107.0351                                         !
 ! A55   A(24,31,32)           110.1592                                         !
 ! A56   A(24,31,33)           111.8635                                         !
 ! A57   A(24,31,34)           111.7093                                         !
 ! A58   A(32,31,33)           107.2241                                         !
 ! A59   A(32,31,34)           107.3877                                         !
 ! A60   A(33,31,34)           108.2899                                         !
 ! A61   A(20,35,36)           118.369                                          !
 ! A62   A(20,35,37)           123.8813                                         !
 ! A63   A(36,35,37)           117.4001                                         !
 ! A64   A(35,37,38)           106.868                                          !
 ! A65   A(35,37,39)           108.3852                                         !
 ! A66   A(35,37,40)           110.7657                                         !
 ! A67   A(38,37,39)           108.6023                                         !
 ! A68   A(38,37,40)           110.497                                          !
 ! A69   A(39,37,40)           111.5699                                         !
 ! A70   A(37,39,44)           122.2381                                         !
 ! A71   A(37,39,45)           113.6885                                         !
 ! A72   A(44,39,45)           124.0469                                         !
 ! A73   A(37,40,41)           109.9596                                         !
 ! A74   A(37,40,42)           110.3472                                         !
 ! A75   A(37,40,43)           110.6279                                         !
 ! A76   A(41,40,42)           108.7204                                         !
 ! A77   A(41,40,43)           107.5329                                         !
 ! A78   A(42,40,43)           109.5882                                         !
 ! A79   A(39,45,46)           114.9996                                         !
 ! A80   A(39,45,47)           124.3631                                         !
 ! A81   A(46,45,47)           117.3682                                         !
 ! A82   A(45,47,48)           108.02                                           !
 ! A83   A(45,47,49)           107.2567                                         !
 ! A84   A(45,47,50)           109.337                                          !
 ! A85   A(48,47,49)           109.4361                                         !
 ! A86   A(48,47,50)           108.4036                                         !
 ! A87   A(49,47,50)           114.2231                                         !
 ! A88   A(47,49,52)           123.3042                                         !
 ! A89   A(47,49,59)           113.1489                                         !
 ! A90   A(52,49,59)           123.475                                          !
 ! A91   A(47,50,51)           107.9919                                         !
 ! A92   A(47,50,53)           111.3159                                         !
 ! A93   A(47,50,57)           109.7933                                         !
 ! A94   A(51,50,53)           109.3672                                         !
 ! A95   A(51,50,57)           111.234                                          !
 ! A96   A(53,50,57)           107.1631                                         !
 ! A97   A(50,53,54)           110.9263                                         !
 ! A98   A(50,53,55)           109.1676                                         !
 ! A99   A(50,53,56)           110.0811                                         !
 ! A100  A(54,53,55)           109.0906                                         !
 ! A101  A(54,53,56)           109.532                                          !
 ! A102  A(55,53,56)           107.9844                                         !
 ! A103  A(50,57,58)           110.5342                                         !
 ! A104  A(49,59,60)           114.756                                          !
 ! A105  A(49,59,61)           122.1284                                         !
 ! A106  A(60,59,61)           116.1134                                         !
 ! A107  A(59,61,62)           107.8127                                         !
 ! A108  A(59,61,63)           111.4846                                         !
 ! A109  A(59,61,64)           109.6719                                         !
 ! A110  A(62,61,63)           107.5263                                         !
 ! A111  A(62,61,64)           108.3681                                         !
 ! A112  A(63,61,64)           111.8232                                         !
 ! A113  A(61,63,67)           123.7301                                         !
 ! A114  A(61,63,70)           114.2444                                         !
 ! A115  A(67,63,70)           121.903                                          !
 ! A116  A(61,64,65)           108.1522                                         !
 ! A117  A(61,64,66)           109.6088                                         !
 ! A118  A(61,64,68)           111.5827                                         !
 ! A119  A(65,64,66)           106.8722                                         !
 ! A120  A(65,64,68)           107.6996                                         !
 ! A121  A(66,64,68)           112.6966                                         !
 ! A122  A(64,68,69)           108.9657                                         !
 ! A123  A(63,70,71)           117.6015                                         !
 ! A124  A(63,70,72)           118.5507                                         !
 ! A125  A(71,70,72)           121.8472                                         !
 ! A126  A(70,72,73)           112.3815                                         !
 ! A127  A(70,72,74)           108.8656                                         !
 ! A128  A(70,72,75)           112.5206                                         !
 ! A129  A(73,72,74)           108.3234                                         !
 ! A130  A(73,72,75)           105.3016                                         !
 ! A131  A(74,72,75)           109.312                                          !
 ! A132  A(72,75,76)           119.1594                                         !
 ! A133  A(72,75,77)           114.6124                                         !
 ! A134  A(76,75,77)           126.1813                                         !
 ! A135  A(75,77,78)           112.2094                                         !
 ! A136  A(75,77,79)           125.9806                                         !
 ! A137  A(78,77,79)           113.8356                                         !
 ! A138  A(77,79,80)           107.1522                                         !
 ! A139  A(77,79,81)           111.9008                                         !
 ! A140  A(77,79,82)           114.5573                                         !
 ! A141  A(80,79,81)           104.9587                                         !
 ! A142  A(80,79,82)           107.784                                          !
 ! A143  A(81,79,82)           109.9125                                         !
 ! A144  A(79,81,85)           122.5258                                         !
 ! A145  A(79,81,99)           113.6905                                         !
 ! A146  A(85,81,99)           123.7817                                         !
 ! A147  A(79,82,83)           110.5824                                         !
 ! A148  A(79,82,84)           107.9146                                         !
 ! A149  A(79,82,86)           105.0488                                         !
 ! A150  A(83,82,84)           107.8642                                         !
 ! A151  A(83,82,86)           112.2434                                         !
 ! A152  A(84,82,86)           113.1053                                         !
 ! A153  A(82,86,87)           104.019                                          !
 ! A154  A(82,86,88)           106.2422                                         !
 ! A155  A(82,86,89)           125.501                                          !
 ! A156  A(87,86,88)           106.0032                                         !
 ! A157  A(87,86,89)           106.3144                                         !
 ! A158  A(88,86,89)           107.347                                          !
 ! A159  A(86,89,90)           111.7195                                         !
 ! A160  A(86,89,91)           113.328                                          !
 ! A161  A(86,89,92)           106.6518                                         !
 ! A162  A(90,89,91)           107.1318                                         !
 ! A163  A(90,89,92)           110.7622                                         !
 ! A164  A(91,89,92)           107.1879                                         !
 ! A165  A(89,92,93)           110.8807                                         !
 ! A166  A(89,92,94)           113.5167                                         !
 ! A167  A(89,92,95)           111.698                                          !
 ! A168  A(93,92,94)           108.9519                                         !
 ! A169  A(93,92,95)           104.7733                                         !
 ! A170  A(94,92,95)           106.5614                                         !
 ! A171  A(92,95,96)           110.8112                                         !
 ! A172  A(92,95,97)           113.5322                                         !
 ! A173  A(92,95,98)           111.1005                                         !
 ! A174  A(96,95,97)           107.9064                                         !
 ! A175  A(96,95,98)           107.1085                                         !
 ! A176  A(97,95,98)           106.0571                                         !
 ! A177  A(81,99,100)          107.3652                                         !
 ! D1    D(2,1,4,5)            163.5026                                         !
 ! D2    D(2,1,4,6)             44.2906                                         !
 ! D3    D(2,1,4,7)            -79.5802                                         !
 ! D4    D(3,1,4,5)             51.8446                                         !
 ! D5    D(3,1,4,6)            -67.3674                                         !
 ! D6    D(3,1,4,7)            168.7618                                         !
 ! D7    D(1,4,6,10)           -10.9065                                         !
 ! D8    D(1,4,6,16)           168.9345                                         !
 ! D9    D(5,4,6,10)          -130.2437                                         !
 ! D10   D(5,4,6,16)            49.5973                                         !
 ! D11   D(7,4,6,10)           111.7432                                         !
 ! D12   D(7,4,6,16)           -68.4158                                         !
 ! D13   D(1,4,7,8)            -27.5197                                         !
 ! D14   D(1,4,7,9)             88.3492                                         !
 ! D15   D(1,4,7,11)          -148.9921                                         !
 ! D16   D(5,4,7,8)             89.8381                                         !
 ! D17   D(5,4,7,9)           -154.2931                                         !
 ! D18   D(5,4,7,11)           -31.6343                                         !
 ! D19   D(6,4,7,8)           -151.8579                                         !
 ! D20   D(6,4,7,9)            -35.9891                                         !
 ! D21   D(6,4,7,11)            86.6697                                         !
 ! D22   D(4,6,16,17)            6.4603                                         !
 ! D23   D(4,6,16,18)          178.6728                                         !
 ! D24   D(10,6,16,17)        -173.7037                                         !
 ! D25   D(10,6,16,18)          -1.4911                                         !
 ! D26   D(4,7,11,12)          160.7168                                         !
 ! D27   D(4,7,11,15)          -20.3091                                         !
 ! D28   D(8,7,11,12)           40.8315                                         !
 ! D29   D(8,7,11,15)         -140.1944                                         !
 ! D30   D(9,7,11,12)          -75.2081                                         !
 ! D31   D(9,7,11,15)          103.7661                                         !
 ! D32   D(7,11,12,13)        -176.8693                                         !
 ! D33   D(7,11,12,14)         -10.5906                                         !
 ! D34   D(15,11,12,13)          4.1316                                         !
 ! D35   D(15,11,12,14)        170.4103                                         !
 ! D36   D(6,16,18,19)           3.602                                          !
 ! D37   D(6,16,18,20)        -114.4296                                         !
 ! D38   D(6,16,18,21)         123.1981                                         !
 ! D39   D(17,16,18,19)        175.7044                                         !
 ! D40   D(17,16,18,20)         57.6728                                         !
 ! D41   D(17,16,18,21)        -64.6995                                         !
 ! D42   D(16,18,20,23)        -49.8494                                         !
 ! D43   D(16,18,20,35)        131.4663                                         !
 ! D44   D(19,18,20,23)       -165.7101                                         !
 ! D45   D(19,18,20,35)         15.6056                                         !
 ! D46   D(21,18,20,23)         73.714                                          !
 ! D47   D(21,18,20,35)       -104.9703                                         !
 ! D48   D(16,18,21,22)         60.9691                                         !
 ! D49   D(16,18,21,24)        -55.8664                                         !
 ! D50   D(16,18,21,27)        177.974                                          !
 ! D51   D(19,18,21,22)        178.7282                                         !
 ! D52   D(19,18,21,24)         61.8927                                         !
 ! D53   D(19,18,21,27)        -64.2668                                         !
 ! D54   D(20,18,21,22)        -60.5292                                         !
 ! D55   D(20,18,21,24)       -177.3647                                         !
 ! D56   D(20,18,21,27)         56.4757                                         !
 ! D57   D(18,20,35,36)          2.2501                                         !
 ! D58   D(18,20,35,37)        175.2746                                         !
 ! D59   D(23,20,35,36)       -176.4194                                         !
 ! D60   D(23,20,35,37)         -3.3949                                         !
 ! D61   D(18,21,24,25)        177.6359                                         !
 ! D62   D(18,21,24,26)         63.1731                                         !
 ! D63   D(18,21,24,31)        -59.7796                                         !
 ! D64   D(22,21,24,25)         60.8955                                         !
 ! D65   D(22,21,24,26)        -53.5673                                         !
 ! D66   D(22,21,24,31)       -176.52                                           !
 ! D67   D(27,21,24,25)        -57.1099                                         !
 ! D68   D(27,21,24,26)       -171.5727                                         !
 ! D69   D(27,21,24,31)         65.4746                                         !
 ! D70   D(18,21,27,28)         54.2713                                         !
 ! D71   D(18,21,27,29)        173.949                                          !
 ! D72   D(18,21,27,30)        -67.4774                                         !
 ! D73   D(22,21,27,28)        171.0954                                         !
 ! D74   D(22,21,27,29)        -69.2269                                         !
 ! D75   D(22,21,27,30)         49.3467                                         !
 ! D76   D(24,21,27,28)        -70.9817                                         !
 ! D77   D(24,21,27,29)         48.696                                          !
 ! D78   D(24,21,27,30)        167.2696                                         !
 ! D79   D(21,24,31,32)       -175.7783                                         !
 ! D80   D(21,24,31,33)        -56.6222                                         !
 ! D81   D(21,24,31,34)         64.9597                                         !
 ! D82   D(25,24,31,32)        -54.4433                                         !
 ! D83   D(25,24,31,33)         64.7128                                         !
 ! D84   D(25,24,31,34)       -173.7054                                         !
 ! D85   D(26,24,31,32)         61.519                                          !
 ! D86   D(26,24,31,33)       -179.3248                                         !
 ! D87   D(26,24,31,34)        -57.743                                          !
 ! D88   D(20,35,37,38)         42.976                                          !
 ! D89   D(20,35,37,39)        -73.8991                                         !
 ! D90   D(20,35,37,40)        163.3933                                         !
 ! D91   D(36,35,37,38)       -143.9371                                         !
 ! D92   D(36,35,37,39)         99.1879                                         !
 ! D93   D(36,35,37,40)        -23.5198                                         !
 ! D94   D(35,37,39,44)       -101.691                                          !
 ! D95   D(35,37,39,45)         76.5054                                         !
 ! D96   D(38,37,39,44)        142.5556                                         !
 ! D97   D(38,37,39,45)        -39.248                                          !
 ! D98   D(40,37,39,44)         20.5272                                         !
 ! D99   D(40,37,39,45)       -161.2764                                         !
 ! D100  D(35,37,40,41)       -177.7737                                         !
 ! D101  D(35,37,40,42)        -57.8486                                         !
 ! D102  D(35,37,40,43)         63.5951                                         !
 ! D103  D(38,37,40,41)        -59.5413                                         !
 ! D104  D(38,37,40,42)         60.3837                                         !
 ! D105  D(38,37,40,43)       -178.1725                                         !
 ! D106  D(39,37,40,41)         61.3882                                         !
 ! D107  D(39,37,40,42)       -178.6868                                         !
 ! D108  D(39,37,40,43)        -57.243                                          !
 ! D109  D(37,39,45,46)         -5.8571                                         !
 ! D110  D(37,39,45,47)       -164.8138                                         !
 ! D111  D(44,39,45,46)        172.3017                                         !
 ! D112  D(44,39,45,47)         13.3451                                         !
 ! D113  D(39,45,47,48)         33.613                                          !
 ! D114  D(39,45,47,49)        -84.2569                                         !
 ! D115  D(39,45,47,50)        151.3878                                         !
 ! D116  D(46,45,47,48)       -124.8903                                         !
 ! D117  D(46,45,47,49)        117.2399                                         !
 ! D118  D(46,45,47,50)         -7.1155                                         !
 ! D119  D(45,47,49,52)       -102.3393                                         !
 ! D120  D(45,47,49,59)         74.6698                                         !
 ! D121  D(48,47,49,52)        140.7168                                         !
 ! D122  D(48,47,49,59)        -42.2741                                         !
 ! D123  D(50,47,49,52)         18.9905                                         !
 ! D124  D(50,47,49,59)       -164.0004                                         !
 ! D125  D(45,47,50,51)         63.958                                          !
 ! D126  D(45,47,50,53)       -175.9759                                         !
 ! D127  D(45,47,50,57)        -57.4809                                         !
 ! D128  D(48,47,50,51)       -178.508                                          !
 ! D129  D(48,47,50,53)        -58.442                                          !
 ! D130  D(48,47,50,57)         60.0531                                         !
 ! D131  D(49,47,50,51)        -56.2156                                         !
 ! D132  D(49,47,50,53)         63.8505                                         !
 ! D133  D(49,47,50,57)       -177.6544                                         !
 ! D134  D(47,49,59,60)         -5.335                                          !
 ! D135  D(47,49,59,61)       -154.8689                                         !
 ! D136  D(52,49,59,60)        171.6682                                         !
 ! D137  D(52,49,59,61)         22.1343                                         !
 ! D138  D(47,50,53,54)        -61.4385                                         !
 ! D139  D(47,50,53,55)        178.321                                          !
 ! D140  D(47,50,53,56)         59.9543                                         !
 ! D141  D(51,50,53,54)         57.811                                          !
 ! D142  D(51,50,53,55)        -62.4294                                         !
 ! D143  D(51,50,53,56)        179.2039                                         !
 ! D144  D(57,50,53,54)        178.4987                                         !
 ! D145  D(57,50,53,55)         58.2582                                         !
 ! D146  D(57,50,53,56)        -60.1084                                         !
 ! D147  D(47,50,57,58)         78.4912                                         !
 ! D148  D(51,50,57,58)        -40.9826                                         !
 ! D149  D(53,50,57,58)       -160.4785                                         !
 ! D150  D(49,59,61,62)         29.7503                                         !
 ! D151  D(49,59,61,63)        -88.0501                                         !
 ! D152  D(49,59,61,64)        147.5492                                         !
 ! D153  D(60,59,61,62)       -119.4009                                         !
 ! D154  D(60,59,61,63)        122.7987                                         !
 ! D155  D(60,59,61,64)         -1.6019                                         !
 ! D156  D(59,61,63,67)       -117.1166                                         !
 ! D157  D(59,61,63,70)         66.8467                                         !
 ! D158  D(62,61,63,67)        124.9106                                         !
 ! D159  D(62,61,63,70)        -51.1261                                         !
 ! D160  D(64,61,63,67)          6.0662                                         !
 ! D161  D(64,61,63,70)       -169.9705                                         !
 ! D162  D(59,61,64,65)        177.1609                                         !
 ! D163  D(59,61,64,66)         60.9903                                         !
 ! D164  D(59,61,64,68)        -64.56                                           !
 ! D165  D(62,61,64,65)        -65.3869                                         !
 ! D166  D(62,61,64,66)        178.4425                                         !
 ! D167  D(62,61,64,68)         52.8923                                         !
 ! D168  D(63,61,64,65)         52.9573                                         !
 ! D169  D(63,61,64,66)        -63.2134                                         !
 ! D170  D(63,61,64,68)        171.2364                                         !
 ! D171  D(61,63,70,71)        -12.447                                          !
 ! D172  D(61,63,70,72)       -176.6677                                         !
 ! D173  D(67,63,70,71)        171.4355                                         !
 ! D174  D(67,63,70,72)          7.2148                                         !
 ! D175  D(61,64,68,69)         79.698                                          !
 ! D176  D(65,64,68,69)       -161.7522                                         !
 ! D177  D(66,64,68,69)        -44.1257                                         !
 ! D178  D(63,70,72,73)         58.6086                                         !
 ! D179  D(63,70,72,74)        178.6089                                         !
 ! D180  D(63,70,72,75)        -60.0574                                         !
 ! D181  D(71,70,72,73)       -104.9108                                         !
 ! D182  D(71,70,72,74)         15.0896                                         !
 ! D183  D(71,70,72,75)        136.4232                                         !
 ! D184  D(70,72,75,76)        153.3492                                         !
 ! D185  D(70,72,75,77)        -28.9877                                         !
 ! D186  D(73,72,75,76)         30.6112                                         !
 ! D187  D(73,72,75,77)       -151.7258                                         !
 ! D188  D(74,72,75,76)        -85.5721                                         !
 ! D189  D(74,72,75,77)         92.0909                                         !
 ! D190  D(72,75,77,78)          5.0158                                         !
 ! D191  D(72,75,77,79)        151.7184                                         !
 ! D192  D(76,75,77,78)       -177.5127                                         !
 ! D193  D(76,75,77,79)        -30.8101                                         !
 ! D194  D(75,77,79,80)        -26.5642                                         !
 ! D195  D(75,77,79,81)       -141.0978                                         !
 ! D196  D(75,77,79,82)         92.9383                                         !
 ! D197  D(78,77,79,80)        119.6805                                         !
 ! D198  D(78,77,79,81)          5.1469                                         !
 ! D199  D(78,77,79,82)       -120.817                                          !
 ! D200  D(77,79,81,85)       -171.2152                                         !
 ! D201  D(77,79,81,99)          9.2818                                         !
 ! D202  D(80,79,81,85)         72.9098                                         !
 ! D203  D(80,79,81,99)       -106.5931                                         !
 ! D204  D(82,79,81,85)        -42.75                                           !
 ! D205  D(82,79,81,99)        137.747                                          !
 ! D206  D(77,79,82,83)         67.5403                                         !
 ! D207  D(77,79,82,84)       -174.6996                                         !
 ! D208  D(77,79,82,86)        -53.7703                                         !
 ! D209  D(80,79,82,83)       -173.3111                                         !
 ! D210  D(80,79,82,84)        -55.551                                          !
 ! D211  D(80,79,82,86)         65.3783                                         !
 ! D212  D(81,79,82,83)        -59.451                                          !
 ! D213  D(81,79,82,84)         58.3091                                         !
 ! D214  D(81,79,82,86)        179.2384                                         !
 ! D215  D(79,81,99,100)       179.0843                                         !
 ! D216  D(85,81,99,100)        -0.4115                                         !
 ! D217  D(79,82,86,87)        -43.8568                                         !
 ! D218  D(79,82,86,88)         67.779                                          !
 ! D219  D(79,82,86,89)       -166.1156                                         !
 ! D220  D(83,82,86,87)       -164.073                                          !
 ! D221  D(83,82,86,88)        -52.4372                                         !
 ! D222  D(83,82,86,89)         73.6682                                         !
 ! D223  D(84,82,86,87)         73.5956                                         !
 ! D224  D(84,82,86,88)       -174.7687                                         !
 ! D225  D(84,82,86,89)        -48.6633                                         !
 ! D226  D(82,86,89,90)         67.453                                          !
 ! D227  D(82,86,89,91)        -53.6845                                         !
 ! D228  D(82,86,89,92)       -171.3872                                         !
 ! D229  D(87,86,89,90)        -53.8005                                         !
 ! D230  D(87,86,89,91)       -174.9379                                         !
 ! D231  D(87,86,89,92)         67.3593                                         !
 ! D232  D(88,86,89,90)       -166.9026                                         !
 ! D233  D(88,86,89,91)         71.9599                                         !
 ! D234  D(88,86,89,92)        -45.7429                                         !
 ! D235  D(86,89,92,93)         74.39                                           !
 ! D236  D(86,89,92,94)       -162.579                                          !
 ! D237  D(86,89,92,95)        -42.0669                                         !
 ! D238  D(90,89,92,93)       -163.8422                                         !
 ! D239  D(90,89,92,94)        -40.8112                                         !
 ! D240  D(90,89,92,95)         79.7009                                         !
 ! D241  D(91,89,92,93)        -47.2894                                         !
 ! D242  D(91,89,92,94)         75.7416                                         !
 ! D243  D(91,89,92,95)       -163.7463                                         !
 ! D244  D(89,92,95,96)        178.1064                                         !
 ! D245  D(89,92,95,97)         56.4867                                         !
 ! D246  D(89,92,95,98)        -62.9466                                         !
 ! D247  D(93,92,95,96)         57.997                                          !
 ! D248  D(93,92,95,97)        -63.6227                                         !
 ! D249  D(93,92,95,98)        176.944                                          !
 ! D250  D(94,92,95,96)        -57.3968                                         !
 ! D251  D(94,92,95,97)       -179.0165                                         !
 ! D252  D(94,92,95,98)         61.5502                                         !
 --------------------------------------------------------------------------------
 Symmetry turned off by external request.
 Stoichiometry    C28H52N9O11(1+)
 Framework group  C1[X(C28H52N9O11)]
 Deg. of freedom   294
 Full point group                 C1      NOp   1
                          Input orientation:                          
 ---------------------------------------------------------------------
 Center     Atomic      Atomic             Coordinates (Angstroms)
 Number     Number       Type             X           Y           Z
 ---------------------------------------------------------------------
      1          7           0       -7.501969   -0.438314    3.808610
      2          1           0       -7.844276    0.252386    3.138340
      3          1           0       -7.525709    0.056134    4.700013
      4          6           0       -6.109254   -0.724515    3.477459
      5          1           0       -5.645475   -1.219933    4.337850
      6          6           0       -5.304553    0.564865    3.172609
      7          6           0       -6.062622   -1.711896    2.287264
      8          1           0       -6.985645   -2.301167    2.326445
      9          1           0       -6.073775   -1.173099    1.329608
     10          8           0       -5.873967    1.646336    3.026041
     11          6           0       -4.855000   -2.645014    2.298426
     12          7           0       -4.983241   -3.763442    1.536208
     13          1           0       -4.228607   -4.435939    1.549597
     14          1           0       -5.864711   -4.039626    1.130178
     15          8           0       -3.822045   -2.413982    2.927805
     16          7           0       -3.958243    0.404134    3.087223
     17          1           0       -3.584576   -0.546514    3.125937
     18          6           0       -3.070780    1.507109    2.780445
     19          1           0       -3.700000    2.398828    2.718719
     20          6           0       -2.413420    1.246980    1.427575
     21          6           0       -1.988173    1.714089    3.874881
     22          1           0       -1.394486    0.791381    3.921001
     23          8           0       -1.868708    0.159045    1.173045
     24          6           0       -2.634233    1.913391    5.262471
     25          1           0       -1.818183    2.010281    5.990627
     26          1           0       -3.177506    0.999520    5.529599
     27          6           0       -1.033055    2.857294    3.496795
     28          1           0       -1.573563    3.786228    3.276865
     29          1           0       -0.344783    3.061427    4.323315
     30          1           0       -0.421904    2.595531    2.628006
     31          6           0       -3.581228    3.114445    5.388176
     32          1           0       -3.928235    3.214999    6.422382
     33          1           0       -3.085942    4.054822    5.119038
     34          1           0       -4.467801    2.999408    4.755132
     35          7           0       -2.434778    2.270923    0.541644
     36          1           0       -2.846412    3.148651    0.831197
     37          6           0       -1.766350    2.236507   -0.765976
     38          1           0       -1.965381    1.250028   -1.198857
     39          6           0       -0.244869    2.377264   -0.539253
     40          6           0       -2.301039    3.335431   -1.674823
     41          1           0       -1.823423    3.273076   -2.656933
     42          1           0       -3.382204    3.230494   -1.802954
     43          1           0       -2.074833    4.322571   -1.260325
     44          8           0        0.355851    3.448775   -0.722036
     45          7           0        0.342306    1.250242   -0.094384
     46          1           0       -0.298363    0.487458    0.122888
     47          6           0        1.683524    1.193198    0.496334
     48          1           0        1.851290    2.126524    1.048287
     49          6           0        2.689700    1.096567   -0.664048
     50          6           0        1.752916    0.017493    1.494431
     51          1           0        1.610769   -0.916242    0.930082
     52          8           0        3.242225    0.042428   -0.997142
     53          6           0        3.097473   -0.023755    2.208715
     54          1           0        3.913471   -0.169507    1.496558
     55          1           0        3.097563   -0.848407    2.926196
     56          1           0        3.257474    0.907643    2.763691
     57          8           0        0.752296    0.173435    2.492368
     58          1           0       -0.118658   -0.096984    2.148415
     59          7           0        2.858313    2.269955   -1.322548
     60          1           0        2.240924    3.022474   -1.018973
     61          6           0        3.302584    2.323644   -2.716728
     62          1           0        2.950365    1.411662   -3.216898
     63          6           0        4.831861    2.344483   -2.818198
     64          6           0        2.667535    3.534799   -3.415393
     65          1           0        3.054472    3.580330   -4.436697
     66          1           0        2.985140    4.459381   -2.912306
     67          8           0        5.470293    3.277133   -3.295377
     68          8           0        1.260199    3.411637   -3.493677
     69          1           0        0.872382    3.657602   -2.633975
     70          7           0        5.439433    1.186502   -2.405317
     71          1           0        4.868094    0.506599   -1.896112
     72          6           0        6.885001    1.130708   -2.392524
     73          1           0        7.326498    1.902874   -1.753532
     74          1           0        7.198178    0.151599   -2.015690
     75          6           0        7.494757    1.358319   -3.783485
     76          8           0        8.641555    1.826397   -3.872196
     77          7           0        6.705811    0.964447   -4.819278
     78          1           0        5.791259    0.651173   -4.507751
     79          6           0        6.708191    1.537060   -6.172785
     80          1           0        7.056165    2.576070   -6.084617
     81          6           0        5.295983    1.641382   -6.750548
     82          6           0        7.639473    0.808719   -7.180224
     83          1           0        7.263657   -0.198033   -7.393634
     84          1           0        7.631494    1.375208   -8.115921
     85          8           0        5.086200    1.937519   -7.900255
     86          6           0        9.004461    0.783593   -6.509226
     87          1           0        9.117123    1.789559   -6.101405
     88          1           0        8.909006    0.115970   -5.644858
     89          6           0       10.323879    0.450196   -7.197813
     90          1           0       10.605523    1.217786   -7.928725
     91          1           0       10.306726   -0.508978   -7.727398
     92          6           0       11.385110    0.338085   -6.087513
     93          1           0       11.266557   -0.593152   -5.527962
     94          1           0       12.410931    0.401711   -6.457100
     95          7           0       11.228382    1.447548   -5.038660
     96          1           0       11.920919    1.341764   -4.290352
     97          1           0       10.270738    1.474882   -4.593465
     98          1           0       11.373903    2.373523   -5.455903
     99          8           0        4.318397    1.381440   -5.849098
    100          1           0        3.462675    1.487853   -6.308166
 ---------------------------------------------------------------------
 Rotational constants (GHZ):           0.1431727           0.0186063           0.0184415
 Standard basis: 6-31G(d) (6D, 7F)
   824 basis functions,  1552 primitive gaussians,   824 cartesian basis functions
   185 alpha electrons      185 beta electrons
       nuclear repulsion energy      6536.9099221101 Hartrees.
 NAtoms=  100 NActive=  100 NUniq=  100 SFac= 1.00D+00 NAtFMM=   60 NAOKFM=T Big=T
 Integral buffers will be    131072 words long.
 Raffenetti 2 integral format.
 Two-electron integral symmetry is turned off.
 Nuclear repulsion after empirical dispersion term =     6536.7709143677 Hartrees.
 One-electron integrals computed using PRISM.
 NBasis=   824 RedAO= T EigKep=  1.78D-03  NBF=   824
 NBsUse=   824 1.00D-06 EigRej= -1.00D+00 NBFU=   824
 Initial guess from the checkpoint file:  "conf-156.chk"
 B after Tr=     0.000000    0.000000    0.000000
         Rot=    1.000000    0.000000    0.000000    0.000000 Ang=   0.00 deg.
 Requested convergence on RMS density matrix=1.00D-08 within 128 cycles.
 Requested convergence on MAX density matrix=1.00D-06.
 Requested convergence on             energy=1.00D-06.
 No special actions if energy rises.
 SCF Done:  E(RB3LYP) =  -2418.57260948     A.U. after    1 cycles
            NFock=  1  Conv=0.28D-09     -V/T= 2.0093

 **********************************************************************

            Population analysis using the SCF Density.

 **********************************************************************

 Alpha  occ. eigenvalues --  -19.30506 -19.24112 -19.24046 -19.21006 -19.20615
 Alpha  occ. eigenvalues --  -19.20511 -19.20322 -19.20082 -19.19801 -19.17694
 Alpha  occ. eigenvalues --  -19.15817 -14.60228 -14.46872 -14.44829 -14.44319
 Alpha  occ. eigenvalues --  -14.44086 -14.43562 -14.41691 -14.39665 -14.35373
 Alpha  occ. eigenvalues --  -10.42665 -10.40826 -10.39840 -10.37378 -10.37082
 Alpha  occ. eigenvalues --  -10.37034 -10.36611 -10.35313 -10.35224 -10.33133
 Alpha  occ. eigenvalues --  -10.32739 -10.32534 -10.31739 -10.30818 -10.30711
 Alpha  occ. eigenvalues --  -10.30673 -10.30541 -10.30324 -10.30185 -10.28462
 Alpha  occ. eigenvalues --  -10.26987 -10.25571 -10.25075 -10.24322 -10.23253
 Alpha  occ. eigenvalues --  -10.22490 -10.22245 -10.20897  -1.21052  -1.15188
 Alpha  occ. eigenvalues --   -1.14278  -1.12886  -1.12380  -1.12115  -1.11701
 Alpha  occ. eigenvalues --   -1.11350  -1.09337  -1.07948  -1.07561  -1.07488
 Alpha  occ. eigenvalues --   -1.04159  -1.01232  -1.00924  -1.00550  -0.99707
 Alpha  occ. eigenvalues --   -0.96924  -0.96300  -0.94280  -0.92949  -0.89991
 Alpha  occ. eigenvalues --   -0.86968  -0.85897  -0.84881  -0.84122  -0.83274
 Alpha  occ. eigenvalues --   -0.81148  -0.81106  -0.78395  -0.78224  -0.77754
 Alpha  occ. eigenvalues --   -0.75689  -0.73933  -0.72958  -0.72709  -0.72026
 Alpha  occ. eigenvalues --   -0.71239  -0.70235  -0.69937  -0.69262  -0.68782
 Alpha  occ. eigenvalues --   -0.68215  -0.66768  -0.66183  -0.65595  -0.65055
 Alpha  occ. eigenvalues --   -0.64513  -0.64201  -0.63065  -0.62153  -0.61959
 Alpha  occ. eigenvalues --   -0.61529  -0.61242  -0.60681  -0.60200  -0.59612
 Alpha  occ. eigenvalues --   -0.59092  -0.58727  -0.58470  -0.57828  -0.57563
 Alpha  occ. eigenvalues --   -0.57063  -0.56536  -0.56111  -0.56053  -0.55616
 Alpha  occ. eigenvalues --   -0.55020  -0.54783  -0.54499  -0.54341  -0.53973
 Alpha  occ. eigenvalues --   -0.53341  -0.52668  -0.52549  -0.51698  -0.51231
 Alpha  occ. eigenvalues --   -0.51140  -0.50995  -0.50754  -0.50477  -0.50166
 Alpha  occ. eigenvalues --   -0.49718  -0.49372  -0.49107  -0.48718  -0.48350
 Alpha  occ. eigenvalues --   -0.48241  -0.47415  -0.47261  -0.47038  -0.46623
 Alpha  occ. eigenvalues --   -0.46474  -0.46264  -0.46080  -0.46042  -0.45975
 Alpha  occ. eigenvalues --   -0.45623  -0.45320  -0.45215  -0.45131  -0.44816
 Alpha  occ. eigenvalues --   -0.44615  -0.44412  -0.43892  -0.43773  -0.43016
 Alpha  occ. eigenvalues --   -0.42650  -0.42498  -0.42223  -0.42179  -0.41262
 Alpha  occ. eigenvalues --   -0.41057  -0.39523  -0.39411  -0.38808  -0.38615
 Alpha  occ. eigenvalues --   -0.37842  -0.37087  -0.36967  -0.36908  -0.36781
 Alpha  occ. eigenvalues --   -0.36732  -0.36388  -0.35541  -0.34571  -0.34112
 Alpha  occ. eigenvalues --   -0.33927  -0.33557  -0.33125  -0.32924  -0.32076
 Alpha  occ. eigenvalues --   -0.31682  -0.31623  -0.30059  -0.29373  -0.28281
 Alpha virt. eigenvalues --   -0.11349  -0.09930  -0.09478  -0.07912  -0.06911
 Alpha virt. eigenvalues --   -0.06373  -0.05581  -0.05484  -0.03862  -0.03379
 Alpha virt. eigenvalues --   -0.03149  -0.02085  -0.01756  -0.00392  -0.00059
 Alpha virt. eigenvalues --    0.00723   0.01412   0.01830   0.02039   0.02439
 Alpha virt. eigenvalues --    0.02631   0.03325   0.03438   0.03717   0.04403
 Alpha virt. eigenvalues --    0.04699   0.04941   0.05336   0.05685   0.05891
 Alpha virt. eigenvalues --    0.06063   0.06255   0.06759   0.06865   0.07169
 Alpha virt. eigenvalues --    0.07493   0.07556   0.07754   0.08032   0.08208
 Alpha virt. eigenvalues --    0.08456   0.08812   0.09024   0.09556   0.09651
 Alpha virt. eigenvalues --    0.09775   0.10473   0.10540   0.10819   0.10889
 Alpha virt. eigenvalues --    0.11156   0.11542   0.11715   0.12025   0.12290
 Alpha virt. eigenvalues --    0.12382   0.12487   0.13043   0.13365   0.13659
 Alpha virt. eigenvalues --    0.13794   0.14001   0.14160   0.14563   0.14622
 Alpha virt. eigenvalues --    0.15044   0.15309   0.15759   0.15882   0.16466
 Alpha virt. eigenvalues --    0.16843   0.17072   0.17365   0.17646   0.18176
 Alpha virt. eigenvalues --    0.18405   0.18488   0.19007   0.19130   0.19813
 Alpha virt. eigenvalues --    0.20146   0.20477   0.20802   0.21162   0.21482
 Alpha virt. eigenvalues --    0.21852   0.22282   0.22680   0.22850   0.22992
 Alpha virt. eigenvalues --    0.23253   0.24208   0.26265   0.27510   0.27850
 Alpha virt. eigenvalues --    0.28123   0.28583   0.29966   0.30775   0.31109
 Alpha virt. eigenvalues --    0.31748   0.32723   0.33934   0.34797   0.35451
 Alpha virt. eigenvalues --    0.35743   0.36942   0.37479   0.38191   0.39180
 Alpha virt. eigenvalues --    0.40802   0.41108   0.41684   0.42091   0.42406
 Alpha virt. eigenvalues --    0.43396   0.43728   0.44151   0.44451   0.45268
 Alpha virt. eigenvalues --    0.45357   0.46227   0.46461   0.46798   0.46972
 Alpha virt. eigenvalues --    0.47394   0.47600   0.48007   0.48528   0.48839
 Alpha virt. eigenvalues --    0.49164   0.49577   0.49768   0.49981   0.50684
 Alpha virt. eigenvalues --    0.50828   0.51585   0.51719   0.52059   0.52627
 Alpha virt. eigenvalues --    0.52825   0.52967   0.53578   0.53908   0.54271
 Alpha virt. eigenvalues --    0.54620   0.54758   0.55255   0.55414   0.55706
 Alpha virt. eigenvalues --    0.55871   0.56478   0.56771   0.57178   0.57197
 Alpha virt. eigenvalues --    0.57669   0.58211   0.58282   0.58534   0.59228
 Alpha virt. eigenvalues --    0.59598   0.59680   0.60085   0.60182   0.60717
 Alpha virt. eigenvalues --    0.60981   0.61190   0.61354   0.62393   0.63551
 Alpha virt. eigenvalues --    0.63961   0.64373   0.64436   0.64914   0.65289
 Alpha virt. eigenvalues --    0.65574   0.65936   0.66376   0.66560   0.67593
 Alpha virt. eigenvalues --    0.67741   0.68029   0.68217   0.68451   0.68801
 Alpha virt. eigenvalues --    0.69030   0.69433   0.69994   0.70291   0.70683
 Alpha virt. eigenvalues --    0.70955   0.71385   0.71838   0.72343   0.73111
 Alpha virt. eigenvalues --    0.73198   0.73715   0.74038   0.74309   0.74576
 Alpha virt. eigenvalues --    0.74750   0.75195   0.75752   0.75981   0.76323
 Alpha virt. eigenvalues --    0.76422   0.76673   0.77185   0.77403   0.77516
 Alpha virt. eigenvalues --    0.77901   0.78303   0.78615   0.78796   0.79047
 Alpha virt. eigenvalues --    0.79828   0.80024   0.80479   0.80673   0.80932
 Alpha virt. eigenvalues --    0.81034   0.81320   0.81665   0.81977   0.82154
 Alpha virt. eigenvalues --    0.82251   0.82479   0.82543   0.82948   0.83519
 Alpha virt. eigenvalues --    0.83630   0.83708   0.83905   0.84371   0.84564
 Alpha virt. eigenvalues --    0.84866   0.85334   0.85814   0.85894   0.86094
 Alpha virt. eigenvalues --    0.86293   0.86564   0.86845   0.87265   0.87658
 Alpha virt. eigenvalues --    0.87977   0.88253   0.88441   0.88904   0.89495
 Alpha virt. eigenvalues --    0.89892   0.90415   0.91073   0.91442   0.91824
 Alpha virt. eigenvalues --    0.91951   0.92048   0.92517   0.93235   0.93499
 Alpha virt. eigenvalues --    0.93794   0.94164   0.94974   0.95316   0.95450
 Alpha virt. eigenvalues --    0.95849   0.96594   0.96903   0.97472   0.98204
 Alpha virt. eigenvalues --    0.98541   0.98855   0.99015   0.99866   1.00045
 Alpha virt. eigenvalues --    1.00319   1.01530   1.02005   1.02228   1.03013
 Alpha virt. eigenvalues --    1.03053   1.03773   1.04171   1.04778   1.05609
 Alpha virt. eigenvalues --    1.06637   1.07734   1.07803   1.08029   1.09237
 Alpha virt. eigenvalues --    1.09558   1.10210   1.10995   1.11172   1.12293
 Alpha virt. eigenvalues --    1.13048   1.13657   1.14402   1.15092   1.15607
 Alpha virt. eigenvalues --    1.16112   1.16571   1.18744   1.18776   1.19944
 Alpha virt. eigenvalues --    1.20412   1.21360   1.21978   1.22424   1.22502
 Alpha virt. eigenvalues --    1.23027   1.23933   1.25158   1.25799   1.25914
 Alpha virt. eigenvalues --    1.26882   1.27556   1.27795   1.28261   1.29141
 Alpha virt. eigenvalues --    1.29896   1.30360   1.31345   1.32081   1.32818
 Alpha virt. eigenvalues --    1.33289   1.33784   1.34251   1.34748   1.35034
 Alpha virt. eigenvalues --    1.35546   1.35630   1.37154   1.37875   1.38990
 Alpha virt. eigenvalues --    1.39181   1.39708   1.39762   1.41364   1.41788
 Alpha virt. eigenvalues --    1.42296   1.42476   1.44007   1.44831   1.45448
 Alpha virt. eigenvalues --    1.46519   1.46620   1.46873   1.48125   1.48536
 Alpha virt. eigenvalues --    1.48729   1.50052   1.51799   1.52741   1.53290
 Alpha virt. eigenvalues --    1.53817   1.54893   1.55370   1.55829   1.56739
 Alpha virt. eigenvalues --    1.58158   1.58710   1.59360   1.59681   1.59775
 Alpha virt. eigenvalues --    1.60126   1.60918   1.61268   1.61449   1.61774
 Alpha virt. eigenvalues --    1.62412   1.62729   1.63146   1.63350   1.63447
 Alpha virt. eigenvalues --    1.63758   1.65074   1.65936   1.66083   1.66797
 Alpha virt. eigenvalues --    1.67205   1.68117   1.68426   1.68551   1.68772
 Alpha virt. eigenvalues --    1.68917   1.69546   1.70015   1.70848   1.71218
 Alpha virt. eigenvalues --    1.71825   1.72337   1.72663   1.73022   1.73326
 Alpha virt. eigenvalues --    1.74030   1.74381   1.74435   1.74976   1.75643
 Alpha virt. eigenvalues --    1.76042   1.76351   1.77022   1.77779   1.77806
 Alpha virt. eigenvalues --    1.78224   1.78511   1.79327   1.79907   1.80058
 Alpha virt. eigenvalues --    1.80393   1.81353   1.81767   1.82069   1.82209
 Alpha virt. eigenvalues --    1.82655   1.83193   1.83527   1.83853   1.84825
 Alpha virt. eigenvalues --    1.85212   1.85902   1.86202   1.86784   1.87017
 Alpha virt. eigenvalues --    1.87344   1.87629   1.88291   1.88551   1.88951
 Alpha virt. eigenvalues --    1.89309   1.89624   1.90012   1.90655   1.90960
 Alpha virt. eigenvalues --    1.91671   1.92444   1.93280   1.93869   1.94191
 Alpha virt. eigenvalues --    1.94345   1.95279   1.95507   1.96087   1.96633
 Alpha virt. eigenvalues --    1.96778   1.97032   1.97351   1.98144   1.98269
 Alpha virt. eigenvalues --    1.99271   1.99523   2.00515   2.00718   2.01051
 Alpha virt. eigenvalues --    2.01356   2.02002   2.02600   2.03601   2.04101
 Alpha virt. eigenvalues --    2.04810   2.05348   2.05574   2.05820   2.06658
 Alpha virt. eigenvalues --    2.07220   2.07773   2.08146   2.08840   2.09121
 Alpha virt. eigenvalues --    2.09429   2.10181   2.10289   2.12110   2.13007
 Alpha virt. eigenvalues --    2.13496   2.13616   2.13873   2.14888   2.15393
 Alpha virt. eigenvalues --    2.16146   2.17231   2.17726   2.18278   2.19298
 Alpha virt. eigenvalues --    2.20006   2.20152   2.20499   2.21522   2.22198
 Alpha virt. eigenvalues --    2.22361   2.23913   2.24958   2.25295   2.26283
 Alpha virt. eigenvalues --    2.26416   2.26735   2.26974   2.27286   2.28419
 Alpha virt. eigenvalues --    2.28635   2.29290   2.29649   2.30461   2.30966
 Alpha virt. eigenvalues --    2.31340   2.32012   2.32647   2.33120   2.33280
 Alpha virt. eigenvalues --    2.33879   2.35196   2.36154   2.36518   2.37792
 Alpha virt. eigenvalues --    2.38211   2.38920   2.39428   2.40729   2.41037
 Alpha virt. eigenvalues --    2.41527   2.41748   2.42443   2.42883   2.43440
 Alpha virt. eigenvalues --    2.44326   2.45010   2.45970   2.46678   2.47073
 Alpha virt. eigenvalues --    2.47366   2.49015   2.50138   2.51366   2.52940
 Alpha virt. eigenvalues --    2.53226   2.53547   2.53924   2.54269   2.54624
 Alpha virt. eigenvalues --    2.56099   2.56274   2.56866   2.58210   2.58425
 Alpha virt. eigenvalues --    2.59880   2.60949   2.61420   2.61747   2.61930
 Alpha virt. eigenvalues --    2.63183   2.64471   2.64893   2.65614   2.67014
 Alpha virt. eigenvalues --    2.67312   2.68451   2.70136   2.70668   2.71847
 Alpha virt. eigenvalues --    2.73404   2.73679   2.75733   2.76039   2.76422
 Alpha virt. eigenvalues --    2.79661   2.80300   2.81995   2.82599   2.84431
 Alpha virt. eigenvalues --    2.85762   2.86457   2.89011   2.90169   2.90601
 Alpha virt. eigenvalues --    2.91993   2.92830   2.95087   2.95967   2.96016
 Alpha virt. eigenvalues --    2.97486   2.98941   2.99412   3.01021   3.02481
 Alpha virt. eigenvalues --    3.06408   3.06933   3.08206   3.08972   3.10896
 Alpha virt. eigenvalues --    3.13052   3.66216   3.74220   3.76816   3.77665
 Alpha virt. eigenvalues --    3.81092   3.81128   3.89704   3.93392   3.95750
 Alpha virt. eigenvalues --    3.97155   3.99376   4.00309   4.02642   4.03143
 Alpha virt. eigenvalues --    4.04875   4.08164   4.09172   4.11301   4.12943
 Alpha virt. eigenvalues --    4.14327   4.15183   4.16772   4.17928   4.18425
 Alpha virt. eigenvalues --    4.20001   4.20690   4.23408   4.26354   4.26903
 Alpha virt. eigenvalues --    4.28838   4.30399   4.32081   4.35522   4.37287
 Alpha virt. eigenvalues --    4.39476   4.40092   4.42293   4.43356   4.46293
 Alpha virt. eigenvalues --    4.47644   4.50921   4.53169   4.54165   4.55923
 Alpha virt. eigenvalues --    4.57439   4.59062   4.60863   4.69826
          Condensed to atoms (all electrons):
 Mulliken charges:
               1
     1  N   -0.698123
     2  H    0.309972
     3  H    0.309068
     4  C   -0.079013
     5  H    0.172972
     6  C    0.564731
     7  C   -0.377731
     8  H    0.186114
     9  H    0.180529
    10  O   -0.534368
    11  C    0.617570
    12  N   -0.741481
    13  H    0.350350
    14  H    0.347465
    15  O   -0.523387
    16  N   -0.618472
    17  H    0.388607
    18  C   -0.058944
    19  H    0.175687
    20  C    0.647206
    21  C   -0.088383
    22  H    0.151632
    23  O   -0.580236
    24  C   -0.253742
    25  H    0.139212
    26  H    0.144037
    27  C   -0.472923
    28  H    0.134915
    29  H    0.160411
    30  H    0.153181
    31  C   -0.477454
    32  H    0.150549
    33  H    0.140625
    34  H    0.178746
    35  N   -0.586098
    36  H    0.353727
    37  C   -0.055745
    38  H    0.188124
    39  C    0.639624
    40  C   -0.482048
    41  H    0.183832
    42  H    0.172590
    43  H    0.178365
    44  O   -0.569959
    45  N   -0.615777
    46  H    0.377352
    47  C   -0.060165
    48  H    0.182816
    49  C    0.642241
    50  C    0.106001
    51  H    0.145907
    52  O   -0.553385
    53  C   -0.461288
    54  H    0.156454
    55  H    0.172323
    56  H    0.154707
    57  O   -0.650611
    58  H    0.430096
    59  N   -0.617833
    60  H    0.373363
    61  C   -0.073626
    62  H    0.175548
    63  C    0.626005
    64  C   -0.067237
    65  H    0.155072
    66  H    0.156603
    67  O   -0.524355
    68  O   -0.650546
    69  H    0.428303
    70  N   -0.649240
    71  H    0.387946
    72  C   -0.210389
    73  H    0.206571
    74  H    0.187013
    75  C    0.625707
    76  O   -0.575660
    77  N   -0.598500
    78  H    0.380016
    79  C   -0.063466
    80  H    0.215195
    81  C    0.604950
    82  C   -0.262783
    83  H    0.166549
    84  H    0.188450
    85  O   -0.434667
    86  C   -0.294864
    87  H    0.143869
    88  H    0.156122
    89  C   -0.280373
    90  H    0.176520
    91  H    0.195607
    92  C   -0.195730
    93  H    0.218873
    94  H    0.214895
    95  N   -0.775758
    96  H    0.414911
    97  H    0.462299
    98  H    0.412393
    99  O   -0.584729
   100  H    0.438566
 Sum of Mulliken charges =   1.00000
 Mulliken charges with hydrogens summed into heavy atoms:
               1
     1  N   -0.079084
     4  C    0.093959
     6  C    0.564731
     7  C   -0.011088
    10  O   -0.534368
    11  C    0.617570
    12  N   -0.043665
    15  O   -0.523387
    16  N   -0.229865
    18  C    0.116743
    20  C    0.647206
    21  C    0.063249
    23  O   -0.580236
    24  C    0.029508
    27  C   -0.024416
    31  C   -0.007533
    35  N   -0.232371
    37  C    0.132379
    39  C    0.639624
    40  C    0.052740
    44  O   -0.569959
    45  N   -0.238425
    47  C    0.122652
    49  C    0.642241
    50  C    0.251908
    52  O   -0.553385
    53  C    0.022197
    57  O   -0.220515
    59  N   -0.244470
    61  C    0.101922
    63  C    0.626005
    64  C    0.244438
    67  O   -0.524355
    68  O   -0.222243
    70  N   -0.261294
    72  C    0.183195
    75  C    0.625707
    76  O   -0.575660
    77  N   -0.218484
    79  C    0.151728
    81  C    0.604950
    82  C    0.092217
    85  O   -0.434667
    86  C    0.005126
    89  C    0.091754
    92  C    0.238039
    95  N    0.513844
    99  O   -0.146162
 Electronic spatial extent (au):  <R**2>=          62653.8673
 Charge=              1.0000 electrons
 Dipole moment (field-independent basis, Debye):
    X=             36.4690    Y=              1.2719    Z=            -20.3027  Tot=             41.7589
 Quadrupole moment (field-independent basis, Debye-Ang):
   XX=            189.6085   YY=           -265.8424   ZZ=           -176.8087
   XY=             47.1065   XZ=           -212.4732   YZ=             -7.9360
 Traceless Quadrupole moment (field-independent basis, Debye-Ang):
   XX=            273.9560   YY=           -181.4949   ZZ=            -92.4611
   XY=             47.1065   XZ=           -212.4732   YZ=             -7.9360
 Octapole moment (field-independent basis, Debye-Ang**2):
  XXX=           4012.8903  YYY=          -1076.2435  ZZZ=            147.3526  XYY=           -460.0361
  XXY=             15.4290  XXZ=          -2277.0409  XZZ=            823.4880  YZZ=           -259.8529
  YYZ=            242.5338  XYZ=           -173.0431
 Hexadecapole moment (field-independent basis, Debye-Ang**3):
 XXXX=          12538.7944 YYYY=          -6575.4749 ZZZZ=         -22373.8388 XXXY=           3286.0393
 XXXZ=         -13106.8041 YYYX=          -2678.0205 YYYZ=           1944.8882 ZZZX=           7651.9557
 ZZZY=           1987.0114 XXYY=          -7967.6074 XXZZ=           1705.0082 YYZZ=          -5429.9175
 XXYZ=          -1901.8538 YYXZ=           4638.2056 ZZXY=            -86.6273
 N-N= 6.536770914368D+03 E-N=-1.868783782767D+04  KE= 2.396368657960D+03
 Unable to Open any file for archive entry.
 1\1\GINC-AMR-107\SP\RB3LYP\6-31G(d)\C28H52N9O11(1+)\KENGMITH\06-Jun-20
 22\0\\# B3LYP/6-31G* empiricaldispersion=gd3 guess=read geom=check nos
 ymm integral(ultrafinegrid)\\Candidate Structure: Conf:156 Charge calc
  in gas phase\\1,1\N,0,-7.5019686803,-0.4383136655,3.8086098621\H,0,-7
 .8442759368,0.2523858658,3.1383398962\H,0,-7.5257090438,0.0561340832,4
 .7000125849\C,0,-6.1092537961,-0.7245149654,3.4774587975\H,0,-5.645474
 9799,-1.2199331047,4.337850169\C,0,-5.3045534479,0.5648649703,3.172608
 8232\C,0,-6.0626218338,-1.7118959631,2.2872644199\H,0,-6.9856453057,-2
 .3011672092,2.3264446864\H,0,-6.0737752172,-1.173099328,1.3296075775\O
 ,0,-5.8739667063,1.6463356187,3.0260406169\C,0,-4.8549999466,-2.645013
 906,2.2984256567\N,0,-4.9832406732,-3.7634416375,1.5362083998\H,0,-4.2
 286070645,-4.4359390961,1.5495968601\H,0,-5.8647108976,-4.0396255601,1
 .1301776939\O,0,-3.8220451244,-2.4139823606,2.9278054969\N,0,-3.958243
 1627,0.4041339985,3.0872226802\H,0,-3.5845757857,-0.546514399,3.125936
 6439\C,0,-3.0707803559,1.5071086109,2.7804446109\H,0,-3.699999737,2.39
 88276268,2.7187191089\C,0,-2.4134203264,1.2469802028,1.4275750592\C,0,
 -1.9881731567,1.7140887518,3.8748812427\H,0,-1.3944862156,0.7913806274
 ,3.9210013157\O,0,-1.8687083661,0.159044865,1.1730446474\C,0,-2.634233
 0437,1.9133909667,5.2624707738\H,0,-1.8181832689,2.0102805306,5.990626
 9056\H,0,-3.1775063405,0.999520357,5.5295985462\C,0,-1.0330549645,2.85
 7293622,3.4967950669\H,0,-1.5735626079,3.7862276061,3.2768651771\H,0,-
 0.3447832938,3.0614274616,4.3233146985\H,0,-0.4219035338,2.595531162,2
 .628005845\C,0,-3.5812281594,3.1144450593,5.3881756064\H,0,-3.92823504
 64,3.2149992846,6.4223817104\H,0,-3.0859424882,4.0548221287,5.11903812
 33\H,0,-4.4678012429,2.9994079541,4.7551322863\N,0,-2.4347775579,2.270
 9233737,0.5416442375\H,0,-2.846411674,3.1486509603,0.831196553\C,0,-1.
 7663501824,2.2365074094,-0.7659763778\H,0,-1.9653811827,1.2500278337,-
 1.1988568419\C,0,-0.2448685712,2.3772640835,-0.5392526908\C,0,-2.30103
 88925,3.3354311279,-1.674822703\H,0,-1.8234227759,3.2730761648,-2.6569
 330699\H,0,-3.3822044145,3.2304937568,-1.8029540727\H,0,-2.0748330402,
 4.3225712288,-1.2603254997\O,0,0.3558509111,3.4487751375,-0.7220356681
 \N,0,0.3423064411,1.2502416226,-0.0943838586\H,0,-0.2983628453,0.48745
 84882,0.1228879139\C,0,1.6835240625,1.1931975667,0.4963339367\H,0,1.85
 12903066,2.1265240604,1.0482866471\C,0,2.6897001048,1.0965672197,-0.66
 404777\C,0,1.7529163402,0.0174925667,1.4944310271\H,0,1.6107690468,-0.
 916241894,0.9300818536\O,0,3.2422252765,0.0424278988,-0.9971420938\C,0
 ,3.0974734677,-0.0237552478,2.2087151766\H,0,3.913470556,-0.1695072211
 ,1.4965584079\H,0,3.0975626942,-0.8484067932,2.9261963219\H,0,3.257473
 7268,0.9076426078,2.7636908858\O,0,0.7522963388,0.1734353833,2.4923682
 134\H,0,-0.1186584894,-0.0969838403,2.1484145134\N,0,2.858313076,2.269
 9554813,-1.3225476335\H,0,2.2409242242,3.0224738914,-1.0189728994\C,0,
 3.3025840939,2.3236442981,-2.7167281032\H,0,2.9503652854,1.4116622689,
 -3.2168984228\C,0,4.8318613381,2.3444828368,-2.8181980519\C,0,2.667534
 5485,3.5347988907,-3.4153925791\H,0,3.0544718585,3.5803302023,-4.43669
 66011\H,0,2.9851398268,4.4593812095,-2.9123059794\O,0,5.4702933509,3.2
 771329947,-3.2953768226\O,0,1.2601993835,3.4116374948,-3.4936770511\H,
 0,0.8723822533,3.6576020925,-2.6339747162\N,0,5.4394331536,1.186502246
 4,-2.4053174587\H,0,4.8680938736,0.5065985907,-1.8961115751\C,0,6.8850
 013835,1.1307081658,-2.392523629\H,0,7.3264976995,1.9028743728,-1.7535
 321731\H,0,7.1981782924,0.1515992736,-2.0156898262\C,0,7.4947570521,1.
 3583190824,-3.7834851199\O,0,8.6415551059,1.8263968728,-3.8721957134\N
 ,0,6.7058105522,0.9644470578,-4.8192781907\H,0,5.791258603,0.651172543
 8,-4.5077514893\C,0,6.708191353,1.5370599492,-6.1727845389\H,0,7.05616
 54723,2.5760701412,-6.0846167402\C,0,5.295983318,1.6413817969,-6.75054
 78724\C,0,7.6394733905,0.8087189849,-7.1802240025\H,0,7.2636569876,-0.
 1980326245,-7.3936344598\H,0,7.6314936399,1.375207674,-8.1159205531\O,
 0,5.0861997641,1.9375189054,-7.9002550658\C,0,9.0044610154,0.783592839
 6,-6.5092260741\H,0,9.1171232068,1.789558512,-6.1014052698\H,0,8.90900
 59917,0.1159696898,-5.6448576956\C,0,10.3238789779,0.4501955221,-7.197
 8132753\H,0,10.6055225754,1.2177857073,-7.9287254951\H,0,10.3067259533
 ,-0.5089777283,-7.727398376\C,0,11.3851096255,0.3380847161,-6.08751254
 39\H,0,11.2665570123,-0.5931524837,-5.5279620393\H,0,12.4109309499,0.4
 01711367,-6.4570995383\N,0,11.2283816382,1.4475480138,-5.038660258\H,0
 ,11.9209188755,1.3417640799,-4.2903521485\H,0,10.2707380117,1.47488206
 93,-4.5934648287\H,0,11.3739032497,2.3735226556,-5.4559029928\O,0,4.31
 83973385,1.381439806,-5.8490976687\H,0,3.4626750311,1.4878525764,-6.30
 81662387\\Version=ES64L-G16RevC.01\HF=-2418.5726095\RMSD=2.831e-10\Dip
 ole=11.5811745,-1.6674447,-6.3302678\Quadrupole=203.6795953,-134.93702
 09,-68.7425745,35.0225367,-157.9685941,-5.9002279\PG=C01 [X(C28H52N9O1
 1)]\\@
 The archive entry for this job was punched.


 THERE IS MUCH PLEASURE TO BE GAINED FROM USELESS KNOWLEDGE

                                       -- BERTRAND RUSSELL
 Job cpu time:       0 days  0 hours  2 minutes  9.0 seconds.
 Elapsed time:       0 days  0 hours  0 minutes 33.2 seconds.
 File lengths (MBytes):  RWF=    464 Int=      0 D2E=      0 Chk=     72 Scr=     16
 Normal termination of Gaussian 16 at Mon Jun  6 02:57:30 2022.
