 Entering Gaussian System, Link 0=/opt/software/Gaussian/g16-AVX2-C.01/g16/g16
 Input=charge-conf-617.com
 Output=charge-conf-617.log
 Initial command:
 /opt/software/Gaussian/g16-AVX2-C.01/g16/l1.exe "/mnt/gs18/scratch/users/kengmith/Gau-23596.inp" -scrdir="/mnt/gs18/scratch/users/kengmith/"
 Entering Link 1 = /opt/software/Gaussian/g16-AVX2-C.01/g16/l1.exe PID=     23606.
  
 Copyright (c) 1988-2019, Gaussian, Inc.  All Rights Reserved.
  
 This is part of the Gaussian(R) 16 program.  It is based on
 the Gaussian(R) 09 system (copyright 2009, Gaussian, Inc.),
 the Gaussian(R) 03 system (copyright 2003, Gaussian, Inc.),
 the Gaussian(R) 98 system (copyright 1998, Gaussian, Inc.),
 the Gaussian(R) 94 system (copyright 1995, Gaussian, Inc.),
 the Gaussian 92(TM) system (copyright 1992, Gaussian, Inc.),
 the Gaussian 90(TM) system (copyright 1990, Gaussian, Inc.),
 the Gaussian 88(TM) system (copyright 1988, Gaussian, Inc.),
 the Gaussian 86(TM) system (copyright 1986, Carnegie Mellon
 University), and the Gaussian 82(TM) system (copyright 1983,
 Carnegie Mellon University). Gaussian is a federally registered
 trademark of Gaussian, Inc.
  
 This software contains proprietary and confidential information,
 including trade secrets, belonging to Gaussian, Inc.
  
 This software is provided under written license and may be
 used, copied, transmitted, or stored only in accord with that
 written license.
  
 The following legend is applicable only to US Government
 contracts under FAR:
  
                    RESTRICTED RIGHTS LEGEND
  
 Use, reproduction and disclosure by the US Government is
 subject to restrictions as set forth in subparagraphs (a)
 and (c) of the Commercial Computer Software - Restricted
 Rights clause in FAR 52.227-19.
  
 Gaussian, Inc.
 340 Quinnipiac St., Bldg. 40, Wallingford CT 06492
  
  
 ---------------------------------------------------------------
 Warning -- This program may not be used in any manner that
 competes with the business of Gaussian, Inc. or will provide
 assistance to any competitor of Gaussian, Inc.  The licensee
 of this program is prohibited from giving any competitor of
 Gaussian, Inc. access to this program.  By using this program,
 the user acknowledges that Gaussian, Inc. is engaged in the
 business of creating and licensing software in the field of
 computational chemistry and represents and warrants to the
 licensee that it is not a competitor of Gaussian, Inc. and that
 it will not use this program in any manner prohibited above.
 ---------------------------------------------------------------
  

 Cite this work as:
 Gaussian 16, Revision C.01,
 M. J. Frisch, G. W. Trucks, H. B. Schlegel, G. E. Scuseria, 
 M. A. Robb, J. R. Cheeseman, G. Scalmani, V. Barone, 
 G. A. Petersson, H. Nakatsuji, X. Li, M. Caricato, A. V. Marenich, 
 J. Bloino, B. G. Janesko, R. Gomperts, B. Mennucci, H. P. Hratchian, 
 J. V. Ortiz, A. F. Izmaylov, J. L. Sonnenberg, D. Williams-Young, 
 F. Ding, F. Lipparini, F. Egidi, J. Goings, B. Peng, A. Petrone, 
 T. Henderson, D. Ranasinghe, V. G. Zakrzewski, J. Gao, N. Rega, 
 G. Zheng, W. Liang, M. Hada, M. Ehara, K. Toyota, R. Fukuda, 
 J. Hasegawa, M. Ishida, T. Nakajima, Y. Honda, O. Kitao, H. Nakai, 
 T. Vreven, K. Throssell, J. A. Montgomery, Jr., J. E. Peralta, 
 F. Ogliaro, M. J. Bearpark, J. J. Heyd, E. N. Brothers, K. N. Kudin, 
 V. N. Staroverov, T. A. Keith, R. Kobayashi, J. Normand, 
 K. Raghavachari, A. P. Rendell, J. C. Burant, S. S. Iyengar, 
 J. Tomasi, M. Cossi, J. M. Millam, M. Klene, C. Adamo, R. Cammi, 
 J. W. Ochterski, R. L. Martin, K. Morokuma, O. Farkas, 
 J. B. Foresman, and D. J. Fox, Gaussian, Inc., Wallingford CT, 2019.
 
 ******************************************
 Gaussian 16:  ES64L-G16RevC.01  3-Jul-2019
                26-May-2022 
 ******************************************
 %mem=8gb
 %nproc=4
 Will use up to    4 processors via shared memory.
 %chk=conf-617.chk
 -------------------------------------------------------------------
 # B3LYP/6-31G* guess=read geom=check nosymm integral(ultrafinegrid)
 -------------------------------------------------------------------
 1/29=2,38=1,172=1/1;
 2/12=2,15=1,40=1/2;
 3/5=1,6=6,7=1,11=2,14=-4,25=1,30=1,74=-5,75=-5,116=-2/1,2,3;
 4/5=1/1;
 5/5=2,38=6/2;
 6/7=2,8=2,9=2,10=2,28=1/1;
 99/5=1,9=1/99;
 ------------------------------------------------------
 Candidate Structure: Conf:617 Charge calc in gas phase
 ------------------------------------------------------
 Structure from the checkpoint file:  "conf-617.chk"
 Charge =  1 Multiplicity = 1
 Redundant internal coordinates found in file.  (old form).
 N,0,-3.2632158591,3.757903533,2.2344472689
 H,0,-1.4914704602,4.3174563191,1.4998695246
 H,0,-4.0354978057,3.7133421057,1.5668063981
 H,0,-3.5192465363,4.5134158683,2.8716794797
 C,0,-3.2175330057,2.5001386307,3.0273503833
 H,0,-2.5646118837,2.7016690078,3.8832903534
 C,0,-2.5430575399,1.3278472154,2.2922694762
 C,0,-4.5859143663,2.0448590723,3.5850403387
 H,0,-4.4113551481,1.2188826711,4.2794920584
 H,0,-5.0179938877,2.8631553518,4.1726755183
 O,0,-2.2986063297,0.2930102055,2.8946611723
 C,0,-5.5768115005,1.5960015268,2.5063840024
 H,0,-5.2390809069,0.6750541167,2.0161937791
 H,0,-5.6871871435,2.3359713233,1.7014047142
 C,0,-6.9627372146,1.3431538079,3.0609997122
 O,0,-7.2902779252,1.4273494184,4.2205973121
 O,0,-7.8362445861,1.0045326483,2.0732794772
 N,0,-2.2698300563,1.4952143022,0.9610759577
 H,0,-2.4871171092,2.3780612709,0.5237426051
 C,0,-1.7369660373,0.4257471331,0.1466546336
 H,0,-1.8606069299,-0.4848676692,0.7414862612
 C,0,-0.2266110131,0.6137433902,-0.1035370007
 C,0,-2.541408928,0.2849866961,-1.1830766818
 H,0,-2.0650072137,-0.4839422058,-1.8046376654
 H,0,-2.4553660944,1.2224399595,-1.7498028187
 O,0,0.3857790667,1.6581450174,0.1910325626
 C,0,-3.9819540747,-0.0468950269,-0.9406441242
 C,0,-5.0588035023,0.7944104879,-1.0919471862
 H,0,-5.0937751293,1.809811482,-1.4656064803
 C,0,-4.5047667313,-1.2933893639,-0.4325070999
 C,0,-5.9089920523,-1.1283406116,-0.2911674879
 C,0,-3.9306562779,-2.5317195639,-0.0896685107
 H,0,-2.8624425064,-2.7023468505,-0.2002199129
 N,0,-6.2186335358,0.1483890852,-0.7188308689
 H,0,-7.1242126461,0.5822249354,-0.6213980113
 C,0,-6.1393537929,-3.3521342757,0.5317960834
 H,0,-6.752985456,-4.16410499,0.9105725664
 C,0,-6.7382910089,-2.1454725852,0.1940655209
 H,0,-7.8091020762,-1.9975147209,0.3000546842
 C,0,-4.7495737897,-3.5455827463,0.3870988144
 H,0,-4.3169085262,-4.5050510782,0.6543856683
 N,0,0.4075775597,-0.4361219962,-0.6483204458
 H,0,-0.1167849878,-1.2076936974,-1.0490161
 C,0,1.8316482429,-0.4527707017,-0.9516267736
 H,0,2.3983560789,-0.3010797723,-0.0264785471
 C,0,2.1937880157,0.6198322318,-1.9899183272
 C,0,2.1575385578,-1.8488924706,-1.5686550385
 H,0,3.1557335575,-1.7811107284,-2.0270397937
 O,0,1.6056398914,0.6685955436,-3.0740009926
 C,0,2.1588936744,-2.9702709362,-0.5376304164
 H,0,2.9533536945,-2.818471792,0.2000023298
 H,0,2.3297974952,-3.9243346855,-1.0434915598
 H,0,1.2018692866,-3.0320984102,-0.0091763971
 O,0,1.1753551258,-2.1556688404,-2.5487540738
 H,0,1.1767532085,-1.4200238681,-3.1926190331
 N,0,3.2150907075,1.4402389177,-1.6477968739
 H,0,3.7051966476,1.2903326708,-0.7722342706
 C,0,3.8665370996,2.3749421319,-2.5552660294
 H,0,3.7026395868,2.0372160622,-3.5834104248
 C,0,5.3612071617,2.3317537057,-2.2415208292
 C,0,3.3333436369,3.8199062955,-2.3841840273
 H,0,4.0354204513,4.5176418719,-2.8522543655
 H,0,3.3357173567,4.0412339417,-1.3091944033
 O,0,5.8265527516,1.8519311005,-1.2312018497
 C,0,1.9230777667,4.0179163746,-2.982595819
 H,0,2.0090520048,4.4085044307,-4.0020164816
 H,0,1.4014445918,3.0587323835,-3.0744594591
 C,0,1.0441403625,4.9825215495,-2.1812628974
 H,0,1.5961842987,5.9047152611,-1.9525821359
 H,0,0.1607050459,5.2528628602,-2.7749251658
 N,0,0.6150234061,4.3444361747,-0.929792552
 H,0,0.814320234,3.3517327467,-0.7990332893
 N,0,-0.7249047155,6.1178555504,-0.2200959082
 H,0,-1.1281341975,6.5963944728,0.5728635429
 H,0,-0.356640787,6.707697022,-0.9514940682
 N,0,-0.5748727744,4.1719018888,1.0464097194
 H,0,-0.271994454,3.1905020736,1.0426061881
 C,0,-0.2240585433,4.8751571571,-0.0349346733
 O,0,6.0865210292,2.9252789591,-3.2027526051
 H,0,-8.6934473713,0.8478220112,2.5140686075
 H,0,7.0237052325,2.8880739557,-2.9289707785
 Recover connectivity data from disk.
                           ----------------------------
                           !    Current Parameters    !
                           ! (Angstroms and Degrees)  !
 --------------------------                            --------------------------
 ! Name  Definition              Value                                          !
 --------------------------------------------------------------------------------
 ! R1    R(1,2)                  1.9979                                         !
 ! R2    R(1,3)                  1.0218                                         !
 ! R3    R(1,4)                  1.021                                          !
 ! R4    R(1,5)                  1.4875                                         !
 ! R5    R(5,6)                  1.0952                                         !
 ! R6    R(5,7)                  1.5393                                         !
 ! R7    R(5,8)                  1.5462                                         !
 ! R8    R(7,11)                 1.2221                                         !
 ! R9    R(7,18)                 1.3692                                         !
 ! R10   R(8,9)                  1.0931                                         !
 ! R11   R(8,10)                 1.0962                                         !
 ! R12   R(8,12)                 1.5319                                         !
 ! R13   R(12,13)                1.0966                                         !
 ! R14   R(12,14)                1.099                                          !
 ! R15   R(12,15)                1.514                                          !
 ! R16   R(15,16)                1.2079                                         !
 ! R17   R(15,17)                1.3613                                         !
 ! R18   R(17,80)                0.9765                                         !
 ! R19   R(18,19)                1.0089                                         !
 ! R20   R(18,20)                1.446                                          !
 ! R21   R(20,21)                1.0947                                         !
 ! R22   R(20,22)                1.5424                                         !
 ! R23   R(20,23)                1.5605                                         !
 ! R24   R(22,26)                1.246                                          !
 ! R25   R(22,42)                1.3421                                         !
 ! R26   R(23,24)                1.0975                                         !
 ! R27   R(23,25)                1.0988                                         !
 ! R28   R(23,27)                1.498                                          !
 ! R29   R(27,28)                1.3749                                         !
 ! R30   R(27,30)                1.4441                                         !
 ! R31   R(28,29)                1.0825                                         !
 ! R32   R(28,34)                1.379                                          !
 ! R33   R(30,31)                1.4209                                         !
 ! R34   R(30,32)                1.4073                                         !
 ! R35   R(31,34)                1.3816                                         !
 ! R36   R(31,38)                1.3992                                         !
 ! R37   R(32,33)                1.0874                                         !
 ! R38   R(32,40)                1.3878                                         !
 ! R39   R(34,35)                1.0089                                         !
 ! R40   R(36,37)                1.086                                          !
 ! R41   R(36,38)                1.3888                                         !
 ! R42   R(36,40)                1.4106                                         !
 ! R43   R(38,39)                1.0862                                         !
 ! R44   R(40,41)                1.0859                                         !
 ! R45   R(42,43)                1.0153                                         !
 ! R46   R(42,44)                1.4561                                         !
 ! R47   R(44,45)                1.0955                                         !
 ! R48   R(44,46)                1.5361                                         !
 ! R49   R(44,47)                1.5608                                         !
 ! R50   R(46,49)                1.2343                                         !
 ! R51   R(46,56)                1.3539                                         !
 ! R52   R(47,48)                1.1005                                         !
 ! R53   R(47,50)                1.5233                                         !
 ! R54   R(47,54)                1.4211                                         !
 ! R55   R(50,51)                1.0947                                         !
 ! R56   R(50,52)                1.0933                                         !
 ! R57   R(50,53)                1.095                                          !
 ! R58   R(54,55)                0.9776                                         !
 ! R59   R(56,57)                1.0145                                         !
 ! R60   R(56,58)                1.4566                                         !
 ! R61   R(58,59)                1.0945                                         !
 ! R62   R(58,60)                1.5279                                         !
 ! R63   R(58,61)                1.5497                                         !
 ! R64   R(60,64)                1.2114                                         !
 ! R65   R(60,79)                1.3425                                         !
 ! R66   R(61,62)                1.0949                                         !
 ! R67   R(61,63)                1.0975                                         !
 ! R68   R(61,65)                1.5447                                         !
 ! R69   R(65,66)                1.0951                                         !
 ! R70   R(65,67)                1.0957                                         !
 ! R71   R(65,68)                1.5314                                         !
 ! R72   R(68,69)                1.0989                                         !
 ! R73   R(68,70)                1.0982                                         !
 ! R74   R(68,71)                1.4688                                         !
 ! R75   R(71,72)                1.0209                                         !
 ! R76   R(71,78)                1.3366                                         !
 ! R77   R(73,74)                1.0101                                         !
 ! R78   R(73,75)                1.0092                                         !
 ! R79   R(73,78)                1.3526                                         !
 ! R80   R(76,77)                1.0271                                         !
 ! R81   R(76,78)                1.3368                                         !
 ! R82   R(79,81)                0.9771                                         !
 ! A1    A(2,1,3)              116.2445                                         !
 ! A2    A(2,1,4)              104.1586                                         !
 ! A3    A(2,1,5)              113.9256                                         !
 ! A4    A(3,1,4)              104.5093                                         !
 ! A5    A(3,1,5)              109.5486                                         !
 ! A6    A(4,1,5)              107.4997                                         !
 ! A7    A(1,5,6)              106.218                                          !
 ! A8    A(1,5,7)              113.7561                                         !
 ! A9    A(1,5,8)              114.4591                                         !
 ! A10   A(6,5,7)              104.603                                          !
 ! A11   A(6,5,8)              107.4507                                         !
 ! A12   A(7,5,8)              109.6192                                         !
 ! A13   A(5,7,11)             119.8102                                         !
 ! A14   A(5,7,18)             117.2981                                         !
 ! A15   A(11,7,18)            122.8759                                         !
 ! A16   A(5,8,9)              108.0771                                         !
 ! A17   A(5,8,10)             108.807                                          !
 ! A18   A(5,8,12)             113.8752                                         !
 ! A19   A(9,8,10)             106.6447                                         !
 ! A20   A(9,8,12)             109.2205                                         !
 ! A21   A(10,8,12)            109.9513                                         !
 ! A22   A(8,12,13)            111.1989                                         !
 ! A23   A(8,12,14)            112.5463                                         !
 ! A24   A(8,12,15)            112.5256                                         !
 ! A25   A(13,12,14)           105.6039                                         !
 ! A26   A(13,12,15)           107.7833                                         !
 ! A27   A(14,12,15)           106.788                                          !
 ! A28   A(12,15,16)           126.0324                                         !
 ! A29   A(12,15,17)           111.2916                                         !
 ! A30   A(16,15,17)           122.6751                                         !
 ! A31   A(15,17,80)           106.001                                          !
 ! A32   A(7,18,19)            119.0402                                         !
 ! A33   A(7,18,20)            122.0532                                         !
 ! A34   A(19,18,20)           118.8428                                         !
 ! A35   A(18,20,21)           105.5197                                         !
 ! A36   A(18,20,22)           111.2262                                         !
 ! A37   A(18,20,23)           110.8962                                         !
 ! A38   A(21,20,22)           107.4651                                         !
 ! A39   A(21,20,23)           109.2548                                         !
 ! A40   A(22,20,23)           112.1826                                         !
 ! A41   A(20,22,26)           123.0293                                         !
 ! A42   A(20,22,42)           115.6714                                         !
 ! A43   A(26,22,42)           121.2924                                         !
 ! A44   A(20,23,24)           108.7849                                         !
 ! A45   A(20,23,25)           108.7941                                         !
 ! A46   A(20,23,27)           112.1979                                         !
 ! A47   A(24,23,25)           105.7618                                         !
 ! A48   A(24,23,27)           110.723                                          !
 ! A49   A(25,23,27)           110.3515                                         !
 ! A50   A(23,27,28)           126.8557                                         !
 ! A51   A(23,27,30)           126.608                                          !
 ! A52   A(28,27,30)           106.4606                                         !
 ! A53   A(27,28,29)           129.5872                                         !
 ! A54   A(27,28,34)           110.0171                                         !
 ! A55   A(29,28,34)           120.3728                                         !
 ! A56   A(27,30,31)           107.0092                                         !
 ! A57   A(27,30,32)           134.2315                                         !
 ! A58   A(31,30,32)           118.7583                                         !
 ! A59   A(30,31,34)           107.3393                                         !
 ! A60   A(30,31,38)           122.3971                                         !
 ! A61   A(34,31,38)           130.2615                                         !
 ! A62   A(30,32,33)           120.934                                          !
 ! A63   A(30,32,40)           119.0655                                         !
 ! A64   A(33,32,40)           119.9992                                         !
 ! A65   A(28,34,31)           109.1569                                         !
 ! A66   A(28,34,35)           125.4242                                         !
 ! A67   A(31,34,35)           124.6575                                         !
 ! A68   A(37,36,38)           119.3908                                         !
 ! A69   A(37,36,40)           119.3374                                         !
 ! A70   A(38,36,40)           121.2713                                         !
 ! A71   A(31,38,36)           117.408                                          !
 ! A72   A(31,38,39)           121.2742                                         !
 ! A73   A(36,38,39)           121.3177                                         !
 ! A74   A(32,40,36)           121.0936                                         !
 ! A75   A(32,40,41)           119.6666                                         !
 ! A76   A(36,40,41)           119.2398                                         !
 ! A77   A(22,42,43)           120.7057                                         !
 ! A78   A(22,42,44)           123.7548                                         !
 ! A79   A(43,42,44)           114.469                                          !
 ! A80   A(42,44,45)           109.1741                                         !
 ! A81   A(42,44,46)           111.3074                                         !
 ! A82   A(42,44,47)           107.2642                                         !
 ! A83   A(45,44,46)           110.6207                                         !
 ! A84   A(45,44,47)           110.4695                                         !
 ! A85   A(46,44,47)           107.9477                                         !
 ! A86   A(44,46,49)           120.5907                                         !
 ! A87   A(44,46,56)           115.476                                          !
 ! A88   A(49,46,56)           123.8776                                         !
 ! A89   A(44,47,48)           107.395                                          !
 ! A90   A(44,47,50)           113.0223                                         !
 ! A91   A(44,47,54)           108.7505                                         !
 ! A92   A(48,47,50)           109.0533                                         !
 ! A93   A(48,47,54)           110.6668                                         !
 ! A94   A(50,47,54)           107.9691                                         !
 ! A95   A(47,50,51)           110.7712                                         !
 ! A96   A(47,50,52)           109.2301                                         !
 ! A97   A(47,50,53)           111.5575                                         !
 ! A98   A(51,50,52)           108.6228                                         !
 ! A99   A(51,50,53)           108.4779                                         !
 ! A100  A(52,50,53)           108.0983                                         !
 ! A101  A(47,54,55)           106.9061                                         !
 ! A102  A(46,56,57)           119.5337                                         !
 ! A103  A(46,56,58)           124.6654                                         !
 ! A104  A(57,56,58)           114.6101                                         !
 ! A105  A(56,58,59)           108.6783                                         !
 ! A106  A(56,58,60)           106.9453                                         !
 ! A107  A(56,58,61)           112.0673                                         !
 ! A108  A(59,58,60)           109.309                                          !
 ! A109  A(59,58,61)           109.8702                                         !
 ! A110  A(60,58,61)           109.8941                                         !
 ! A111  A(58,60,64)           123.9348                                         !
 ! A112  A(58,60,79)           111.6544                                         !
 ! A113  A(64,60,79)           124.3827                                         !
 ! A114  A(58,61,62)           109.049                                          !
 ! A115  A(58,61,63)           107.1826                                         !
 ! A116  A(58,61,65)           113.0091                                         !
 ! A117  A(62,61,63)           106.7872                                         !
 ! A118  A(62,61,65)           109.7618                                         !
 ! A119  A(63,61,65)           110.8276                                         !
 ! A120  A(61,65,66)           109.5528                                         !
 ! A121  A(61,65,67)           110.7872                                         !
 ! A122  A(61,65,68)           113.7048                                         !
 ! A123  A(66,65,67)           105.7575                                         !
 ! A124  A(66,65,68)           107.9098                                         !
 ! A125  A(67,65,68)           108.7863                                         !
 ! A126  A(65,68,69)           110.4372                                         !
 ! A127  A(65,68,70)           109.506                                          !
 ! A128  A(65,68,71)           109.8697                                         !
 ! A129  A(69,68,70)           108.0622                                         !
 ! A130  A(69,68,71)           109.5137                                         !
 ! A131  A(70,68,71)           109.4214                                         !
 ! A132  A(68,71,72)           118.3271                                         !
 ! A133  A(68,71,78)           125.5447                                         !
 ! A134  A(72,71,78)           115.0174                                         !
 ! A135  A(74,73,75)           115.9572                                         !
 ! A136  A(74,73,78)           118.3989                                         !
 ! A137  A(75,73,78)           120.0716                                         !
 ! A138  A(77,76,78)           114.98                                           !
 ! A139  A(71,78,73)           120.3728                                         !
 ! A140  A(71,78,76)           119.8305                                         !
 ! A141  A(73,78,76)           119.7961                                         !
 ! A142  A(60,79,81)           107.5029                                         !
 ! D1    D(2,1,5,6)             62.4381                                         !
 ! D2    D(2,1,5,7)            -52.0748                                         !
 ! D3    D(2,1,5,8)           -179.1757                                         !
 ! D4    D(3,1,5,6)           -165.4254                                         !
 ! D5    D(3,1,5,7)             80.0617                                         !
 ! D6    D(3,1,5,8)            -47.0393                                         !
 ! D7    D(4,1,5,6)            -52.4264                                         !
 ! D8    D(4,1,5,7)           -166.9393                                         !
 ! D9    D(4,1,5,8)             65.9597                                         !
 ! D10   D(1,5,7,11)           171.0999                                         !
 ! D11   D(1,5,7,18)           -10.3079                                         !
 ! D12   D(6,5,7,11)            55.6319                                         !
 ! D13   D(6,5,7,18)          -125.776                                          !
 ! D14   D(8,5,7,11)           -59.3207                                         !
 ! D15   D(8,5,7,18)           119.2715                                         !
 ! D16   D(1,5,8,9)           -170.6927                                         !
 ! D17   D(1,5,8,10)           -55.259                                          !
 ! D18   D(1,5,8,12)            67.7615                                         !
 ! D19   D(6,5,8,9)            -53.007                                          !
 ! D20   D(6,5,8,10)            62.4267                                         !
 ! D21   D(6,5,8,12)          -174.5528                                         !
 ! D22   D(7,5,8,9)             60.1111                                         !
 ! D23   D(7,5,8,10)           175.5448                                         !
 ! D24   D(7,5,8,12)           -61.4347                                         !
 ! D25   D(5,7,18,19)            2.0845                                         !
 ! D26   D(5,7,18,20)         -174.9737                                         !
 ! D27   D(11,7,18,19)        -179.37                                           !
 ! D28   D(11,7,18,20)           3.5719                                         !
 ! D29   D(5,8,12,13)           67.0184                                         !
 ! D30   D(5,8,12,14)          -51.2372                                         !
 ! D31   D(5,8,12,15)         -171.9507                                         !
 ! D32   D(9,8,12,13)          -53.8909                                         !
 ! D33   D(9,8,12,14)         -172.1466                                         !
 ! D34   D(9,8,12,15)           67.1399                                         !
 ! D35   D(10,8,12,13)        -170.5878                                         !
 ! D36   D(10,8,12,14)          71.1565                                         !
 ! D37   D(10,8,12,15)         -49.557                                          !
 ! D38   D(8,12,15,16)          -2.4051                                         !
 ! D39   D(8,12,15,17)         177.2507                                         !
 ! D40   D(13,12,15,16)        120.5609                                         !
 ! D41   D(13,12,15,17)        -59.7833                                         !
 ! D42   D(14,12,15,16)       -126.371                                          !
 ! D43   D(14,12,15,17)         53.2848                                         !
 ! D44   D(12,15,17,80)        179.2091                                         !
 ! D45   D(16,15,17,80)         -1.1216                                         !
 ! D46   D(7,18,20,21)          13.371                                          !
 ! D47   D(7,18,20,22)        -102.8611                                         !
 ! D48   D(7,18,20,23)         131.5588                                         !
 ! D49   D(19,18,20,21)       -163.6927                                         !
 ! D50   D(19,18,20,22)         80.0752                                         !
 ! D51   D(19,18,20,23)        -45.5049                                         !
 ! D52   D(18,20,22,26)        -10.1434                                         !
 ! D53   D(18,20,22,42)        168.9115                                         !
 ! D54   D(21,20,22,26)       -125.175                                          !
 ! D55   D(21,20,22,42)         53.8799                                         !
 ! D56   D(23,20,22,26)        114.7174                                         !
 ! D57   D(23,20,22,42)        -66.2277                                         !
 ! D58   D(18,20,23,24)        175.9255                                         !
 ! D59   D(18,20,23,25)         61.1645                                         !
 ! D60   D(18,20,23,27)        -61.2227                                         !
 ! D61   D(21,20,23,24)        -68.1786                                         !
 ! D62   D(21,20,23,25)        177.0605                                         !
 ! D63   D(21,20,23,27)         54.6733                                         !
 ! D64   D(22,20,23,24)         50.8828                                         !
 ! D65   D(22,20,23,25)        -63.8781                                         !
 ! D66   D(22,20,23,27)        173.7347                                         !
 ! D67   D(20,22,42,43)         12.847                                          !
 ! D68   D(20,22,42,44)       -179.6485                                         !
 ! D69   D(26,22,42,43)       -168.0803                                         !
 ! D70   D(26,22,42,44)         -0.5757                                         !
 ! D71   D(20,23,27,28)        106.9296                                         !
 ! D72   D(20,23,27,30)        -69.4703                                         !
 ! D73   D(24,23,27,28)       -131.3195                                         !
 ! D74   D(24,23,27,30)         52.2805                                         !
 ! D75   D(25,23,27,28)        -14.5694                                         !
 ! D76   D(25,23,27,30)        169.0307                                         !
 ! D77   D(23,27,28,29)          4.3955                                         !
 ! D78   D(23,27,28,34)       -177.3759                                         !
 ! D79   D(30,27,28,29)       -178.6173                                         !
 ! D80   D(30,27,28,34)         -0.3887                                         !
 ! D81   D(23,27,30,31)        176.5587                                         !
 ! D82   D(23,27,30,32)         -3.8213                                         !
 ! D83   D(28,27,30,31)         -0.4382                                         !
 ! D84   D(28,27,30,32)        179.1819                                         !
 ! D85   D(27,28,34,31)          1.1021                                         !
 ! D86   D(27,28,34,35)        171.4576                                         !
 ! D87   D(29,28,34,31)        179.5199                                         !
 ! D88   D(29,28,34,35)        -10.1247                                         !
 ! D89   D(27,30,31,34)          1.0924                                         !
 ! D90   D(27,30,31,38)       -179.3835                                         !
 ! D91   D(32,30,31,34)       -178.597                                          !
 ! D92   D(32,30,31,38)          0.9271                                         !
 ! D93   D(27,30,32,33)         -0.6488                                         !
 ! D94   D(27,30,32,40)        179.7722                                         !
 ! D95   D(31,30,32,33)        178.9367                                         !
 ! D96   D(31,30,32,40)         -0.6422                                         !
 ! D97   D(30,31,34,28)         -1.3505                                         !
 ! D98   D(30,31,34,35)       -171.7968                                         !
 ! D99   D(38,31,34,28)        179.1761                                         !
 ! D100  D(38,31,34,35)          8.7297                                         !
 ! D101  D(30,31,38,36)         -0.5006                                         !
 ! D102  D(30,31,38,39)        179.6447                                         !
 ! D103  D(34,31,38,36)        178.9041                                         !
 ! D104  D(34,31,38,39)         -0.9506                                         !
 ! D105  D(30,32,40,36)         -0.0216                                         !
 ! D106  D(30,32,40,41)        179.9888                                         !
 ! D107  D(33,32,40,36)       -179.6046                                         !
 ! D108  D(33,32,40,41)          0.4058                                         !
 ! D109  D(37,36,38,31)       -179.9261                                         !
 ! D110  D(37,36,38,39)         -0.0715                                         !
 ! D111  D(40,36,38,31)         -0.1936                                         !
 ! D112  D(40,36,38,39)        179.6611                                         !
 ! D113  D(37,36,40,32)       -179.8085                                         !
 ! D114  D(37,36,40,41)          0.1811                                         !
 ! D115  D(38,36,40,32)          0.4588                                         !
 ! D116  D(38,36,40,41)       -179.5516                                         !
 ! D117  D(22,42,44,45)         60.2928                                         !
 ! D118  D(22,42,44,46)        -62.1086                                         !
 ! D119  D(22,42,44,47)       -179.9858                                         !
 ! D120  D(43,42,44,45)       -131.5007                                         !
 ! D121  D(43,42,44,46)        106.0979                                         !
 ! D122  D(43,42,44,47)        -11.7793                                         !
 ! D123  D(42,44,46,49)        -54.2604                                         !
 ! D124  D(42,44,46,56)        128.3512                                         !
 ! D125  D(45,44,46,49)       -175.8233                                         !
 ! D126  D(45,44,46,56)          6.7883                                         !
 ! D127  D(47,44,46,49)         63.2031                                         !
 ! D128  D(47,44,46,56)       -114.1853                                         !
 ! D129  D(42,44,47,48)        166.0543                                         !
 ! D130  D(42,44,47,50)        -73.6261                                         !
 ! D131  D(42,44,47,54)         46.2575                                         !
 ! D132  D(45,44,47,48)        -75.0562                                         !
 ! D133  D(45,44,47,50)         45.2634                                         !
 ! D134  D(45,44,47,54)        165.147                                          !
 ! D135  D(46,44,47,48)         46.0117                                         !
 ! D136  D(46,44,47,50)        166.3313                                         !
 ! D137  D(46,44,47,54)        -73.7851                                         !
 ! D138  D(44,46,56,57)          2.6234                                         !
 ! D139  D(44,46,56,58)        169.4595                                         !
 ! D140  D(49,46,56,57)       -174.6686                                         !
 ! D141  D(49,46,56,58)         -7.8325                                         !
 ! D142  D(44,47,50,51)        -63.9738                                         !
 ! D143  D(44,47,50,52)        176.421                                          !
 ! D144  D(44,47,50,53)         56.9777                                         !
 ! D145  D(48,47,50,51)         55.3941                                         !
 ! D146  D(48,47,50,52)        -64.2112                                         !
 ! D147  D(48,47,50,53)        176.3456                                         !
 ! D148  D(54,47,50,51)        175.6954                                         !
 ! D149  D(54,47,50,52)         56.0902                                         !
 ! D150  D(54,47,50,53)        -63.3531                                         !
 ! D151  D(44,47,54,55)         56.0551                                         !
 ! D152  D(48,47,54,55)        -61.6859                                         !
 ! D153  D(50,47,54,55)        179.0308                                         !
 ! D154  D(46,56,58,59)        -22.5816                                         !
 ! D155  D(46,56,58,60)       -140.4791                                         !
 ! D156  D(46,56,58,61)         99.0324                                         !
 ! D157  D(57,56,58,59)        144.8301                                         !
 ! D158  D(57,56,58,60)         26.9326                                         !
 ! D159  D(57,56,58,61)        -93.5559                                         !
 ! D160  D(56,58,60,64)        -15.5283                                         !
 ! D161  D(56,58,60,79)        166.3268                                         !
 ! D162  D(59,58,60,64)       -133.0122                                         !
 ! D163  D(59,58,60,79)         48.8429                                         !
 ! D164  D(61,58,60,64)        106.3375                                         !
 ! D165  D(61,58,60,79)        -71.8073                                         !
 ! D166  D(56,58,61,62)        163.3907                                         !
 ! D167  D(56,58,61,63)         48.1392                                         !
 ! D168  D(56,58,61,65)        -74.2488                                         !
 ! D169  D(59,58,61,62)        -75.6815                                         !
 ! D170  D(59,58,61,63)        169.067                                          !
 ! D171  D(59,58,61,65)         46.679                                          !
 ! D172  D(60,58,61,62)         44.6295                                         !
 ! D173  D(60,58,61,63)        -70.6221                                         !
 ! D174  D(60,58,61,65)        166.9899                                         !
 ! D175  D(58,60,79,81)        178.2605                                         !
 ! D176  D(64,60,79,81)          0.1255                                         !
 ! D177  D(58,61,65,66)        -94.7601                                         !
 ! D178  D(58,61,65,67)         21.5399                                         !
 ! D179  D(58,61,65,68)        144.4196                                         !
 ! D180  D(62,61,65,66)         27.201                                          !
 ! D181  D(62,61,65,67)        143.5011                                         !
 ! D182  D(62,61,65,68)        -93.6192                                         !
 ! D183  D(63,61,65,66)        144.9125                                         !
 ! D184  D(63,61,65,67)        -98.7874                                         !
 ! D185  D(63,61,65,68)         24.0923                                         !
 ! D186  D(61,65,68,69)         48.1828                                         !
 ! D187  D(61,65,68,70)        167.0659                                         !
 ! D188  D(61,65,68,71)        -72.7281                                         !
 ! D189  D(66,65,68,69)        -73.5547                                         !
 ! D190  D(66,65,68,70)         45.3285                                         !
 ! D191  D(66,65,68,71)        165.5344                                         !
 ! D192  D(67,65,68,69)        172.1532                                         !
 ! D193  D(67,65,68,70)        -68.9637                                         !
 ! D194  D(67,65,68,71)         51.2423                                         !
 ! D195  D(65,68,71,72)         -8.4889                                         !
 ! D196  D(65,68,71,78)       -175.8023                                         !
 ! D197  D(69,68,71,72)       -129.9543                                         !
 ! D198  D(69,68,71,78)         62.7323                                         !
 ! D199  D(70,68,71,72)        111.7684                                         !
 ! D200  D(70,68,71,78)        -55.545                                          !
 ! D201  D(68,71,78,73)         -2.0846                                         !
 ! D202  D(68,71,78,76)        177.6325                                         !
 ! D203  D(72,71,78,73)       -169.7668                                         !
 ! D204  D(72,71,78,76)          9.9504                                         !
 ! D205  D(74,73,78,71)       -162.4957                                         !
 ! D206  D(74,73,78,76)         17.787                                          !
 ! D207  D(75,73,78,71)         -9.8691                                         !
 ! D208  D(75,73,78,76)        170.4136                                         !
 ! D209  D(77,76,78,71)         -8.8054                                         !
 ! D210  D(77,76,78,73)        170.9134                                         !
 --------------------------------------------------------------------------------
 Symmetry turned off by external request.
 Stoichiometry    C26H39N8O8(1+)
 Framework group  C1[X(C26H39N8O8)]
 Deg. of freedom   237
 Full point group                 C1      NOp   1
                          Input orientation:                          
 ---------------------------------------------------------------------
 Center     Atomic      Atomic             Coordinates (Angstroms)
 Number     Number       Type             X           Y           Z
 ---------------------------------------------------------------------
      1          7           0       -3.263216    3.757904    2.234447
      2          1           0       -1.491470    4.317456    1.499870
      3          1           0       -4.035498    3.713342    1.566806
      4          1           0       -3.519247    4.513416    2.871679
      5          6           0       -3.217533    2.500139    3.027350
      6          1           0       -2.564612    2.701669    3.883290
      7          6           0       -2.543058    1.327847    2.292269
      8          6           0       -4.585914    2.044859    3.585040
      9          1           0       -4.411355    1.218883    4.279492
     10          1           0       -5.017994    2.863155    4.172676
     11          8           0       -2.298606    0.293010    2.894661
     12          6           0       -5.576812    1.596002    2.506384
     13          1           0       -5.239081    0.675054    2.016194
     14          1           0       -5.687187    2.335971    1.701405
     15          6           0       -6.962737    1.343154    3.061000
     16          8           0       -7.290278    1.427349    4.220597
     17          8           0       -7.836245    1.004533    2.073279
     18          7           0       -2.269830    1.495214    0.961076
     19          1           0       -2.487117    2.378061    0.523743
     20          6           0       -1.736966    0.425747    0.146655
     21          1           0       -1.860607   -0.484868    0.741486
     22          6           0       -0.226611    0.613743   -0.103537
     23          6           0       -2.541409    0.284987   -1.183077
     24          1           0       -2.065007   -0.483942   -1.804638
     25          1           0       -2.455366    1.222440   -1.749803
     26          8           0        0.385779    1.658145    0.191033
     27          6           0       -3.981954   -0.046895   -0.940644
     28          6           0       -5.058804    0.794410   -1.091947
     29          1           0       -5.093775    1.809811   -1.465606
     30          6           0       -4.504767   -1.293389   -0.432507
     31          6           0       -5.908992   -1.128341   -0.291167
     32          6           0       -3.930656   -2.531720   -0.089669
     33          1           0       -2.862443   -2.702347   -0.200220
     34          7           0       -6.218634    0.148389   -0.718831
     35          1           0       -7.124213    0.582225   -0.621398
     36          6           0       -6.139354   -3.352134    0.531796
     37          1           0       -6.752985   -4.164105    0.910573
     38          6           0       -6.738291   -2.145473    0.194066
     39          1           0       -7.809102   -1.997515    0.300055
     40          6           0       -4.749574   -3.545583    0.387099
     41          1           0       -4.316909   -4.505051    0.654386
     42          7           0        0.407578   -0.436122   -0.648320
     43          1           0       -0.116785   -1.207694   -1.049016
     44          6           0        1.831648   -0.452771   -0.951627
     45          1           0        2.398356   -0.301080   -0.026479
     46          6           0        2.193788    0.619832   -1.989918
     47          6           0        2.157539   -1.848892   -1.568655
     48          1           0        3.155734   -1.781111   -2.027040
     49          8           0        1.605640    0.668596   -3.074001
     50          6           0        2.158894   -2.970271   -0.537630
     51          1           0        2.953354   -2.818472    0.200002
     52          1           0        2.329797   -3.924335   -1.043492
     53          1           0        1.201869   -3.032098   -0.009176
     54          8           0        1.175355   -2.155669   -2.548754
     55          1           0        1.176753   -1.420024   -3.192619
     56          7           0        3.215091    1.440239   -1.647797
     57          1           0        3.705197    1.290333   -0.772234
     58          6           0        3.866537    2.374942   -2.555266
     59          1           0        3.702640    2.037216   -3.583410
     60          6           0        5.361207    2.331754   -2.241521
     61          6           0        3.333344    3.819906   -2.384184
     62          1           0        4.035420    4.517642   -2.852254
     63          1           0        3.335717    4.041234   -1.309194
     64          8           0        5.826553    1.851931   -1.231202
     65          6           0        1.923078    4.017916   -2.982596
     66          1           0        2.009052    4.408504   -4.002016
     67          1           0        1.401445    3.058732   -3.074459
     68          6           0        1.044140    4.982522   -2.181263
     69          1           0        1.596184    5.904715   -1.952582
     70          1           0        0.160705    5.252863   -2.774925
     71          7           0        0.615023    4.344436   -0.929793
     72          1           0        0.814320    3.351733   -0.799033
     73          7           0       -0.724905    6.117856   -0.220096
     74          1           0       -1.128134    6.596394    0.572864
     75          1           0       -0.356641    6.707697   -0.951494
     76          7           0       -0.574873    4.171902    1.046410
     77          1           0       -0.271994    3.190502    1.042606
     78          6           0       -0.224059    4.875157   -0.034935
     79          8           0        6.086521    2.925279   -3.202753
     80          1           0       -8.693447    0.847822    2.514069
     81          1           0        7.023705    2.888074   -2.928971
 ---------------------------------------------------------------------
 Rotational constants (GHZ):           0.1260365           0.0450627           0.0375022
 Standard basis: 6-31G(d) (6D, 7F)
   708 basis functions,  1332 primitive gaussians,   708 cartesian basis functions
   157 alpha electrons      157 beta electrons
       nuclear repulsion energy      5346.6158465420 Hartrees.
 NAtoms=   81 NActive=   81 NUniq=   81 SFac= 1.00D+00 NAtFMM=   60 NAOKFM=T Big=T
 Integral buffers will be    131072 words long.
 Raffenetti 2 integral format.
 Two-electron integral symmetry is turned off.
 One-electron integrals computed using PRISM.
 NBasis=   708 RedAO= T EigKep=  3.70D-04  NBF=   708
 NBsUse=   708 1.00D-06 EigRej= -1.00D+00 NBFU=   708
 Initial guess from the checkpoint file:  "conf-617.chk"
 B after Tr=     0.000000    0.000000    0.000000
         Rot=    1.000000    0.000000    0.000000    0.000000 Ang=   0.00 deg.
 Requested convergence on RMS density matrix=1.00D-08 within 128 cycles.
 Requested convergence on MAX density matrix=1.00D-06.
 Requested convergence on             energy=1.00D-06.
 No special actions if energy rises.
 SCF Done:  E(RB3LYP) =  -2053.97645495     A.U. after    1 cycles
            NFock=  1  Conv=0.50D-08     -V/T= 2.0093

 **********************************************************************

            Population analysis using the SCF Density.

 **********************************************************************

 Alpha  occ. eigenvalues --  -19.30040 -19.27437 -19.24611 -19.24170 -19.23413
 Alpha  occ. eigenvalues --  -19.22566 -19.21736 -19.20411 -14.50973 -14.49997
 Alpha  occ. eigenvalues --  -14.47299 -14.47277 -14.47070 -14.46007 -14.45545
 Alpha  occ. eigenvalues --  -14.45344 -10.46103 -10.42628 -10.40485 -10.39983
 Alpha  occ. eigenvalues --  -10.39685 -10.38080 -10.35682 -10.34794 -10.33953
 Alpha  occ. eigenvalues --  -10.33828 -10.33620 -10.32981 -10.30421 -10.30391
 Alpha  occ. eigenvalues --  -10.29955 -10.29760 -10.28950 -10.28788 -10.27954
 Alpha  occ. eigenvalues --  -10.26411 -10.26132 -10.25677 -10.25605 -10.25563
 Alpha  occ. eigenvalues --  -10.25022 -10.24687  -1.21110  -1.18118  -1.15691
 Alpha  occ. eigenvalues --   -1.14764  -1.14267  -1.12702  -1.12291  -1.11090
 Alpha  occ. eigenvalues --   -1.09267  -1.05334  -1.04499  -1.03686  -1.03447
 Alpha  occ. eigenvalues --   -1.02951  -1.02210  -1.00859  -0.91745  -0.90831
 Alpha  occ. eigenvalues --   -0.89615  -0.88270  -0.87991  -0.86351  -0.84343
 Alpha  occ. eigenvalues --   -0.81330  -0.81038  -0.80374  -0.79846  -0.78944
 Alpha  occ. eigenvalues --   -0.77028  -0.75840  -0.73791  -0.73073  -0.72297
 Alpha  occ. eigenvalues --   -0.71448  -0.69993  -0.69282  -0.69246  -0.68987
 Alpha  occ. eigenvalues --   -0.68711  -0.67854  -0.66731  -0.66134  -0.64674
 Alpha  occ. eigenvalues --   -0.63424  -0.63312  -0.62755  -0.61823  -0.61514
 Alpha  occ. eigenvalues --   -0.61001  -0.60463  -0.60341  -0.59875  -0.59538
 Alpha  occ. eigenvalues --   -0.58744  -0.58465  -0.58186  -0.57385  -0.57022
 Alpha  occ. eigenvalues --   -0.56459  -0.55884  -0.55712  -0.55552  -0.55105
 Alpha  occ. eigenvalues --   -0.54536  -0.54171  -0.53903  -0.53714  -0.53606
 Alpha  occ. eigenvalues --   -0.52521  -0.52181  -0.51928  -0.51368  -0.51272
 Alpha  occ. eigenvalues --   -0.50631  -0.50508  -0.49968  -0.49747  -0.49539
 Alpha  occ. eigenvalues --   -0.48921  -0.48894  -0.48363  -0.47810  -0.47612
 Alpha  occ. eigenvalues --   -0.47059  -0.46979  -0.46722  -0.46353  -0.46058
 Alpha  occ. eigenvalues --   -0.45793  -0.45646  -0.45227  -0.45165  -0.44035
 Alpha  occ. eigenvalues --   -0.43597  -0.42533  -0.42202  -0.42122  -0.41653
 Alpha  occ. eigenvalues --   -0.40546  -0.40108  -0.39668  -0.39532  -0.38675
 Alpha  occ. eigenvalues --   -0.38295  -0.38146  -0.37972  -0.36630  -0.36399
 Alpha  occ. eigenvalues --   -0.35400  -0.35252  -0.35213  -0.34373  -0.34055
 Alpha  occ. eigenvalues --   -0.29282  -0.27699
 Alpha virt. eigenvalues --   -0.10812  -0.10106  -0.09659  -0.08515  -0.08237
 Alpha virt. eigenvalues --   -0.07164  -0.06902  -0.06101  -0.04635  -0.04068
 Alpha virt. eigenvalues --   -0.02929  -0.02064  -0.01931  -0.01108  -0.01049
 Alpha virt. eigenvalues --   -0.00536  -0.00514  -0.00015   0.01076   0.01516
 Alpha virt. eigenvalues --    0.01850   0.02178   0.02497   0.02978   0.03103
 Alpha virt. eigenvalues --    0.03743   0.03821   0.04355   0.04492   0.04765
 Alpha virt. eigenvalues --    0.05135   0.05633   0.05896   0.06165   0.06543
 Alpha virt. eigenvalues --    0.07215   0.07373   0.07507   0.07889   0.08471
 Alpha virt. eigenvalues --    0.08634   0.08918   0.09111   0.09643   0.09849
 Alpha virt. eigenvalues --    0.10198   0.10675   0.10750   0.10915   0.11597
 Alpha virt. eigenvalues --    0.11758   0.11936   0.12230   0.12677   0.12913
 Alpha virt. eigenvalues --    0.13616   0.13795   0.14053   0.14508   0.15364
 Alpha virt. eigenvalues --    0.15595   0.15734   0.16053   0.16356   0.17145
 Alpha virt. eigenvalues --    0.17362   0.17763   0.18132   0.18495   0.19179
 Alpha virt. eigenvalues --    0.19911   0.20096   0.21162   0.22084   0.22892
 Alpha virt. eigenvalues --    0.24981   0.25194   0.25562   0.26612   0.26871
 Alpha virt. eigenvalues --    0.27009   0.27830   0.28842   0.29028   0.29724
 Alpha virt. eigenvalues --    0.31723   0.32272   0.33562   0.33801   0.35910
 Alpha virt. eigenvalues --    0.37304   0.38465   0.38828   0.40107   0.40425
 Alpha virt. eigenvalues --    0.41185   0.41346   0.41619   0.41900   0.42823
 Alpha virt. eigenvalues --    0.43068   0.43358   0.44300   0.44793   0.45076
 Alpha virt. eigenvalues --    0.45359   0.45788   0.45907   0.46386   0.47235
 Alpha virt. eigenvalues --    0.47485   0.47684   0.48157   0.48514   0.48622
 Alpha virt. eigenvalues --    0.49223   0.49811   0.50094   0.50180   0.50294
 Alpha virt. eigenvalues --    0.50857   0.51411   0.51660   0.52217   0.52363
 Alpha virt. eigenvalues --    0.52629   0.53222   0.53708   0.53908   0.54458
 Alpha virt. eigenvalues --    0.54939   0.55268   0.55695   0.55916   0.56191
 Alpha virt. eigenvalues --    0.56225   0.56718   0.56961   0.57215   0.57499
 Alpha virt. eigenvalues --    0.57568   0.58428   0.59129   0.59526   0.59756
 Alpha virt. eigenvalues --    0.60189   0.60886   0.61223   0.61736   0.62493
 Alpha virt. eigenvalues --    0.62602   0.62946   0.63479   0.64338   0.65112
 Alpha virt. eigenvalues --    0.65776   0.66356   0.67056   0.67551   0.68244
 Alpha virt. eigenvalues --    0.68551   0.68763   0.69261   0.69942   0.70320
 Alpha virt. eigenvalues --    0.70822   0.71275   0.71511   0.71676   0.72342
 Alpha virt. eigenvalues --    0.72662   0.73172   0.73339   0.73374   0.73754
 Alpha virt. eigenvalues --    0.74244   0.74385   0.74947   0.75513   0.75618
 Alpha virt. eigenvalues --    0.76120   0.76641   0.76806   0.77300   0.77730
 Alpha virt. eigenvalues --    0.78018   0.78351   0.78563   0.78947   0.79156
 Alpha virt. eigenvalues --    0.79438   0.79507   0.79658   0.80460   0.80874
 Alpha virt. eigenvalues --    0.81505   0.81585   0.81860   0.82476   0.82587
 Alpha virt. eigenvalues --    0.82760   0.83373   0.83557   0.83624   0.84130
 Alpha virt. eigenvalues --    0.84539   0.84978   0.85174   0.85626   0.85777
 Alpha virt. eigenvalues --    0.86202   0.86651   0.87199   0.87826   0.88072
 Alpha virt. eigenvalues --    0.88909   0.89194   0.89453   0.90224   0.90413
 Alpha virt. eigenvalues --    0.90762   0.91147   0.91744   0.91861   0.92525
 Alpha virt. eigenvalues --    0.93152   0.93387   0.94413   0.95196   0.95664
 Alpha virt. eigenvalues --    0.96326   0.96931   0.97694   0.98038   0.98941
 Alpha virt. eigenvalues --    1.00011   1.00354   1.00687   1.01668   1.01776
 Alpha virt. eigenvalues --    1.02295   1.02775   1.03318   1.04049   1.04907
 Alpha virt. eigenvalues --    1.05317   1.06104   1.06423   1.06579   1.07216
 Alpha virt. eigenvalues --    1.07997   1.08873   1.09164   1.10332   1.11017
 Alpha virt. eigenvalues --    1.11559   1.12368   1.13062   1.14321   1.14626
 Alpha virt. eigenvalues --    1.16474   1.16810   1.17202   1.17929   1.19150
 Alpha virt. eigenvalues --    1.20015   1.20453   1.21853   1.22545   1.23936
 Alpha virt. eigenvalues --    1.24480   1.25702   1.25989   1.26305   1.26973
 Alpha virt. eigenvalues --    1.26991   1.27746   1.28896   1.29734   1.31031
 Alpha virt. eigenvalues --    1.31105   1.31529   1.31764   1.32653   1.34730
 Alpha virt. eigenvalues --    1.34857   1.35203   1.36619   1.37764   1.38810
 Alpha virt. eigenvalues --    1.39182   1.39446   1.40046   1.40810   1.41561
 Alpha virt. eigenvalues --    1.42650   1.43093   1.43647   1.43833   1.44667
 Alpha virt. eigenvalues --    1.45094   1.45695   1.46488   1.46929   1.47692
 Alpha virt. eigenvalues --    1.48537   1.48907   1.50437   1.51736   1.52248
 Alpha virt. eigenvalues --    1.53655   1.54127   1.54712   1.56040   1.57438
 Alpha virt. eigenvalues --    1.57819   1.57951   1.59199   1.60133   1.60635
 Alpha virt. eigenvalues --    1.61135   1.62229   1.62530   1.62999   1.63507
 Alpha virt. eigenvalues --    1.64351   1.64844   1.64939   1.66381   1.67196
 Alpha virt. eigenvalues --    1.67340   1.67754   1.69089   1.69216   1.69574
 Alpha virt. eigenvalues --    1.70045   1.70514   1.70945   1.71472   1.71553
 Alpha virt. eigenvalues --    1.72292   1.72895   1.73235   1.73955   1.74405
 Alpha virt. eigenvalues --    1.74547   1.74860   1.76020   1.76205   1.76540
 Alpha virt. eigenvalues --    1.77625   1.78281   1.78536   1.79015   1.79365
 Alpha virt. eigenvalues --    1.79907   1.80640   1.81080   1.81928   1.82713
 Alpha virt. eigenvalues --    1.83142   1.83946   1.84583   1.85250   1.85361
 Alpha virt. eigenvalues --    1.85623   1.86031   1.86774   1.87485   1.88436
 Alpha virt. eigenvalues --    1.88910   1.89355   1.90268   1.91100   1.91434
 Alpha virt. eigenvalues --    1.91849   1.92244   1.92365   1.92663   1.93573
 Alpha virt. eigenvalues --    1.93861   1.94521   1.94897   1.95324   1.95550
 Alpha virt. eigenvalues --    1.96688   1.97491   1.98253   1.99024   1.99250
 Alpha virt. eigenvalues --    2.00224   2.00788   2.01554   2.02216   2.02503
 Alpha virt. eigenvalues --    2.03554   2.04417   2.04721   2.05133   2.06658
 Alpha virt. eigenvalues --    2.07088   2.07577   2.07769   2.09021   2.09534
 Alpha virt. eigenvalues --    2.10346   2.10568   2.11136   2.12233   2.13042
 Alpha virt. eigenvalues --    2.14218   2.15701   2.16570   2.17153   2.18068
 Alpha virt. eigenvalues --    2.18542   2.19481   2.20060   2.20472   2.20737
 Alpha virt. eigenvalues --    2.21136   2.22476   2.23844   2.24450   2.25150
 Alpha virt. eigenvalues --    2.25588   2.26977   2.27720   2.28522   2.29840
 Alpha virt. eigenvalues --    2.30440   2.31369   2.32645   2.32928   2.33547
 Alpha virt. eigenvalues --    2.33630   2.34048   2.35086   2.35926   2.36207
 Alpha virt. eigenvalues --    2.37837   2.39217   2.39584   2.40042   2.40538
 Alpha virt. eigenvalues --    2.40632   2.42266   2.42687   2.43917   2.44180
 Alpha virt. eigenvalues --    2.44333   2.44768   2.45652   2.46146   2.47066
 Alpha virt. eigenvalues --    2.48770   2.50053   2.50663   2.51004   2.52210
 Alpha virt. eigenvalues --    2.52441   2.53475   2.54373   2.54797   2.56391
 Alpha virt. eigenvalues --    2.56700   2.57523   2.58853   2.59578   2.60374
 Alpha virt. eigenvalues --    2.61143   2.61547   2.62478   2.63360   2.64507
 Alpha virt. eigenvalues --    2.65217   2.66021   2.66145   2.67769   2.69099
 Alpha virt. eigenvalues --    2.70005   2.70722   2.71805   2.73825   2.75377
 Alpha virt. eigenvalues --    2.77157   2.78935   2.79877   2.80264   2.82646
 Alpha virt. eigenvalues --    2.85063   2.86964   2.87782   2.88624   2.90332
 Alpha virt. eigenvalues --    2.90370   2.92028   2.93140   2.93714   2.96046
 Alpha virt. eigenvalues --    2.98857   2.99990   3.03460   3.05314   3.06116
 Alpha virt. eigenvalues --    3.07825   3.10397   3.17406   3.37523   3.68473
 Alpha virt. eigenvalues --    3.74369   3.75721   3.76838   3.77205   3.85077
 Alpha virt. eigenvalues --    3.89003   3.90309   3.94870   3.95526   4.00811
 Alpha virt. eigenvalues --    4.01177   4.02742   4.03022   4.04685   4.05672
 Alpha virt. eigenvalues --    4.07359   4.08445   4.13153   4.13416   4.13753
 Alpha virt. eigenvalues --    4.14140   4.15675   4.19230   4.22205   4.25688
 Alpha virt. eigenvalues --    4.26283   4.29566   4.31790   4.32475   4.33221
 Alpha virt. eigenvalues --    4.34771   4.38734   4.43586   4.45310   4.48707
 Alpha virt. eigenvalues --    4.49129   4.53956   4.55983   4.59729   4.62570
 Alpha virt. eigenvalues --    4.72748
          Condensed to atoms (all electrons):
 Mulliken charges:
               1
     1  N   -0.781170
     2  H    0.388952
     3  H    0.319969
     4  H    0.334796
     5  C   -0.091597
     6  H    0.189698
     7  C    0.620363
     8  C   -0.264075
     9  H    0.203531
    10  H    0.160875
    11  O   -0.501974
    12  C   -0.383702
    13  H    0.225101
    14  H    0.143866
    15  C    0.588273
    16  O   -0.440387
    17  O   -0.583757
    18  N   -0.612000
    19  H    0.322657
    20  C   -0.074900
    21  H    0.222739
    22  C    0.661117
    23  C   -0.391640
    24  H    0.172070
    25  H    0.143738
    26  O   -0.589887
    27  C    0.091446
    28  C   -0.019338
    29  H    0.139303
    30  C    0.090286
    31  C    0.299895
    32  C   -0.204063
    33  H    0.113766
    34  N   -0.675503
    35  H    0.341422
    36  C   -0.149371
    37  H    0.143157
    38  C   -0.158199
    39  H    0.135951
    40  C   -0.134873
    41  H    0.138789
    42  N   -0.589916
    43  H    0.367623
    44  C   -0.059455
    45  H    0.171503
    46  C    0.640305
    47  C    0.089364
    48  H    0.152082
    49  O   -0.553238
    50  C   -0.451109
    51  H    0.160311
    52  H    0.189179
    53  H    0.157859
    54  O   -0.630425
    55  H    0.420604
    56  N   -0.603142
    57  H    0.361103
    58  C   -0.055112
    59  H    0.211849
    60  C    0.584318
    61  C   -0.280155
    62  H    0.184904
    63  H    0.160373
    64  O   -0.453764
    65  C   -0.329789
    66  H    0.180510
    67  H    0.203549
    68  C   -0.154031
    69  H    0.173828
    70  H    0.176997
    71  N   -0.626109
    72  H    0.403897
    73  N   -0.756897
    74  H    0.375418
    75  H    0.377898
    76  N   -0.806323
    77  H    0.410025
    78  C    0.762858
    79  O   -0.555104
    80  H    0.420212
    81  H    0.432674
 Sum of Mulliken charges =   1.00000
 Mulliken charges with hydrogens summed into heavy atoms:
               1
     1  N   -0.126406
     5  C    0.098101
     7  C    0.620363
     8  C    0.100331
    11  O   -0.501974
    12  C   -0.014734
    15  C    0.588273
    16  O   -0.440387
    17  O   -0.163545
    18  N   -0.289344
    20  C    0.147840
    22  C    0.661117
    23  C   -0.075832
    26  O   -0.589887
    27  C    0.091446
    28  C    0.119965
    30  C    0.090286
    31  C    0.299895
    32  C   -0.090297
    34  N   -0.334080
    36  C   -0.006213
    38  C   -0.022248
    40  C    0.003916
    42  N   -0.222292
    44  C    0.112049
    46  C    0.640305
    47  C    0.241445
    49  O   -0.553238
    50  C    0.056239
    54  O   -0.209821
    56  N   -0.242039
    58  C    0.156737
    60  C    0.584318
    61  C    0.065122
    64  O   -0.453764
    65  C    0.054270
    68  C    0.196794
    71  N   -0.222212
    73  N   -0.003580
    76  N   -0.007346
    78  C    0.762858
    79  O   -0.122430
 Electronic spatial extent (au):  <R**2>=          31086.6029
 Charge=              1.0000 electrons
 Dipole moment (field-independent basis, Debye):
    X=             -3.0713    Y=             19.3614    Z=             -4.1079  Tot=             20.0293
 Quadrupole moment (field-independent basis, Debye-Ang):
   XX=           -144.2288   YY=           -125.9920   ZZ=           -245.3620
   XY=            -10.6719   XZ=            -20.3565   YZ=            -12.5174
 Traceless Quadrupole moment (field-independent basis, Debye-Ang):
   XX=             27.6321   YY=             45.8689   ZZ=            -73.5011
   XY=            -10.6719   XZ=            -20.3565   YZ=            -12.5174
 Octapole moment (field-independent basis, Debye-Ang**2):
  XXX=            643.0551  YYY=           -156.8217  ZZZ=             52.5692  XYY=            250.9657
  XXY=            -92.9526  XXZ=            -79.2253  XZZ=            430.6250  YZZ=           -169.6282
  YYZ=             17.5559  XYZ=            -69.5669
 Hexadecapole moment (field-independent basis, Debye-Ang**3):
 XXXX=         -17206.1688 YYYY=          -6267.9272 ZZZZ=          -6022.5205 XXXY=           -409.0703
 XXXZ=           2624.0877 YYYX=          -1143.0770 YYYZ=            -85.2124 ZZZX=           3868.3183
 ZZZY=            123.5175 XXYY=          -4789.6724 XXZZ=          -5100.6895 YYZZ=          -2326.9687
 XXYZ=           -373.4629 YYXZ=            710.1242 ZZXY=           -219.9483
 N-N= 5.346615846542D+03 E-N=-1.545102869347D+04  KE= 2.034996277208D+03
 Unable to Open any file for archive entry.
 1\1\GINC-SKL-154\SP\RB3LYP\6-31G(d)\C26H39N8O8(1+)\KENGMITH\26-May-202
 2\0\\# B3LYP/6-31G* guess=read geom=check nosymm integral(ultrafinegri
 d)\\Candidate Structure: Conf:617 Charge calc in gas phase\\1,1\N,0,-3
 .2632158591,3.757903533,2.2344472689\H,0,-1.4914704602,4.3174563191,1.
 4998695246\H,0,-4.0354978057,3.7133421057,1.5668063981\H,0,-3.51924653
 63,4.5134158683,2.8716794797\C,0,-3.2175330057,2.5001386307,3.02735038
 33\H,0,-2.5646118837,2.7016690078,3.8832903534\C,0,-2.5430575399,1.327
 8472154,2.2922694762\C,0,-4.5859143663,2.0448590723,3.5850403387\H,0,-
 4.4113551481,1.2188826711,4.2794920584\H,0,-5.0179938877,2.8631553518,
 4.1726755183\O,0,-2.2986063297,0.2930102055,2.8946611723\C,0,-5.576811
 5005,1.5960015268,2.5063840024\H,0,-5.2390809069,0.6750541167,2.016193
 7791\H,0,-5.6871871435,2.3359713233,1.7014047142\C,0,-6.9627372146,1.3
 431538079,3.0609997122\O,0,-7.2902779252,1.4273494184,4.2205973121\O,0
 ,-7.8362445861,1.0045326483,2.0732794772\N,0,-2.2698300563,1.495214302
 2,0.9610759577\H,0,-2.4871171092,2.3780612709,0.5237426051\C,0,-1.7369
 660373,0.4257471331,0.1466546336\H,0,-1.8606069299,-0.4848676692,0.741
 4862612\C,0,-0.2266110131,0.6137433902,-0.1035370007\C,0,-2.541408928,
 0.2849866961,-1.1830766818\H,0,-2.0650072137,-0.4839422058,-1.80463766
 54\H,0,-2.4553660944,1.2224399595,-1.7498028187\O,0,0.3857790667,1.658
 1450174,0.1910325626\C,0,-3.9819540747,-0.0468950269,-0.9406441242\C,0
 ,-5.0588035023,0.7944104879,-1.0919471862\H,0,-5.0937751293,1.80981148
 2,-1.4656064803\C,0,-4.5047667313,-1.2933893639,-0.4325070999\C,0,-5.9
 089920523,-1.1283406116,-0.2911674879\C,0,-3.9306562779,-2.5317195639,
 -0.0896685107\H,0,-2.8624425064,-2.7023468505,-0.2002199129\N,0,-6.218
 6335358,0.1483890852,-0.7188308689\H,0,-7.1242126461,0.5822249354,-0.6
 213980113\C,0,-6.1393537929,-3.3521342757,0.5317960834\H,0,-6.75298545
 6,-4.16410499,0.9105725664\C,0,-6.7382910089,-2.1454725852,0.194065520
 9\H,0,-7.8091020762,-1.9975147209,0.3000546842\C,0,-4.7495737897,-3.54
 55827463,0.3870988144\H,0,-4.3169085262,-4.5050510782,0.6543856683\N,0
 ,0.4075775597,-0.4361219962,-0.6483204458\H,0,-0.1167849878,-1.2076936
 974,-1.0490161\C,0,1.8316482429,-0.4527707017,-0.9516267736\H,0,2.3983
 560789,-0.3010797723,-0.0264785471\C,0,2.1937880157,0.6198322318,-1.98
 99183272\C,0,2.1575385578,-1.8488924706,-1.5686550385\H,0,3.1557335575
 ,-1.7811107284,-2.0270397937\O,0,1.6056398914,0.6685955436,-3.07400099
 26\C,0,2.1588936744,-2.9702709362,-0.5376304164\H,0,2.9533536945,-2.81
 8471792,0.2000023298\H,0,2.3297974952,-3.9243346855,-1.0434915598\H,0,
 1.2018692866,-3.0320984102,-0.0091763971\O,0,1.1753551258,-2.155668840
 4,-2.5487540738\H,0,1.1767532085,-1.4200238681,-3.1926190331\N,0,3.215
 0907075,1.4402389177,-1.6477968739\H,0,3.7051966476,1.2903326708,-0.77
 22342706\C,0,3.8665370996,2.3749421319,-2.5552660294\H,0,3.7026395868,
 2.0372160622,-3.5834104248\C,0,5.3612071617,2.3317537057,-2.2415208292
 \C,0,3.3333436369,3.8199062955,-2.3841840273\H,0,4.0354204513,4.517641
 8719,-2.8522543655\H,0,3.3357173567,4.0412339417,-1.3091944033\O,0,5.8
 265527516,1.8519311005,-1.2312018497\C,0,1.9230777667,4.0179163746,-2.
 982595819\H,0,2.0090520048,4.4085044307,-4.0020164816\H,0,1.4014445918
 ,3.0587323835,-3.0744594591\C,0,1.0441403625,4.9825215495,-2.181262897
 4\H,0,1.5961842987,5.9047152611,-1.9525821359\H,0,0.1607050459,5.25286
 28602,-2.7749251658\N,0,0.6150234061,4.3444361747,-0.929792552\H,0,0.8
 14320234,3.3517327467,-0.7990332893\N,0,-0.7249047155,6.1178555504,-0.
 2200959082\H,0,-1.1281341975,6.5963944728,0.5728635429\H,0,-0.35664078
 7,6.707697022,-0.9514940682\N,0,-0.5748727744,4.1719018888,1.046409719
 4\H,0,-0.271994454,3.1905020736,1.0426061881\C,0,-0.2240585433,4.87515
 71571,-0.0349346733\O,0,6.0865210292,2.9252789591,-3.2027526051\H,0,-8
 .6934473713,0.8478220112,2.5140686075\H,0,7.0237052325,2.8880739557,-2
 .9289707785\\Version=ES64L-G16RevC.01\HF=-2053.9764549\RMSD=5.009e-09\
 Dipole=1.1514972,5.5171312,-1.3247038\Quadrupole=20.5438198,34.1024378
 ,-54.6462576,-7.9342769,-15.1345787,-9.3064099\PG=C01 [X(C26H39N8O8)]\
 \@
 The archive entry for this job was punched.


 THE NUMBERS ARE MEANINGLESS, BUT THE TRENDS ARE IMPORTANT.
     -- LARRY BURGGRAF
 Job cpu time:       0 days  0 hours  1 minutes 55.7 seconds.
 Elapsed time:       0 days  0 hours  0 minutes 29.8 seconds.
 File lengths (MBytes):  RWF=    376 Int=      0 D2E=      0 Chk=     56 Scr=     16
 Normal termination of Gaussian 16 at Thu May 26 18:08:07 2022.
