 Entering Gaussian System, Link 0=/opt/software/Gaussian/g16-AVX2-C.01/g16/g16
 Input=charge-conf-879.com
 Output=charge-conf-879.log
 Initial command:
 /opt/software/Gaussian/g16-AVX2-C.01/g16/l1.exe "/mnt/gs18/scratch/users/kengmith/Gau-71408.inp" -scrdir="/mnt/gs18/scratch/users/kengmith/"
 Entering Link 1 = /opt/software/Gaussian/g16-AVX2-C.01/g16/l1.exe PID=     71418.
  
 Copyright (c) 1988-2019, Gaussian, Inc.  All Rights Reserved.
  
 This is part of the Gaussian(R) 16 program.  It is based on
 the Gaussian(R) 09 system (copyright 2009, Gaussian, Inc.),
 the Gaussian(R) 03 system (copyright 2003, Gaussian, Inc.),
 the Gaussian(R) 98 system (copyright 1998, Gaussian, Inc.),
 the Gaussian(R) 94 system (copyright 1995, Gaussian, Inc.),
 the Gaussian 92(TM) system (copyright 1992, Gaussian, Inc.),
 the Gaussian 90(TM) system (copyright 1990, Gaussian, Inc.),
 the Gaussian 88(TM) system (copyright 1988, Gaussian, Inc.),
 the Gaussian 86(TM) system (copyright 1986, Carnegie Mellon
 University), and the Gaussian 82(TM) system (copyright 1983,
 Carnegie Mellon University). Gaussian is a federally registered
 trademark of Gaussian, Inc.
  
 This software contains proprietary and confidential information,
 including trade secrets, belonging to Gaussian, Inc.
  
 This software is provided under written license and may be
 used, copied, transmitted, or stored only in accord with that
 written license.
  
 The following legend is applicable only to US Government
 contracts under FAR:
  
                    RESTRICTED RIGHTS LEGEND
  
 Use, reproduction and disclosure by the US Government is
 subject to restrictions as set forth in subparagraphs (a)
 and (c) of the Commercial Computer Software - Restricted
 Rights clause in FAR 52.227-19.
  
 Gaussian, Inc.
 340 Quinnipiac St., Bldg. 40, Wallingford CT 06492
  
  
 ---------------------------------------------------------------
 Warning -- This program may not be used in any manner that
 competes with the business of Gaussian, Inc. or will provide
 assistance to any competitor of Gaussian, Inc.  The licensee
 of this program is prohibited from giving any competitor of
 Gaussian, Inc. access to this program.  By using this program,
 the user acknowledges that Gaussian, Inc. is engaged in the
 business of creating and licensing software in the field of
 computational chemistry and represents and warrants to the
 licensee that it is not a competitor of Gaussian, Inc. and that
 it will not use this program in any manner prohibited above.
 ---------------------------------------------------------------
  

 Cite this work as:
 Gaussian 16, Revision C.01,
 M. J. Frisch, G. W. Trucks, H. B. Schlegel, G. E. Scuseria, 
 M. A. Robb, J. R. Cheeseman, G. Scalmani, V. Barone, 
 G. A. Petersson, H. Nakatsuji, X. Li, M. Caricato, A. V. Marenich, 
 J. Bloino, B. G. Janesko, R. Gomperts, B. Mennucci, H. P. Hratchian, 
 J. V. Ortiz, A. F. Izmaylov, J. L. Sonnenberg, D. Williams-Young, 
 F. Ding, F. Lipparini, F. Egidi, J. Goings, B. Peng, A. Petrone, 
 T. Henderson, D. Ranasinghe, V. G. Zakrzewski, J. Gao, N. Rega, 
 G. Zheng, W. Liang, M. Hada, M. Ehara, K. Toyota, R. Fukuda, 
 J. Hasegawa, M. Ishida, T. Nakajima, Y. Honda, O. Kitao, H. Nakai, 
 T. Vreven, K. Throssell, J. A. Montgomery, Jr., J. E. Peralta, 
 F. Ogliaro, M. J. Bearpark, J. J. Heyd, E. N. Brothers, K. N. Kudin, 
 V. N. Staroverov, T. A. Keith, R. Kobayashi, J. Normand, 
 K. Raghavachari, A. P. Rendell, J. C. Burant, S. S. Iyengar, 
 J. Tomasi, M. Cossi, J. M. Millam, M. Klene, C. Adamo, R. Cammi, 
 J. W. Ochterski, R. L. Martin, K. Morokuma, O. Farkas, 
 J. B. Foresman, and D. J. Fox, Gaussian, Inc., Wallingford CT, 2019.
 
 ******************************************
 Gaussian 16:  ES64L-G16RevC.01  3-Jul-2019
                31-May-2022 
 ******************************************
 %mem=8gb
 %nproc=4
 Will use up to    4 processors via shared memory.
 %chk=conf-879.chk
 ----------------------------------------------------------------------
 # B3LYP/6-31G* empiricaldispersion=gd3 guess=read geom=check nosymm in
 tegral(ultrafinegrid)
 ----------------------------------------------------------------------
 1/29=2,38=1,172=1/1;
 2/12=2,15=1,40=1/2;
 3/5=1,6=6,7=1,11=2,14=-4,25=1,30=1,74=-5,75=-5,116=-2,124=31/1,2,3;
 4/5=1/1;
 5/5=2,38=6/2;
 6/7=2,8=2,9=2,10=2,28=1/1;
 99/5=1,9=1/99;
 ------------------------------------------------------
 Candidate Structure: Conf:879 Charge calc in gas phase
 ------------------------------------------------------
 Structure from the checkpoint file:  "conf-879.chk"
 Charge =  1 Multiplicity = 1
 Redundant internal coordinates found in file.  (old form).
 N,0,-3.9371247257,-1.7690266079,1.8703113224
 H,0,-4.2137985415,-2.0394622798,2.8134137998
 H,0,-4.7447252892,-1.3201311628,1.4424539973
 C,0,-2.8060910638,-0.8235774862,1.9358944473
 H,0,-2.9667626069,-0.0516384895,2.7039858644
 C,0,-2.6244276101,-0.1166621468,0.5745986225
 C,0,-1.4912380377,-1.5519687324,2.2967488524
 H,0,-0.6841210018,-0.8200781718,2.3840003228
 H,0,-1.6101240407,-2.0267639916,3.2793044537
 O,0,-2.0479778557,-0.6589484488,-0.3749228986
 C,0,-1.0295920129,-2.618806025,1.30820366
 N,0,-1.9396774459,-3.5340087951,0.9508748993
 H,0,-1.6868080796,-4.2234479361,0.2547551405
 H,0,-2.9240935801,-3.3018931174,1.1054859499
 O,0,0.160524593,-2.6716266569,0.9206472687
 N,0,-3.1169840364,1.1368691228,0.5196250585
 H,0,-3.6173594425,1.5035301923,1.3194718457
 C,0,-3.0316740382,1.9855071467,-0.6765253619
 H,0,-3.321229075,1.3735764457,-1.5380241996
 C,0,-1.5568197613,2.4336744105,-0.769923099
 C,0,-3.9638763609,3.2037931145,-0.5448197792
 H,0,-3.5290170834,3.8784988954,0.199863882
 H,0,-3.9421621731,3.7334652514,-1.5043962016
 O,0,-1.1059143833,3.2754957829,-0.0054971601
 C,0,-5.3710949972,2.8051330122,-0.1653217729
 C,0,-5.8162937878,2.9480275306,1.1558503853
 H,0,-5.1788450482,3.4447554603,1.8868280558
 C,0,-6.2252001838,2.2098818446,-1.1029845941
 H,0,-5.8931196889,2.0956118637,-2.1326670782
 C,0,-7.0846770595,2.4995640183,1.5362211746
 H,0,-7.4200434594,2.6301611886,2.5615661395
 C,0,-7.4922743919,1.7657503644,-0.7291074317
 H,0,-8.1461490146,1.3130471668,-1.469165352
 C,0,-7.9240811732,1.9052190007,0.5934882739
 H,0,-8.914030782,1.5636935595,0.882202982
 N,0,-0.8024568453,1.7559320628,-1.6828332546
 H,0,-1.2193902807,0.9203483558,-2.0794055686
 C,0,0.6349184693,1.6537456818,-1.4757611837
 H,0,1.0658616394,2.6533884783,-1.3948313671
 C,0,1.2480833429,0.8535323218,-2.6158592424
 C,0,0.8854672908,0.8621898516,-0.1479035806
 H,0,0.2197598672,-0.0044771429,-0.1461013783
 H,0,0.5699038802,1.5231881274,0.6673556166
 O,0,0.592772657,-0.0507975077,-3.1578392581
 C,0,2.3222831681,0.4392786435,0.1146587698
 N,0,2.455806286,-0.8093597459,0.6441879061
 H,0,3.3732152495,-1.0693411699,0.9838909854
 H,0,1.6545553898,-1.3603819423,0.9479918494
 O,0,3.284427797,1.1579096807,-0.149322357
 N,0,2.5560537243,1.0804963598,-2.8759474304
 H,0,3.0140849195,1.7428687099,-2.2565495635
 C,0,3.3957074663,-0.0673455191,-3.2393453515
 H,0,3.1126664321,-0.8846467747,-2.5722058035
 C,0,4.8698665416,0.1577525718,-2.9584458254
 C,0,3.2057382239,-0.5291819736,-4.7043558144
 H,0,2.144659597,-0.417839887,-4.9346023461
 H,0,3.7353928633,0.1518901989,-5.3793784055
 O,0,5.6443925108,-0.7670975231,-2.8379507812
 C,0,3.6678094683,-1.9801650287,-4.9649188325
 H,0,3.2601172632,-2.3079839514,-5.928349972
 H,0,4.7576061721,-2.0212188354,-5.051614904
 C,0,3.2897778995,-2.9891963283,-3.8652461142
 H,0,3.495438114,-4.0087149089,-4.2098178131
 H,0,3.913544957,-2.7934074342,-2.9859779793
 N,0,1.8717920943,-2.8682393462,-3.4803302943
 H,0,1.290282161,-2.3008938214,-4.0819197354
 N,0,2.1068306857,-3.6203022984,-1.282318981
 H,0,1.8256259223,-3.5232291269,-0.3162870307
 H,0,2.9053116378,-4.1957405095,-1.4973579881
 N,0,0.1945881853,-2.5032431067,-1.9100037666
 H,0,-0.0234612923,-2.5391456034,-0.9080740967
 H,0,-0.1033797669,-1.6519220312,-2.3851978141
 C,0,1.4003040232,-2.9827253387,-2.2303286422
 O,0,5.2168825516,1.4534648998,-2.9194802726
 H,0,6.1720253634,1.501691778,-2.7201806578
 Recover connectivity data from disk.
                           ----------------------------
                           !    Current Parameters    !
                           ! (Angstroms and Degrees)  !
 --------------------------                            --------------------------
 ! Name  Definition              Value                                          !
 --------------------------------------------------------------------------------
 ! R1    R(1,2)                  1.0194                                         !
 ! R2    R(1,3)                  1.0182                                         !
 ! R3    R(1,4)                  1.4756                                         !
 ! R4    R(4,5)                  1.1008                                         !
 ! R5    R(4,6)                  1.5446                                         !
 ! R6    R(4,7)                  1.5458                                         !
 ! R7    R(6,10)                 1.2361                                         !
 ! R8    R(6,16)                 1.348                                          !
 ! R9    R(7,8)                  1.093                                          !
 ! R10   R(7,9)                  1.0977                                         !
 ! R11   R(7,11)                 1.5259                                         !
 ! R12   R(11,12)                1.3392                                         !
 ! R13   R(11,15)                1.2527                                         !
 ! R14   R(12,13)                1.0119                                         !
 ! R15   R(12,14)                1.0232                                         !
 ! R16   R(16,17)                1.0122                                         !
 ! R17   R(16,18)                1.4691                                         !
 ! R18   R(18,19)                1.0957                                         !
 ! R19   R(18,20)                1.5443                                         !
 ! R20   R(18,21)                1.5397                                         !
 ! R21   R(20,24)                1.2232                                         !
 ! R22   R(20,36)                1.3645                                         !
 ! R23   R(21,22)                1.0949                                         !
 ! R24   R(21,23)                1.0963                                         !
 ! R25   R(21,25)                1.511                                          !
 ! R26   R(25,26)                1.4015                                         !
 ! R27   R(25,28)                1.4011                                         !
 ! R28   R(26,27)                1.0897                                         !
 ! R29   R(26,30)                1.3981                                         !
 ! R30   R(28,29)                1.0879                                         !
 ! R31   R(28,32)                1.3937                                         !
 ! R32   R(30,31)                1.0867                                         !
 ! R33   R(30,34)                1.3952                                         !
 ! R34   R(32,33)                1.0864                                         !
 ! R35   R(32,34)                1.3983                                         !
 ! R36   R(34,35)                1.0863                                         !
 ! R37   R(36,37)                1.0145                                         !
 ! R38   R(36,38)                1.4558                                         !
 ! R39   R(38,39)                1.0916                                         !
 ! R40   R(38,40)                1.5219                                         !
 ! R41   R(38,41)                1.5661                                         !
 ! R42   R(40,44)                1.2414                                         !
 ! R43   R(40,50)                1.3528                                         !
 ! R44   R(41,42)                1.0928                                         !
 ! R45   R(41,43)                1.096                                          !
 ! R46   R(41,45)                1.5206                                         !
 ! R47   R(45,46)                1.3628                                         !
 ! R48   R(45,49)                1.2296                                         !
 ! R49   R(46,47)                1.0122                                         !
 ! R50   R(46,48)                1.0188                                         !
 ! R51   R(50,51)                1.016                                          !
 ! R52   R(50,52)                1.4679                                         !
 ! R53   R(52,53)                1.0923                                         !
 ! R54   R(52,54)                1.5175                                         !
 ! R55   R(52,55)                1.5478                                         !
 ! R56   R(54,58)                1.2123                                         !
 ! R57   R(54,74)                1.3419                                         !
 ! R58   R(55,56)                1.0915                                         !
 ! R59   R(55,57)                1.0955                                         !
 ! R60   R(55,59)                1.5449                                         !
 ! R61   R(59,60)                1.0963                                         !
 ! R62   R(59,61)                1.094                                          !
 ! R63   R(59,62)                1.5396                                         !
 ! R64   R(62,63)                1.0956                                         !
 ! R65   R(62,64)                1.0957                                         !
 ! R66   R(62,65)                1.4743                                         !
 ! R67   R(65,66)                1.0109                                         !
 ! R68   R(65,73)                1.3409                                         !
 ! R69   R(67,68)                1.0108                                         !
 ! R70   R(67,69)                1.0074                                         !
 ! R71   R(67,73)                1.3433                                         !
 ! R72   R(70,71)                1.026                                          !
 ! R73   R(70,72)                1.0195                                         !
 ! R74   R(70,73)                1.3365                                         !
 ! R75   R(74,75)                0.9769                                         !
 ! A1    A(2,1,3)              106.8846                                         !
 ! A2    A(2,1,4)              109.6879                                         !
 ! A3    A(3,1,4)              110.1295                                         !
 ! A4    A(1,4,5)              111.6204                                         !
 ! A5    A(1,4,6)              110.1336                                         !
 ! A6    A(1,4,7)              111.1265                                         !
 ! A7    A(5,4,6)              108.1306                                         !
 ! A8    A(5,4,7)              106.9601                                         !
 ! A9    A(6,4,7)              108.7441                                         !
 ! A10   A(4,6,10)             122.0766                                         !
 ! A11   A(4,6,16)             114.7444                                         !
 ! A12   A(10,6,16)            123.1651                                         !
 ! A13   A(4,7,8)              109.3421                                         !
 ! A14   A(4,7,9)              108.7012                                         !
 ! A15   A(4,7,11)             115.8191                                         !
 ! A16   A(8,7,9)              107.3461                                         !
 ! A17   A(8,7,11)             107.2449                                         !
 ! A18   A(9,7,11)             108.0733                                         !
 ! A19   A(7,11,12)            116.4258                                         !
 ! A20   A(7,11,15)            121.1515                                         !
 ! A21   A(12,11,15)           122.2916                                         !
 ! A22   A(11,12,13)           118.6438                                         !
 ! A23   A(11,12,14)           117.2887                                         !
 ! A24   A(13,12,14)           119.9323                                         !
 ! A25   A(6,16,17)            119.0304                                         !
 ! A26   A(6,16,18)            123.311                                          !
 ! A27   A(17,16,18)           117.5706                                         !
 ! A28   A(16,18,19)           107.5913                                         !
 ! A29   A(16,18,20)           105.804                                          !
 ! A30   A(16,18,21)           110.6266                                         !
 ! A31   A(19,18,20)           111.526                                          !
 ! A32   A(19,18,21)           110.437                                          !
 ! A33   A(20,18,21)           110.7187                                         !
 ! A34   A(18,20,24)           120.9287                                         !
 ! A35   A(18,20,36)           115.1077                                         !
 ! A36   A(24,20,36)           123.7891                                         !
 ! A37   A(18,21,22)           107.7763                                         !
 ! A38   A(18,21,23)           107.1839                                         !
 ! A39   A(18,21,25)           112.1222                                         !
 ! A40   A(22,21,23)           106.8412                                         !
 ! A41   A(22,21,25)           111.2005                                         !
 ! A42   A(23,21,25)           111.4541                                         !
 ! A43   A(21,25,26)           120.378                                          !
 ! A44   A(21,25,28)           120.7792                                         !
 ! A45   A(26,25,28)           118.7223                                         !
 ! A46   A(25,26,27)           119.54                                           !
 ! A47   A(25,26,30)           120.7953                                         !
 ! A48   A(27,26,30)           119.6326                                         !
 ! A49   A(25,28,29)           119.4696                                         !
 ! A50   A(25,28,32)           120.6677                                         !
 ! A51   A(29,28,32)           119.8627                                         !
 ! A52   A(26,30,31)           119.8779                                         !
 ! A53   A(26,30,34)           119.91                                           !
 ! A54   A(31,30,34)           120.2042                                         !
 ! A55   A(28,32,33)           119.8177                                         !
 ! A56   A(28,32,34)           120.1788                                         !
 ! A57   A(33,32,34)           120.0032                                         !
 ! A58   A(30,34,32)           119.724                                          !
 ! A59   A(30,34,35)           120.174                                          !
 ! A60   A(32,34,35)           120.0973                                         !
 ! A61   A(20,36,37)           116.3217                                         !
 ! A62   A(20,36,38)           119.0491                                         !
 ! A63   A(37,36,38)           113.7998                                         !
 ! A64   A(36,38,39)           109.6367                                         !
 ! A65   A(36,38,40)           109.1565                                         !
 ! A66   A(36,38,41)           108.3031                                         !
 ! A67   A(39,38,40)           112.2098                                         !
 ! A68   A(39,38,41)           109.6851                                         !
 ! A69   A(40,38,41)           107.7562                                         !
 ! A70   A(38,40,44)           119.8302                                         !
 ! A71   A(38,40,50)           116.4473                                         !
 ! A72   A(44,40,50)           123.278                                          !
 ! A73   A(38,41,42)           107.7451                                         !
 ! A74   A(38,41,43)           106.2494                                         !
 ! A75   A(38,41,45)           115.9861                                         !
 ! A76   A(42,41,43)           107.5585                                         !
 ! A77   A(42,41,45)           110.7778                                         !
 ! A78   A(43,41,45)           108.1413                                         !
 ! A79   A(41,45,46)           114.4867                                         !
 ! A80   A(41,45,49)           122.6678                                         !
 ! A81   A(46,45,49)           122.836                                          !
 ! A82   A(45,46,47)           117.0332                                         !
 ! A83   A(45,46,48)           122.2999                                         !
 ! A84   A(47,46,48)           118.2817                                         !
 ! A85   A(40,50,51)           115.3456                                         !
 ! A86   A(40,50,52)           118.001                                          !
 ! A87   A(51,50,52)           113.7578                                         !
 ! A88   A(50,52,53)           106.599                                          !
 ! A89   A(50,52,54)           113.1957                                         !
 ! A90   A(50,52,55)           113.4191                                         !
 ! A91   A(53,52,54)           104.4571                                         !
 ! A92   A(53,52,55)           108.8462                                         !
 ! A93   A(54,52,55)           109.798                                          !
 ! A94   A(52,54,58)           121.727                                          !
 ! A95   A(52,54,74)           113.5665                                         !
 ! A96   A(58,54,74)           124.6452                                         !
 ! A97   A(52,55,56)           106.7712                                         !
 ! A98   A(52,55,57)           109.7787                                         !
 ! A99   A(52,55,59)           113.7767                                         !
 ! A100  A(56,55,57)           106.0589                                         !
 ! A101  A(56,55,59)           110.5482                                         !
 ! A102  A(57,55,59)           109.5957                                         !
 ! A103  A(55,59,60)           108.5319                                         !
 ! A104  A(55,59,61)           110.2765                                         !
 ! A105  A(55,59,62)           114.938                                          !
 ! A106  A(60,59,61)           106.8331                                         !
 ! A107  A(60,59,62)           109.9017                                         !
 ! A108  A(61,59,62)           106.0576                                         !
 ! A109  A(59,62,63)           109.824                                          !
 ! A110  A(59,62,64)           108.4385                                         !
 ! A111  A(59,62,65)           111.6466                                         !
 ! A112  A(63,62,64)           108.167                                          !
 ! A113  A(63,62,65)           109.8157                                         !
 ! A114  A(64,62,65)           108.8674                                         !
 ! A115  A(62,65,66)           116.3558                                         !
 ! A116  A(62,65,73)           125.0714                                         !
 ! A117  A(66,65,73)           113.6044                                         !
 ! A118  A(68,67,69)           118.6428                                         !
 ! A119  A(68,67,73)           118.8538                                         !
 ! A120  A(69,67,73)           122.5029                                         !
 ! A121  A(71,70,72)           114.9786                                         !
 ! A122  A(71,70,73)           114.4071                                         !
 ! A123  A(72,70,73)           116.8424                                         !
 ! A124  A(65,73,67)           120.897                                          !
 ! A125  A(65,73,70)           120.6651                                         !
 ! A126  A(67,73,70)           118.4005                                         !
 ! A127  A(54,74,75)           107.8437                                         !
 ! D1    D(2,1,4,5)            -44.5963                                         !
 ! D2    D(2,1,4,6)           -164.717                                          !
 ! D3    D(2,1,4,7)             74.7139                                         !
 ! D4    D(3,1,4,5)             72.7712                                         !
 ! D5    D(3,1,4,6)            -47.3495                                         !
 ! D6    D(3,1,4,7)           -167.9186                                         !
 ! D7    D(1,4,6,10)           -79.8224                                         !
 ! D8    D(1,4,6,16)           101.491                                          !
 ! D9    D(5,4,6,10)           157.9703                                         !
 ! D10   D(5,4,6,16)           -20.7163                                         !
 ! D11   D(7,4,6,10)            42.1691                                         !
 ! D12   D(7,4,6,16)          -136.5176                                         !
 ! D13   D(1,4,7,8)           -177.3352                                         !
 ! D14   D(1,4,7,9)            -60.4366                                         !
 ! D15   D(1,4,7,11)            61.4086                                         !
 ! D16   D(5,4,7,8)            -55.2752                                         !
 ! D17   D(5,4,7,9)             61.6234                                         !
 ! D18   D(5,4,7,11)          -176.5315                                         !
 ! D19   D(6,4,7,8)             61.2789                                         !
 ! D20   D(6,4,7,9)            178.1774                                         !
 ! D21   D(6,4,7,11)           -59.9774                                         !
 ! D22   D(4,6,16,17)           -4.2578                                         !
 ! D23   D(4,6,16,18)          179.2379                                         !
 ! D24   D(10,6,16,17)         177.0716                                         !
 ! D25   D(10,6,16,18)           0.5674                                         !
 ! D26   D(4,7,11,12)          -50.5578                                         !
 ! D27   D(4,7,11,15)          133.5119                                         !
 ! D28   D(8,7,11,12)         -172.9317                                         !
 ! D29   D(8,7,11,15)           11.138                                          !
 ! D30   D(9,7,11,12)           71.6212                                         !
 ! D31   D(9,7,11,15)         -104.3091                                         !
 ! D32   D(7,11,12,13)         176.3445                                         !
 ! D33   D(7,11,12,14)          19.1919                                         !
 ! D34   D(15,11,12,13)         -7.7756                                         !
 ! D35   D(15,11,12,14)       -164.9282                                         !
 ! D36   D(6,16,18,19)          45.6649                                         !
 ! D37   D(6,16,18,20)         -73.6617                                         !
 ! D38   D(6,16,18,21)         166.3778                                         !
 ! D39   D(17,16,18,19)       -130.887                                          !
 ! D40   D(17,16,18,20)        109.7864                                         !
 ! D41   D(17,16,18,21)        -10.1741                                         !
 ! D42   D(16,18,20,24)        -73.8308                                         !
 ! D43   D(16,18,20,36)        101.5442                                         !
 ! D44   D(19,18,20,24)        169.4708                                         !
 ! D45   D(19,18,20,36)        -15.1541                                         !
 ! D46   D(21,18,20,24)         46.0693                                         !
 ! D47   D(21,18,20,36)       -138.5556                                         !
 ! D48   D(16,18,21,22)         71.5338                                         !
 ! D49   D(16,18,21,23)       -173.7825                                         !
 ! D50   D(16,18,21,25)        -51.1684                                         !
 ! D51   D(19,18,21,22)       -169.4617                                         !
 ! D52   D(19,18,21,23)        -54.778                                          !
 ! D53   D(19,18,21,25)         67.8361                                         !
 ! D54   D(20,18,21,22)        -45.4342                                         !
 ! D55   D(20,18,21,23)         69.2494                                         !
 ! D56   D(20,18,21,25)       -168.1365                                         !
 ! D57   D(18,20,36,37)        -11.2574                                         !
 ! D58   D(18,20,36,38)       -153.4223                                         !
 ! D59   D(24,20,36,37)        163.9687                                         !
 ! D60   D(24,20,36,38)         21.8037                                         !
 ! D61   D(18,21,25,26)        101.7839                                         !
 ! D62   D(18,21,25,28)        -74.1752                                         !
 ! D63   D(22,21,25,26)        -18.9575                                         !
 ! D64   D(22,21,25,28)        165.0833                                         !
 ! D65   D(23,21,25,26)       -138.0565                                         !
 ! D66   D(23,21,25,28)         45.9844                                         !
 ! D67   D(21,25,26,27)          6.3828                                         !
 ! D68   D(21,25,26,30)       -175.6828                                         !
 ! D69   D(28,25,26,27)       -177.5758                                         !
 ! D70   D(28,25,26,30)          0.3585                                         !
 ! D71   D(21,25,28,29)         -4.1589                                         !
 ! D72   D(21,25,28,32)        175.8976                                         !
 ! D73   D(26,25,28,29)        179.8162                                         !
 ! D74   D(26,25,28,32)         -0.1273                                         !
 ! D75   D(25,26,30,31)       -179.165                                          !
 ! D76   D(25,26,30,34)         -0.1894                                         !
 ! D77   D(27,26,30,31)         -1.2325                                         !
 ! D78   D(27,26,30,34)        177.7431                                         !
 ! D79   D(25,28,32,33)        179.5348                                         !
 ! D80   D(25,28,32,34)         -0.2729                                         !
 ! D81   D(29,28,32,33)         -0.4084                                         !
 ! D82   D(29,28,32,34)        179.7838                                         !
 ! D83   D(26,30,34,32)         -0.2146                                         !
 ! D84   D(26,30,34,35)       -179.4246                                         !
 ! D85   D(31,30,34,32)        178.7577                                         !
 ! D86   D(31,30,34,35)         -0.4524                                         !
 ! D87   D(28,32,34,30)          0.4444                                         !
 ! D88   D(28,32,34,35)        179.6551                                         !
 ! D89   D(33,32,34,30)       -179.363                                          !
 ! D90   D(33,32,34,35)         -0.1523                                         !
 ! D91   D(20,36,38,39)        -56.9211                                         !
 ! D92   D(20,36,38,40)        179.793                                          !
 ! D93   D(20,36,38,41)         62.731                                          !
 ! D94   D(37,36,38,39)        160.0128                                         !
 ! D95   D(37,36,38,40)         36.7269                                         !
 ! D96   D(37,36,38,41)        -80.3352                                         !
 ! D97   D(36,38,40,44)        -31.9388                                         !
 ! D98   D(36,38,40,50)        155.4618                                         !
 ! D99   D(39,38,40,44)       -153.6812                                         !
 ! D100  D(39,38,40,50)         33.7194                                         !
 ! D101  D(41,38,40,44)         85.4691                                         !
 ! D102  D(41,38,40,50)        -87.1303                                         !
 ! D103  D(36,38,41,42)         44.8323                                         !
 ! D104  D(36,38,41,43)        -70.2044                                         !
 ! D105  D(36,38,41,45)        169.6062                                         !
 ! D106  D(39,38,41,42)        164.4541                                         !
 ! D107  D(39,38,41,43)         49.4174                                         !
 ! D108  D(39,38,41,45)        -70.772                                          !
 ! D109  D(40,38,41,42)        -73.1271                                         !
 ! D110  D(40,38,41,43)        171.8362                                         !
 ! D111  D(40,38,41,45)         51.6468                                         !
 ! D112  D(38,40,50,51)          2.243                                          !
 ! D113  D(38,40,50,52)        141.4214                                         !
 ! D114  D(44,40,50,51)       -170.076                                          !
 ! D115  D(44,40,50,52)        -30.8976                                         !
 ! D116  D(38,41,45,46)       -139.994                                          !
 ! D117  D(38,41,45,49)         38.9172                                         !
 ! D118  D(42,41,45,46)        -16.7922                                         !
 ! D119  D(42,41,45,49)        162.1189                                         !
 ! D120  D(43,41,45,46)        100.8441                                         !
 ! D121  D(43,41,45,49)        -80.2447                                         !
 ! D122  D(41,45,46,47)       -169.6242                                         !
 ! D123  D(41,45,46,48)         -7.4728                                         !
 ! D124  D(49,45,46,47)         11.4667                                         !
 ! D125  D(49,45,46,48)        173.618                                          !
 ! D126  D(40,50,52,53)        -42.1199                                         !
 ! D127  D(40,50,52,54)       -156.3976                                         !
 ! D128  D(40,50,52,55)         77.6455                                         !
 ! D129  D(51,50,52,53)         97.6782                                         !
 ! D130  D(51,50,52,54)        -16.5994                                         !
 ! D131  D(51,50,52,55)       -142.5564                                         !
 ! D132  D(50,52,54,58)        159.0788                                         !
 ! D133  D(50,52,54,74)        -23.6428                                         !
 ! D134  D(53,52,54,58)         43.5201                                         !
 ! D135  D(53,52,54,74)       -139.2015                                         !
 ! D136  D(55,52,54,58)        -73.0543                                         !
 ! D137  D(55,52,54,74)        104.2241                                         !
 ! D138  D(50,52,55,56)        -37.3607                                         !
 ! D139  D(50,52,55,57)         77.1838                                         !
 ! D140  D(50,52,55,59)       -159.5937                                         !
 ! D141  D(53,52,55,56)         81.1154                                         !
 ! D142  D(53,52,55,57)       -164.3401                                         !
 ! D143  D(53,52,55,59)        -41.1175                                         !
 ! D144  D(54,52,55,56)       -165.1036                                         !
 ! D145  D(54,52,55,57)        -50.559                                          !
 ! D146  D(54,52,55,59)         72.6635                                         !
 ! D147  D(52,54,74,75)        179.0829                                         !
 ! D148  D(58,54,74,75)         -3.731                                          !
 ! D149  D(52,55,59,60)        165.1082                                         !
 ! D150  D(52,55,59,61)        -78.1839                                         !
 ! D151  D(52,55,59,62)         41.6168                                         !
 ! D152  D(56,55,59,60)         44.9836                                         !
 ! D153  D(56,55,59,61)        161.6915                                         !
 ! D154  D(56,55,59,62)        -78.5078                                         !
 ! D155  D(57,55,59,60)        -71.5695                                         !
 ! D156  D(57,55,59,61)         45.1384                                         !
 ! D157  D(57,55,59,62)        164.9391                                         !
 ! D158  D(55,59,62,63)        170.0253                                         !
 ! D159  D(55,59,62,64)        -71.9693                                         !
 ! D160  D(55,59,62,65)         47.9684                                         !
 ! D161  D(60,59,62,63)         47.2656                                         !
 ! D162  D(60,59,62,64)        165.271                                          !
 ! D163  D(60,59,62,65)        -74.7912                                         !
 ! D164  D(61,59,62,63)        -67.8651                                         !
 ! D165  D(61,59,62,64)         50.1402                                         !
 ! D166  D(61,59,62,65)        170.078                                          !
 ! D167  D(59,62,65,66)         11.7553                                         !
 ! D168  D(59,62,65,73)       -141.6042                                         !
 ! D169  D(63,62,65,66)       -110.3063                                         !
 ! D170  D(63,62,65,73)         96.3341                                         !
 ! D171  D(64,62,65,66)        131.4405                                         !
 ! D172  D(64,62,65,73)        -21.9191                                         !
 ! D173  D(62,65,73,67)        -21.0051                                         !
 ! D174  D(62,65,73,70)        161.2554                                         !
 ! D175  D(66,65,73,67)       -174.9989                                         !
 ! D176  D(66,65,73,70)          7.2616                                         !
 ! D177  D(68,67,73,65)        167.1604                                         !
 ! D178  D(68,67,73,70)        -15.05                                           !
 ! D179  D(69,67,73,65)        -13.105                                          !
 ! D180  D(69,67,73,70)        164.6846                                         !
 ! D181  D(71,70,73,65)       -172.9232                                         !
 ! D182  D(71,70,73,67)          9.2819                                         !
 ! D183  D(72,70,73,65)        -34.3885                                         !
 ! D184  D(72,70,73,67)        147.8166                                         !
 --------------------------------------------------------------------------------
 Symmetry turned off by external request.
 Stoichiometry    C23H36N9O7(1+)
 Framework group  C1[X(C23H36N9O7)]
 Deg. of freedom   219
 Full point group                 C1      NOp   1
                          Input orientation:                          
 ---------------------------------------------------------------------
 Center     Atomic      Atomic             Coordinates (Angstroms)
 Number     Number       Type             X           Y           Z
 ---------------------------------------------------------------------
      1          7           0       -3.937125   -1.769027    1.870311
      2          1           0       -4.213799   -2.039462    2.813414
      3          1           0       -4.744725   -1.320131    1.442454
      4          6           0       -2.806091   -0.823577    1.935894
      5          1           0       -2.966763   -0.051638    2.703986
      6          6           0       -2.624428   -0.116662    0.574599
      7          6           0       -1.491238   -1.551969    2.296749
      8          1           0       -0.684121   -0.820078    2.384000
      9          1           0       -1.610124   -2.026764    3.279304
     10          8           0       -2.047978   -0.658948   -0.374923
     11          6           0       -1.029592   -2.618806    1.308204
     12          7           0       -1.939677   -3.534009    0.950875
     13          1           0       -1.686808   -4.223448    0.254755
     14          1           0       -2.924094   -3.301893    1.105486
     15          8           0        0.160525   -2.671627    0.920647
     16          7           0       -3.116984    1.136869    0.519625
     17          1           0       -3.617359    1.503530    1.319472
     18          6           0       -3.031674    1.985507   -0.676525
     19          1           0       -3.321229    1.373576   -1.538024
     20          6           0       -1.556820    2.433674   -0.769923
     21          6           0       -3.963876    3.203793   -0.544820
     22          1           0       -3.529017    3.878499    0.199864
     23          1           0       -3.942162    3.733465   -1.504396
     24          8           0       -1.105914    3.275496   -0.005497
     25          6           0       -5.371095    2.805133   -0.165322
     26          6           0       -5.816294    2.948028    1.155850
     27          1           0       -5.178845    3.444755    1.886828
     28          6           0       -6.225200    2.209882   -1.102985
     29          1           0       -5.893120    2.095612   -2.132667
     30          6           0       -7.084677    2.499564    1.536221
     31          1           0       -7.420043    2.630161    2.561566
     32          6           0       -7.492274    1.765750   -0.729107
     33          1           0       -8.146149    1.313047   -1.469165
     34          6           0       -7.924081    1.905219    0.593488
     35          1           0       -8.914031    1.563694    0.882203
     36          7           0       -0.802457    1.755932   -1.682833
     37          1           0       -1.219390    0.920348   -2.079406
     38          6           0        0.634918    1.653746   -1.475761
     39          1           0        1.065862    2.653388   -1.394831
     40          6           0        1.248083    0.853532   -2.615859
     41          6           0        0.885467    0.862190   -0.147904
     42          1           0        0.219760   -0.004477   -0.146101
     43          1           0        0.569904    1.523188    0.667356
     44          8           0        0.592773   -0.050798   -3.157839
     45          6           0        2.322283    0.439279    0.114659
     46          7           0        2.455806   -0.809360    0.644188
     47          1           0        3.373215   -1.069341    0.983891
     48          1           0        1.654555   -1.360382    0.947992
     49          8           0        3.284428    1.157910   -0.149322
     50          7           0        2.556054    1.080496   -2.875947
     51          1           0        3.014085    1.742869   -2.256550
     52          6           0        3.395707   -0.067346   -3.239345
     53          1           0        3.112666   -0.884647   -2.572206
     54          6           0        4.869867    0.157753   -2.958446
     55          6           0        3.205738   -0.529182   -4.704356
     56          1           0        2.144660   -0.417840   -4.934602
     57          1           0        3.735393    0.151890   -5.379378
     58          8           0        5.644393   -0.767098   -2.837951
     59          6           0        3.667809   -1.980165   -4.964919
     60          1           0        3.260117   -2.307984   -5.928350
     61          1           0        4.757606   -2.021219   -5.051615
     62          6           0        3.289778   -2.989196   -3.865246
     63          1           0        3.495438   -4.008715   -4.209818
     64          1           0        3.913545   -2.793407   -2.985978
     65          7           0        1.871792   -2.868239   -3.480330
     66          1           0        1.290282   -2.300894   -4.081920
     67          7           0        2.106831   -3.620302   -1.282319
     68          1           0        1.825626   -3.523229   -0.316287
     69          1           0        2.905312   -4.195741   -1.497358
     70          7           0        0.194588   -2.503243   -1.910004
     71          1           0       -0.023461   -2.539146   -0.908074
     72          1           0       -0.103380   -1.651922   -2.385198
     73          6           0        1.400304   -2.982725   -2.230329
     74          8           0        5.216883    1.453465   -2.919480
     75          1           0        6.172025    1.501692   -2.720181
 ---------------------------------------------------------------------
 Rotational constants (GHZ):           0.1678948           0.0534398           0.0479958
 Standard basis: 6-31G(d) (6D, 7F)
   657 basis functions,  1236 primitive gaussians,   657 cartesian basis functions
   146 alpha electrons      146 beta electrons
       nuclear repulsion energy      4927.5067916476 Hartrees.
 NAtoms=   75 NActive=   75 NUniq=   75 SFac= 1.00D+00 NAtFMM=   60 NAOKFM=T Big=T
 Integral buffers will be    131072 words long.
 Raffenetti 2 integral format.
 Two-electron integral symmetry is turned off.
 Nuclear repulsion after empirical dispersion term =     4927.3929690666 Hartrees.
 One-electron integrals computed using PRISM.
 NBasis=   657 RedAO= T EigKep=  4.71D-04  NBF=   657
 NBsUse=   657 1.00D-06 EigRej= -1.00D+00 NBFU=   657
 Initial guess from the checkpoint file:  "conf-879.chk"
 B after Tr=     0.000000    0.000000    0.000000
         Rot=    1.000000    0.000000    0.000000    0.000000 Ang=   0.00 deg.
 Requested convergence on RMS density matrix=1.00D-08 within 128 cycles.
 Requested convergence on MAX density matrix=1.00D-06.
 Requested convergence on             energy=1.00D-06.
 No special actions if energy rises.
 SCF Done:  E(RB3LYP) =  -1917.51117617     A.U. after    1 cycles
            NFock=  1  Conv=0.48D-08     -V/T= 2.0093

 **********************************************************************

            Population analysis using the SCF Density.

 **********************************************************************

 Alpha  occ. eigenvalues --  -19.29673 -19.24438 -19.23911 -19.23734 -19.23410
 Alpha  occ. eigenvalues --  -19.20856 -19.20706 -14.49445 -14.49444 -14.47797
 Alpha  occ. eigenvalues --  -14.46786 -14.46419 -14.46119 -14.45069 -14.45055
 Alpha  occ. eigenvalues --  -14.44620 -10.45111 -10.42156 -10.41500 -10.40408
 Alpha  occ. eigenvalues --  -10.40234 -10.38541 -10.37857 -10.35363 -10.34353
 Alpha  occ. eigenvalues --  -10.34160 -10.33866 -10.33595 -10.31469 -10.29662
 Alpha  occ. eigenvalues --  -10.29420 -10.29242 -10.28240 -10.28073 -10.27168
 Alpha  occ. eigenvalues --  -10.27039 -10.26971 -10.26916 -10.26752  -1.20557
 Alpha  occ. eigenvalues --   -1.15608  -1.15393  -1.14958  -1.13907  -1.12825
 Alpha  occ. eigenvalues --   -1.12427  -1.11554  -1.03999  -1.03897  -1.03516
 Alpha  occ. eigenvalues --   -1.02595  -1.02080  -1.01405  -1.00691  -0.99429
 Alpha  occ. eigenvalues --   -0.93766  -0.91149  -0.89195  -0.88005  -0.87287
 Alpha  occ. eigenvalues --   -0.85180  -0.82717  -0.82403  -0.80016  -0.78207
 Alpha  occ. eigenvalues --   -0.77832  -0.76258  -0.73856  -0.73061  -0.71136
 Alpha  occ. eigenvalues --   -0.70853  -0.69905  -0.69409  -0.68775  -0.68553
 Alpha  occ. eigenvalues --   -0.67850  -0.66538  -0.66459  -0.66071  -0.65487
 Alpha  occ. eigenvalues --   -0.64838  -0.63977  -0.62811  -0.62619  -0.62152
 Alpha  occ. eigenvalues --   -0.61458  -0.59869  -0.59610  -0.59552  -0.59049
 Alpha  occ. eigenvalues --   -0.58529  -0.58472  -0.58299  -0.57502  -0.57361
 Alpha  occ. eigenvalues --   -0.56907  -0.56413  -0.55326  -0.54887  -0.54334
 Alpha  occ. eigenvalues --   -0.53963  -0.53582  -0.53413  -0.53091  -0.52720
 Alpha  occ. eigenvalues --   -0.52148  -0.51594  -0.51166  -0.50828  -0.50504
 Alpha  occ. eigenvalues --   -0.50440  -0.49999  -0.49862  -0.49495  -0.49324
 Alpha  occ. eigenvalues --   -0.49085  -0.48508  -0.48347  -0.47617  -0.47310
 Alpha  occ. eigenvalues --   -0.46319  -0.45858  -0.45452  -0.45193  -0.44861
 Alpha  occ. eigenvalues --   -0.44773  -0.43550  -0.41953  -0.41923  -0.41550
 Alpha  occ. eigenvalues --   -0.40507  -0.39345  -0.38969  -0.38785  -0.38295
 Alpha  occ. eigenvalues --   -0.37943  -0.37608  -0.37206  -0.36990  -0.36588
 Alpha  occ. eigenvalues --   -0.35700  -0.35356  -0.34115  -0.33684  -0.33107
 Alpha  occ. eigenvalues --   -0.32420
 Alpha virt. eigenvalues --   -0.11060  -0.11017  -0.09772  -0.09131  -0.08786
 Alpha virt. eigenvalues --   -0.08565  -0.08335  -0.07668  -0.06559  -0.04433
 Alpha virt. eigenvalues --   -0.03846  -0.01701  -0.01603  -0.00882  -0.00056
 Alpha virt. eigenvalues --    0.00329   0.00502   0.00731   0.01118   0.01667
 Alpha virt. eigenvalues --    0.01945   0.02200   0.02805   0.03373   0.03574
 Alpha virt. eigenvalues --    0.03894   0.04507   0.04697   0.05193   0.05674
 Alpha virt. eigenvalues --    0.06003   0.06613   0.06659   0.06998   0.07725
 Alpha virt. eigenvalues --    0.07802   0.08304   0.08561   0.08750   0.09019
 Alpha virt. eigenvalues --    0.09428   0.09945   0.10469   0.10499   0.10599
 Alpha virt. eigenvalues --    0.11264   0.11919   0.12016   0.12124   0.12297
 Alpha virt. eigenvalues --    0.12519   0.12871   0.13360   0.14230   0.14630
 Alpha virt. eigenvalues --    0.14708   0.15623   0.16088   0.16365   0.16500
 Alpha virt. eigenvalues --    0.16661   0.17304   0.17611   0.18986   0.20252
 Alpha virt. eigenvalues --    0.21344   0.22761   0.23739   0.23986   0.24581
 Alpha virt. eigenvalues --    0.25140   0.25612   0.26847   0.26887   0.27363
 Alpha virt. eigenvalues --    0.28113   0.28551   0.29575   0.29877   0.31060
 Alpha virt. eigenvalues --    0.31985   0.32578   0.35181   0.38123   0.38310
 Alpha virt. eigenvalues --    0.38954   0.39831   0.41073   0.41457   0.41818
 Alpha virt. eigenvalues --    0.42680   0.43081   0.43505   0.43882   0.44265
 Alpha virt. eigenvalues --    0.44581   0.45184   0.45391   0.45862   0.46222
 Alpha virt. eigenvalues --    0.46450   0.46875   0.47045   0.47451   0.47751
 Alpha virt. eigenvalues --    0.47955   0.48552   0.48982   0.49573   0.49874
 Alpha virt. eigenvalues --    0.50327   0.50468   0.51303   0.51498   0.51621
 Alpha virt. eigenvalues --    0.52293   0.52442   0.52645   0.53180   0.53488
 Alpha virt. eigenvalues --    0.53958   0.54183   0.54816   0.54957   0.55123
 Alpha virt. eigenvalues --    0.55795   0.56243   0.56351   0.56853   0.57198
 Alpha virt. eigenvalues --    0.57469   0.58198   0.58532   0.58840   0.59173
 Alpha virt. eigenvalues --    0.59526   0.60203   0.61028   0.62012   0.62961
 Alpha virt. eigenvalues --    0.63104   0.63390   0.64060   0.64605   0.64920
 Alpha virt. eigenvalues --    0.65502   0.66416   0.67000   0.67334   0.67732
 Alpha virt. eigenvalues --    0.67927   0.68278   0.69013   0.69681   0.70330
 Alpha virt. eigenvalues --    0.70899   0.71446   0.71829   0.72454   0.72778
 Alpha virt. eigenvalues --    0.73057   0.73320   0.73529   0.74095   0.74547
 Alpha virt. eigenvalues --    0.74867   0.75192   0.75420   0.75618   0.76281
 Alpha virt. eigenvalues --    0.76465   0.76965   0.77439   0.77796   0.77955
 Alpha virt. eigenvalues --    0.78134   0.78741   0.78837   0.79179   0.79431
 Alpha virt. eigenvalues --    0.79997   0.80694   0.81233   0.81863   0.82175
 Alpha virt. eigenvalues --    0.82727   0.83021   0.83289   0.83717   0.84243
 Alpha virt. eigenvalues --    0.84674   0.84902   0.85301   0.85473   0.85773
 Alpha virt. eigenvalues --    0.86350   0.86583   0.87548   0.87925   0.88803
 Alpha virt. eigenvalues --    0.89087   0.89445   0.90207   0.91343   0.91860
 Alpha virt. eigenvalues --    0.92479   0.93007   0.93779   0.94027   0.95005
 Alpha virt. eigenvalues --    0.96073   0.96209   0.97184   0.97470   0.98213
 Alpha virt. eigenvalues --    0.99506   1.00652   1.00914   1.01503   1.01960
 Alpha virt. eigenvalues --    1.02504   1.03119   1.03830   1.04420   1.05121
 Alpha virt. eigenvalues --    1.05387   1.06662   1.07661   1.08006   1.08230
 Alpha virt. eigenvalues --    1.09015   1.09745   1.10104   1.10603   1.11256
 Alpha virt. eigenvalues --    1.11845   1.12467   1.13275   1.13945   1.14875
 Alpha virt. eigenvalues --    1.15850   1.16395   1.17391   1.18582   1.19672
 Alpha virt. eigenvalues --    1.19936   1.21221   1.22364   1.22857   1.23041
 Alpha virt. eigenvalues --    1.24072   1.24817   1.26030   1.26677   1.27207
 Alpha virt. eigenvalues --    1.27952   1.28406   1.29909   1.30451   1.30640
 Alpha virt. eigenvalues --    1.32186   1.32365   1.33314   1.33992   1.35031
 Alpha virt. eigenvalues --    1.35666   1.35930   1.36787   1.37314   1.38198
 Alpha virt. eigenvalues --    1.38856   1.39862   1.40662   1.41062   1.41234
 Alpha virt. eigenvalues --    1.41732   1.42741   1.42929   1.43425   1.43956
 Alpha virt. eigenvalues --    1.45428   1.45648   1.47307   1.48088   1.49252
 Alpha virt. eigenvalues --    1.49595   1.50585   1.52110   1.52988   1.53201
 Alpha virt. eigenvalues --    1.55239   1.55828   1.56600   1.58317   1.59467
 Alpha virt. eigenvalues --    1.59644   1.61240   1.61577   1.63018   1.64260
 Alpha virt. eigenvalues --    1.64774   1.65413   1.66094   1.66778   1.67177
 Alpha virt. eigenvalues --    1.67532   1.67944   1.68368   1.68736   1.69400
 Alpha virt. eigenvalues --    1.70139   1.71092   1.71210   1.71965   1.72721
 Alpha virt. eigenvalues --    1.72912   1.73550   1.73911   1.74519   1.74629
 Alpha virt. eigenvalues --    1.75193   1.75316   1.76368   1.77286   1.78079
 Alpha virt. eigenvalues --    1.78796   1.79612   1.79787   1.80086   1.80859
 Alpha virt. eigenvalues --    1.81729   1.82663   1.83010   1.84011   1.84408
 Alpha virt. eigenvalues --    1.84715   1.84953   1.85484   1.86340   1.86826
 Alpha virt. eigenvalues --    1.87369   1.87783   1.88127   1.88527   1.89106
 Alpha virt. eigenvalues --    1.89353   1.89882   1.90671   1.91089   1.91296
 Alpha virt. eigenvalues --    1.91892   1.93053   1.93206   1.94096   1.94761
 Alpha virt. eigenvalues --    1.95957   1.96542   1.97265   1.97536   1.98130
 Alpha virt. eigenvalues --    1.98303   1.99322   2.00586   2.03365   2.03870
 Alpha virt. eigenvalues --    2.04638   2.05083   2.05476   2.06086   2.06617
 Alpha virt. eigenvalues --    2.07158   2.07287   2.08227   2.08597   2.09344
 Alpha virt. eigenvalues --    2.09886   2.11073   2.11117   2.11653   2.11981
 Alpha virt. eigenvalues --    2.13689   2.15001   2.15992   2.17571   2.19282
 Alpha virt. eigenvalues --    2.19733   2.20056   2.20634   2.21355   2.22657
 Alpha virt. eigenvalues --    2.23087   2.23721   2.24699   2.25185   2.26855
 Alpha virt. eigenvalues --    2.27363   2.28280   2.28985   2.29239   2.29988
 Alpha virt. eigenvalues --    2.30400   2.31045   2.31756   2.32702   2.33037
 Alpha virt. eigenvalues --    2.34181   2.35282   2.36211   2.36858   2.37569
 Alpha virt. eigenvalues --    2.39418   2.40203   2.41420   2.42365   2.42998
 Alpha virt. eigenvalues --    2.43883   2.44167   2.46283   2.46999   2.48864
 Alpha virt. eigenvalues --    2.49319   2.50288   2.50548   2.50932   2.51477
 Alpha virt. eigenvalues --    2.53033   2.53542   2.53941   2.54517   2.55998
 Alpha virt. eigenvalues --    2.56494   2.56777   2.57934   2.58444   2.59799
 Alpha virt. eigenvalues --    2.61204   2.61895   2.62572   2.64407   2.64876
 Alpha virt. eigenvalues --    2.65556   2.66215   2.66716   2.67091   2.68676
 Alpha virt. eigenvalues --    2.69407   2.70254   2.71674   2.72624   2.74716
 Alpha virt. eigenvalues --    2.76375   2.77723   2.80710   2.83042   2.84943
 Alpha virt. eigenvalues --    2.86433   2.88605   2.89353   2.90477   2.91297
 Alpha virt. eigenvalues --    2.92888   2.93839   2.95533   2.97328   2.97477
 Alpha virt. eigenvalues --    2.98852   2.99809   3.01128   3.06064   3.06706
 Alpha virt. eigenvalues --    3.07481   3.32763   3.70529   3.72564   3.75710
 Alpha virt. eigenvalues --    3.79709   3.81615   3.85946   3.91072   3.93673
 Alpha virt. eigenvalues --    3.94067   3.97032   4.01228   4.02756   4.04132
 Alpha virt. eigenvalues --    4.05532   4.07578   4.08067   4.12034   4.13202
 Alpha virt. eigenvalues --    4.16170   4.18678   4.19267   4.20806   4.23235
 Alpha virt. eigenvalues --    4.24927   4.25839   4.26874   4.30782   4.31802
 Alpha virt. eigenvalues --    4.33743   4.35283   4.39607   4.44003   4.46080
 Alpha virt. eigenvalues --    4.49663   4.53768   4.59005   4.60706   4.63819
 Alpha virt. eigenvalues --    4.64935
          Condensed to atoms (all electrons):
 Mulliken charges:
               1
     1  N   -0.743968
     2  H    0.334567
     3  H    0.338711
     4  C   -0.082745
     5  H    0.157396
     6  C    0.639273
     7  C   -0.370656
     8  H    0.185182
     9  H    0.193951
    10  O   -0.554164
    11  C    0.636359
    12  N   -0.712778
    13  H    0.345936
    14  H    0.398051
    15  O   -0.599032
    16  N   -0.593504
    17  H    0.351594
    18  C   -0.043019
    19  H    0.171170
    20  C    0.627673
    21  C   -0.407100
    22  H    0.194455
    23  H    0.182188
    24  O   -0.513944
    25  C    0.169910
    26  C   -0.221063
    27  H    0.138646
    28  C   -0.179310
    29  H    0.134864
    30  C   -0.130702
    31  H    0.147486
    32  C   -0.128997
    33  H    0.149259
    34  C   -0.132458
    35  H    0.149688
    36  N   -0.592131
    37  H    0.353135
    38  C   -0.044706
    39  H    0.207813
    40  C    0.614504
    41  C   -0.417840
    42  H    0.175714
    43  H    0.219356
    44  O   -0.582592
    45  C    0.593879
    46  N   -0.795026
    47  H    0.345058
    48  H    0.385960
    49  O   -0.529139
    50  N   -0.589234
    51  H    0.386484
    52  C   -0.034138
    53  H    0.174864
    54  C    0.598335
    55  C   -0.302849
    56  H    0.185776
    57  H    0.181963
    58  O   -0.462712
    59  C   -0.304835
    60  H    0.170885
    61  H    0.195516
    62  C   -0.178736
    63  H    0.185782
    64  H    0.189584
    65  N   -0.580329
    66  H    0.370990
    67  N   -0.770426
    68  H    0.394735
    69  H    0.375473
    70  N   -0.804542
    71  H    0.416344
    72  H    0.397555
    73  C    0.758357
    74  O   -0.555882
    75  H    0.434138
 Sum of Mulliken charges =   1.00000
 Mulliken charges with hydrogens summed into heavy atoms:
               1
     1  N   -0.070691
     4  C    0.074651
     6  C    0.639273
     7  C    0.008477
    10  O   -0.554164
    11  C    0.636359
    12  N    0.031208
    15  O   -0.599032
    16  N   -0.241910
    18  C    0.128151
    20  C    0.627673
    21  C   -0.030457
    24  O   -0.513944
    25  C    0.169910
    26  C   -0.082417
    28  C   -0.044447
    30  C    0.016784
    32  C    0.020262
    34  C    0.017230
    36  N   -0.238996
    38  C    0.163107
    40  C    0.614504
    41  C   -0.022770
    44  O   -0.582592
    45  C    0.593879
    46  N   -0.064008
    49  O   -0.529139
    50  N   -0.202750
    52  C    0.140726
    54  C    0.598335
    55  C    0.064890
    58  O   -0.462712
    59  C    0.061565
    62  C    0.196630
    65  N   -0.209339
    67  N   -0.000217
    70  N    0.009356
    73  C    0.758357
    74  O   -0.121744
 Electronic spatial extent (au):  <R**2>=          23706.9027
 Charge=              1.0000 electrons
 Dipole moment (field-independent basis, Debye):
    X=             -3.0599    Y=             -8.6198    Z=             -3.1307  Tot=              9.6678
 Quadrupole moment (field-independent basis, Debye-Ang):
   XX=           -141.9308   YY=           -195.2813   ZZ=           -175.5848
   XY=            -12.5353   XZ=            -39.5601   YZ=              6.1981
 Traceless Quadrupole moment (field-independent basis, Debye-Ang):
   XX=             29.0015   YY=            -24.3490   ZZ=             -4.6525
   XY=            -12.5353   XZ=            -39.5601   YZ=              6.1981
 Octapole moment (field-independent basis, Debye-Ang**2):
  XXX=            144.1965  YYY=           -181.0080  ZZZ=            526.6246  XYY=            174.2002
  XXY=             -0.5453  XXZ=            184.2280  XZZ=            155.9226  YZZ=            -62.9623
  YYZ=            158.9517  XYZ=             29.7572
 Hexadecapole moment (field-independent basis, Debye-Ang**3):
 XXXX=         -15185.7813 YYYY=          -5623.1948 ZZZZ=          -5759.1828 XXXY=           2375.7088
 XXXZ=           1923.2440 YYYX=           2061.2200 YYYZ=           -209.4529 ZZZX=           2075.1132
 ZZZY=           -132.6307 XXYY=          -3748.9673 XXZZ=          -3390.1107 YYZZ=          -1875.3930
 XXYZ=           -177.3697 YYXZ=            648.4603 ZZXY=            570.5288
 N-N= 4.927392969067D+03 E-N=-1.429565817748D+04  KE= 1.899799377482D+03
 Unable to Open any file for archive entry.
 1\1\GINC-AMR-070\SP\RB3LYP\6-31G(d)\C23H36N9O7(1+)\KENGMITH\31-May-202
 2\0\\# B3LYP/6-31G* empiricaldispersion=gd3 guess=read geom=check nosy
 mm integral(ultrafinegrid)\\Candidate Structure: Conf:879 Charge calc 
 in gas phase\\1,1\N,0,-3.9371247257,-1.7690266079,1.8703113224\H,0,-4.
 2137985415,-2.0394622798,2.8134137998\H,0,-4.7447252892,-1.3201311628,
 1.4424539973\C,0,-2.8060910638,-0.8235774862,1.9358944473\H,0,-2.96676
 26069,-0.0516384895,2.7039858644\C,0,-2.6244276101,-0.1166621468,0.574
 5986225\C,0,-1.4912380377,-1.5519687324,2.2967488524\H,0,-0.6841210018
 ,-0.8200781718,2.3840003228\H,0,-1.6101240407,-2.0267639916,3.27930445
 37\O,0,-2.0479778557,-0.6589484488,-0.3749228986\C,0,-1.0295920129,-2.
 618806025,1.30820366\N,0,-1.9396774459,-3.5340087951,0.9508748993\H,0,
 -1.6868080796,-4.2234479361,0.2547551405\H,0,-2.9240935801,-3.30189311
 74,1.1054859499\O,0,0.160524593,-2.6716266569,0.9206472687\N,0,-3.1169
 840364,1.1368691228,0.5196250585\H,0,-3.6173594425,1.5035301923,1.3194
 718457\C,0,-3.0316740382,1.9855071467,-0.6765253619\H,0,-3.321229075,1
 .3735764457,-1.5380241996\C,0,-1.5568197613,2.4336744105,-0.769923099\
 C,0,-3.9638763609,3.2037931145,-0.5448197792\H,0,-3.5290170834,3.87849
 88954,0.199863882\H,0,-3.9421621731,3.7334652514,-1.5043962016\O,0,-1.
 1059143833,3.2754957829,-0.0054971601\C,0,-5.3710949972,2.8051330122,-
 0.1653217729\C,0,-5.8162937878,2.9480275306,1.1558503853\H,0,-5.178845
 0482,3.4447554603,1.8868280558\C,0,-6.2252001838,2.2098818446,-1.10298
 45941\H,0,-5.8931196889,2.0956118637,-2.1326670782\C,0,-7.0846770595,2
 .4995640183,1.5362211746\H,0,-7.4200434594,2.6301611886,2.5615661395\C
 ,0,-7.4922743919,1.7657503644,-0.7291074317\H,0,-8.1461490146,1.313047
 1668,-1.469165352\C,0,-7.9240811732,1.9052190007,0.5934882739\H,0,-8.9
 14030782,1.5636935595,0.882202982\N,0,-0.8024568453,1.7559320628,-1.68
 28332546\H,0,-1.2193902807,0.9203483558,-2.0794055686\C,0,0.6349184693
 ,1.6537456818,-1.4757611837\H,0,1.0658616394,2.6533884783,-1.394831367
 1\C,0,1.2480833429,0.8535323218,-2.6158592424\C,0,0.8854672908,0.86218
 98516,-0.1479035806\H,0,0.2197598672,-0.0044771429,-0.1461013783\H,0,0
 .5699038802,1.5231881274,0.6673556166\O,0,0.592772657,-0.0507975077,-3
 .1578392581\C,0,2.3222831681,0.4392786435,0.1146587698\N,0,2.455806286
 ,-0.8093597459,0.6441879061\H,0,3.3732152495,-1.0693411699,0.983890985
 4\H,0,1.6545553898,-1.3603819423,0.9479918494\O,0,3.284427797,1.157909
 6807,-0.149322357\N,0,2.5560537243,1.0804963598,-2.8759474304\H,0,3.01
 40849195,1.7428687099,-2.2565495635\C,0,3.3957074663,-0.0673455191,-3.
 2393453515\H,0,3.1126664321,-0.8846467747,-2.5722058035\C,0,4.86986654
 16,0.1577525718,-2.9584458254\C,0,3.2057382239,-0.5291819736,-4.704355
 8144\H,0,2.144659597,-0.417839887,-4.9346023461\H,0,3.7353928633,0.151
 8901989,-5.3793784055\O,0,5.6443925108,-0.7670975231,-2.8379507812\C,0
 ,3.6678094683,-1.9801650287,-4.9649188325\H,0,3.2601172632,-2.30798395
 14,-5.928349972\H,0,4.7576061721,-2.0212188354,-5.051614904\C,0,3.2897
 778995,-2.9891963283,-3.8652461142\H,0,3.495438114,-4.0087149089,-4.20
 98178131\H,0,3.913544957,-2.7934074342,-2.9859779793\N,0,1.8717920943,
 -2.8682393462,-3.4803302943\H,0,1.290282161,-2.3008938214,-4.081919735
 4\N,0,2.1068306857,-3.6203022984,-1.282318981\H,0,1.8256259223,-3.5232
 291269,-0.3162870307\H,0,2.9053116378,-4.1957405095,-1.4973579881\N,0,
 0.1945881853,-2.5032431067,-1.9100037666\H,0,-0.0234612923,-2.53914560
 34,-0.9080740967\H,0,-0.1033797669,-1.6519220312,-2.3851978141\C,0,1.4
 003040232,-2.9827253387,-2.2303286422\O,0,5.2168825516,1.4534648998,-2
 .9194802726\H,0,6.1720253634,1.501691778,-2.7201806578\\Version=ES64L-
 G16RevC.01\HF=-1917.5111762\RMSD=4.830e-09\Dipole=-0.4110268,-3.362531
 5,0.5421196\Quadrupole=21.5618979,-18.1028754,-3.4590225,-9.3196977,-2
 9.4119957,4.6081626\PG=C01 [X(C23H36N9O7)]\\@
 The archive entry for this job was punched.


 A leading authority is anyone who has guessed right more than once.
 -- Frank A. Clark
 Job cpu time:       0 days  0 hours  1 minutes 42.9 seconds.
 Elapsed time:       0 days  0 hours  0 minutes 26.5 seconds.
 File lengths (MBytes):  RWF=    344 Int=      0 D2E=      0 Chk=     48 Scr=     16
 Normal termination of Gaussian 16 at Tue May 31 12:09:41 2022.
