 Entering Gaussian System, Link 0=/opt/software/Gaussian/g16-AVX2-C.01/g16/g16
 Input=charge-conf-669.com
 Output=charge-conf-669.log
 Initial command:
 /opt/software/Gaussian/g16-AVX2-C.01/g16/l1.exe "/mnt/gs21/scratch/kengmith/Gau-68480.inp" -scrdir="/mnt/gs21/scratch/kengmith/"
 Entering Link 1 = /opt/software/Gaussian/g16-AVX2-C.01/g16/l1.exe PID=     68490.
  
 Copyright (c) 1988-2019, Gaussian, Inc.  All Rights Reserved.
  
 This is part of the Gaussian(R) 16 program.  It is based on
 the Gaussian(R) 09 system (copyright 2009, Gaussian, Inc.),
 the Gaussian(R) 03 system (copyright 2003, Gaussian, Inc.),
 the Gaussian(R) 98 system (copyright 1998, Gaussian, Inc.),
 the Gaussian(R) 94 system (copyright 1995, Gaussian, Inc.),
 the Gaussian 92(TM) system (copyright 1992, Gaussian, Inc.),
 the Gaussian 90(TM) system (copyright 1990, Gaussian, Inc.),
 the Gaussian 88(TM) system (copyright 1988, Gaussian, Inc.),
 the Gaussian 86(TM) system (copyright 1986, Carnegie Mellon
 University), and the Gaussian 82(TM) system (copyright 1983,
 Carnegie Mellon University). Gaussian is a federally registered
 trademark of Gaussian, Inc.
  
 This software contains proprietary and confidential information,
 including trade secrets, belonging to Gaussian, Inc.
  
 This software is provided under written license and may be
 used, copied, transmitted, or stored only in accord with that
 written license.
  
 The following legend is applicable only to US Government
 contracts under FAR:
  
                    RESTRICTED RIGHTS LEGEND
  
 Use, reproduction and disclosure by the US Government is
 subject to restrictions as set forth in subparagraphs (a)
 and (c) of the Commercial Computer Software - Restricted
 Rights clause in FAR 52.227-19.
  
 Gaussian, Inc.
 340 Quinnipiac St., Bldg. 40, Wallingford CT 06492
  
  
 ---------------------------------------------------------------
 Warning -- This program may not be used in any manner that
 competes with the business of Gaussian, Inc. or will provide
 assistance to any competitor of Gaussian, Inc.  The licensee
 of this program is prohibited from giving any competitor of
 Gaussian, Inc. access to this program.  By using this program,
 the user acknowledges that Gaussian, Inc. is engaged in the
 business of creating and licensing software in the field of
 computational chemistry and represents and warrants to the
 licensee that it is not a competitor of Gaussian, Inc. and that
 it will not use this program in any manner prohibited above.
 ---------------------------------------------------------------
  

 Cite this work as:
 Gaussian 16, Revision C.01,
 M. J. Frisch, G. W. Trucks, H. B. Schlegel, G. E. Scuseria, 
 M. A. Robb, J. R. Cheeseman, G. Scalmani, V. Barone, 
 G. A. Petersson, H. Nakatsuji, X. Li, M. Caricato, A. V. Marenich, 
 J. Bloino, B. G. Janesko, R. Gomperts, B. Mennucci, H. P. Hratchian, 
 J. V. Ortiz, A. F. Izmaylov, J. L. Sonnenberg, D. Williams-Young, 
 F. Ding, F. Lipparini, F. Egidi, J. Goings, B. Peng, A. Petrone, 
 T. Henderson, D. Ranasinghe, V. G. Zakrzewski, J. Gao, N. Rega, 
 G. Zheng, W. Liang, M. Hada, M. Ehara, K. Toyota, R. Fukuda, 
 J. Hasegawa, M. Ishida, T. Nakajima, Y. Honda, O. Kitao, H. Nakai, 
 T. Vreven, K. Throssell, J. A. Montgomery, Jr., J. E. Peralta, 
 F. Ogliaro, M. J. Bearpark, J. J. Heyd, E. N. Brothers, K. N. Kudin, 
 V. N. Staroverov, T. A. Keith, R. Kobayashi, J. Normand, 
 K. Raghavachari, A. P. Rendell, J. C. Burant, S. S. Iyengar, 
 J. Tomasi, M. Cossi, J. M. Millam, M. Klene, C. Adamo, R. Cammi, 
 J. W. Ochterski, R. L. Martin, K. Morokuma, O. Farkas, 
 J. B. Foresman, and D. J. Fox, Gaussian, Inc., Wallingford CT, 2019.
 
 ******************************************
 Gaussian 16:  ES64L-G16RevC.01  3-Jul-2019
                24-Jul-2022 
 ******************************************
 %mem=8gb
 %nproc=4
 Will use up to    4 processors via shared memory.
 %chk=conf-669.chk
 ----------------------------------------------------------------------
 # B3LYP/6-31G* empiricaldispersion=gd3bj guess=read geom=check nosymm 
 integral(ultrafinegrid)
 ----------------------------------------------------------------------
 1/29=2,38=1,172=1/1;
 2/12=2,15=1,40=1/2;
 3/5=1,6=6,7=1,11=2,14=-4,25=1,30=1,74=-5,75=-5,116=-2,124=41/1,2,3;
 4/5=1/1;
 5/5=2,38=6/2;
 6/7=2,8=2,9=2,10=2,28=1/1;
 99/5=1,9=1/99;
 ------------------------------------------------------
 Candidate Structure: Conf:669 Charge calc in gas phase
 ------------------------------------------------------
 Structure from the checkpoint file:  "conf-669.chk"
 Charge =  1 Multiplicity = 1
 Redundant internal coordinates found in file.  (old form).
 N,0,-3.0988108109,4.8581226832,1.2066659351
 H,0,-2.9383690207,5.3772563473,0.3420481243
 H,0,-2.2070625803,4.7491405711,1.7143605319
 H,0,-3.8021461883,5.3420117286,1.8304598564
 C,0,-3.7238613209,3.4951281451,0.9966860972
 H,0,-4.267976686,3.5319007635,0.0470074962
 C,0,-4.7929759183,3.4442220934,2.1170490042
 C,0,-2.6384562897,2.41625381,0.960979044
 H,0,-2.090598431,2.5124297019,0.0173833365
 H,0,-3.1271486921,1.4399405529,0.9327885009
 O,0,-5.1090836433,4.5238997587,2.6440787299
 C,0,-1.6709227308,2.4946181684,2.1229336457
 C,0,-0.3478919859,2.9026849534,1.8955085434
 H,0,-0.0215319258,3.1461988673,0.8877533076
 C,0,-2.0538231798,2.1283560472,3.4257884891
 H,0,-3.0557478753,1.765398649,3.6245046708
 C,0,0.5891185973,2.9180811488,2.9319555347
 H,0,1.6178529416,3.1826031772,2.7134929716
 C,0,-1.1221434739,2.1634176757,4.4617347275
 H,0,-1.4255861745,1.8649876386,5.4606027615
 C,0,0.1990082934,2.5519551398,4.2189390602
 H,0,0.9213839526,2.5568803276,5.0294473833
 N,0,-5.3731594396,2.2783206861,2.3892138225
 H,0,-4.9763619485,1.4006205873,2.0492477656
 C,0,-6.4973481566,2.2167417768,3.3431353027
 H,0,-6.2124925793,2.8111768908,4.2168435686
 C,0,-6.5575892804,0.7621501323,3.8263216836
 C,0,-7.7744582823,2.7994754602,2.7374685618
 H,0,-8.5967416053,2.7490466672,3.4582984318
 H,0,-8.0624070825,2.2731338882,1.8219087245
 H,0,-7.6132541462,3.8495904841,2.4851966891
 O,0,-5.6095088363,0.3008571573,4.4643559232
 N,0,-7.6353483901,0.0309587966,3.4666108816
 H,0,-8.3510941369,0.4503153254,2.8899506437
 C,0,-7.7474332984,-1.4104861662,3.7322554402
 H,0,-7.2408785625,-1.5840082728,4.6867546602
 C,0,-6.9921034688,-2.1948478748,2.6231471111
 C,0,-9.2086586346,-1.8244457847,3.8101128097
 H,0,-9.2821410751,-2.8939041622,4.0179124655
 H,0,-9.7155073439,-1.6488726295,2.8559033239
 H,0,-9.7195402323,-1.2713039962,4.6033505144
 O,0,-7.5718471262,-2.9498914147,1.8517231971
 N,0,-5.6674949683,-1.9032782293,2.5946417105
 H,0,-5.3305388234,-1.2346704432,3.2847025631
 C,0,-4.6904004004,-2.3367343549,1.6128395817
 H,0,-4.3588627582,-3.3590951739,1.8394757667
 C,0,-3.5183405309,-1.362400161,1.7538193177
 C,0,-5.182807739,-2.3256999869,0.1328525881
 H,0,-4.4428400696,-2.8807254861,-0.4534042743
 H,0,-6.1198158488,-2.8844269293,0.1051231338
 O,0,-3.7132530105,-0.1985176749,2.1313310886
 C,0,-5.341030135,-0.9410280697,-0.4401625621
 C,0,-6.4377365191,-0.1345721493,-0.1045486268
 H,0,-7.2332808292,-0.5502419628,0.5048735663
 C,0,-4.3635207729,-0.41452621,-1.2928585258
 H,0,-3.5083346259,-1.0176117824,-1.5833404247
 C,0,-6.5340930312,1.1772572244,-0.5638107884
 H,0,-7.3846121555,1.8045247947,-0.3191848072
 C,0,-4.4591586793,0.8911519168,-1.7731583111
 H,0,-3.7061565023,1.2724889891,-2.4567065757
 O,0,-5.6243800411,3.0226293572,-1.7583755763
 H,0,-5.1314021581,3.1458543112,-2.5854647313
 C,0,-5.5325390287,1.6926980737,-1.3872628841
 N,0,-2.2969122055,-1.8305084822,1.4451696393
 H,0,-2.207840309,-2.7393812516,1.0090048336
 C,0,-1.1161319687,-0.9855846998,1.4728303412
 H,0,-1.4426352014,-0.032205436,1.8877798319
 C,0,-0.613377877,-0.7570723603,0.0417308077
 C,0,-0.0053560277,-1.5378901245,2.386255445
 H,0,0.3242701178,-2.5198986438,2.0200960273
 H,0,0.8559766254,-0.8682708046,2.2796791175
 O,0,-0.9513913553,-1.4821466802,-0.8924597713
 C,0,-0.4074121739,-1.6200475416,3.8768556393
 H,0,-1.1426073838,-0.825593443,4.0672419697
 C,0,-1.0510718231,-2.9653407612,4.2380512823
 H,0,-0.3413110773,-3.7873788998,4.0811158612
 H,0,-1.3504366185,-2.9824424479,5.291651022
 H,0,-1.9405304097,-3.1689982573,3.6348324952
 C,0,0.8118714226,-1.3508586945,4.7677358732
 H,0,1.6028809513,-2.0885162552,4.5831607153
 H,0,1.2279248124,-0.3552484207,4.5756248202
 H,0,0.5450041978,-1.4093684646,5.8287804913
 N,0,0.2166323613,0.3076599727,-0.0736944467
 H,0,0.5511443833,0.7750693343,0.7669027917
 C,0,1.0920322378,0.5395887388,-1.2107847266
 H,0,1.2836587344,-0.4101360811,-1.7169274826
 C,0,2.3886459142,1.134241213,-0.6316611114
 C,0,0.4935045661,1.53181026,-2.22952939
 H,0,0.4053360905,2.5151951225,-1.7504250652
 H,0,1.1886901776,1.6395920795,-3.067387732
 O,0,2.4036469835,1.5929070099,0.5195286931
 C,0,-0.8739134436,1.101478221,-2.7480709002
 H,0,-1.3006021325,1.8829462526,-3.3913971302
 H,0,-1.5756726525,0.9506660824,-1.9238355057
 C,0,-0.8179649838,-0.1726473396,-3.561963872
 O,0,0.1888910737,-0.71015593,-3.9624030208
 O,0,-2.0619402795,-0.6305173821,-3.8377213151
 N,0,3.4335242007,1.1527454122,-1.4668135398
 H,0,3.3500376072,0.8695744464,-2.442750488
 C,0,4.6729468262,1.8764217779,-1.2068737443
 H,0,4.4298008491,2.8503264126,-0.7689170597
 C,0,5.3925138424,2.1099503354,-2.5563633083
 C,0,5.5880925534,1.1448257774,-0.2034017983
 H,0,5.0530762603,1.1144840848,0.7511098071
 H,0,6.4742790242,1.7729261606,-0.064462695
 O,0,6.4385628412,2.7677562839,-2.5307151151
 C,0,6.0096800953,-0.2952387542,-0.5575686273
 H,0,5.1608464549,-0.8474741211,-0.9832110974
 H,0,6.2561173331,-0.8110202698,0.3774701187
 C,0,7.238879008,-0.4697251832,-1.4657401564
 H,0,7.6403377631,-1.4818522996,-1.3322036124
 H,0,8.0120365761,0.2476644141,-1.1641963033
 N,0,6.9233958274,-0.2647047206,-2.8843874571
 H,0,5.9384246209,-0.1035870473,-3.1069725066
 N,0,9.072385728,0.3104830431,-3.5817006898
 H,0,9.6526437503,1.0061159967,-4.026072393
 H,0,9.4639892289,-0.160177201,-2.7804788103
 N,0,7.193886188,0.9255977845,-4.8301324129
 H,0,7.8000523488,1.4305780698,-5.4611175792
 H,0,6.2376923288,1.311719484,-4.652287495
 C,0,7.7348995751,0.3508976427,-3.7524742757
 O,0,4.8775507186,1.4927185466,-3.5649498367
 H,0,-1.9482147212,-1.4510148643,-4.3537091137
 Recover connectivity data from disk.
                           ----------------------------
                           !    Current Parameters    !
                           ! (Angstroms and Degrees)  !
 --------------------------                            --------------------------
 ! Name  Definition              Value                                          !
 --------------------------------------------------------------------------------
 ! R1    R(1,2)                  1.0212                                         !
 ! R2    R(1,3)                  1.0319                                         !
 ! R3    R(1,4)                  1.0573                                         !
 ! R4    R(1,5)                  1.5141                                         !
 ! R5    R(5,6)                  1.0951                                         !
 ! R6    R(5,7)                  1.5495                                         !
 ! R7    R(5,8)                  1.5308                                         !
 ! R8    R(7,11)                 1.2423                                         !
 ! R9    R(7,23)                 1.3304                                         !
 ! R10   R(8,9)                  1.0953                                         !
 ! R11   R(8,10)                 1.0922                                         !
 ! R12   R(8,12)                 1.5141                                         !
 ! R13   R(12,13)                1.4031                                         !
 ! R14   R(12,15)                1.4065                                         !
 ! R15   R(13,14)                1.0869                                         !
 ! R16   R(13,17)                1.3973                                         !
 ! R17   R(15,16)                1.084                                          !
 ! R18   R(15,19)                1.3937                                         !
 ! R19   R(17,18)                1.0844                                         !
 ! R20   R(17,21)                1.3938                                         !
 ! R21   R(19,20)                1.0858                                         !
 ! R22   R(19,21)                1.3983                                         !
 ! R23   R(21,22)                1.0857                                         !
 ! R24   R(23,24)                1.0215                                         !
 ! R25   R(23,25)                1.4757                                         !
 ! R26   R(25,26)                1.0945                                         !
 ! R27   R(25,27)                1.5339                                         !
 ! R28   R(25,28)                1.5289                                         !
 ! R29   R(27,32)                1.2324                                         !
 ! R30   R(27,33)                1.3511                                         !
 ! R31   R(28,29)                1.0947                                         !
 ! R32   R(28,30)                1.0946                                         !
 ! R33   R(28,31)                1.092                                          !
 ! R34   R(33,34)                1.0103                                         !
 ! R35   R(33,35)                1.47                                           !
 ! R36   R(35,36)                1.0944                                         !
 ! R37   R(35,37)                1.5543                                         !
 ! R38   R(35,38)                1.5207                                         !
 ! R39   R(37,42)                1.2253                                         !
 ! R40   R(37,43)                1.3566                                         !
 ! R41   R(38,39)                1.0919                                         !
 ! R42   R(38,40)                1.0946                                         !
 ! R43   R(38,41)                1.0937                                         !
 ! R44   R(43,44)                1.0182                                         !
 ! R45   R(43,45)                1.4514                                         !
 ! R46   R(45,46)                1.0984                                         !
 ! R47   R(45,47)                1.5307                                         !
 ! R48   R(45,48)                1.5598                                         !
 ! R49   R(47,51)                1.239                                          !
 ! R50   R(47,64)                1.344                                          !
 ! R51   R(48,49)                1.0951                                         !
 ! R52   R(48,50)                1.0913                                         !
 ! R53   R(48,52)                1.5069                                         !
 ! R54   R(52,53)                1.4021                                         !
 ! R55   R(52,55)                1.3999                                         !
 ! R56   R(53,54)                1.0849                                         !
 ! R57   R(53,57)                1.3932                                         !
 ! R58   R(55,56)                1.086                                          !
 ! R59   R(55,59)                1.3945                                         !
 ! R60   R(57,58)                1.0848                                         !
 ! R61   R(57,63)                1.3953                                         !
 ! R62   R(59,60)                1.0861                                         !
 ! R63   R(59,63)                1.3941                                         !
 ! R64   R(61,62)                0.9707                                         !
 ! R65   R(61,63)                1.3838                                         !
 ! R66   R(64,65)                1.012                                          !
 ! R67   R(64,66)                1.4522                                         !
 ! R68   R(66,67)                1.0898                                         !
 ! R69   R(66,68)                1.534                                          !
 ! R70   R(66,69)                1.5405                                         !
 ! R71   R(68,72)                1.2299                                         !
 ! R72   R(68,83)                1.355                                          !
 ! R73   R(69,70)                1.0987                                         !
 ! R74   R(69,71)                1.0962                                         !
 ! R75   R(69,73)                1.5461                                         !
 ! R76   R(73,74)                1.0991                                         !
 ! R77   R(73,75)                1.5345                                         !
 ! R78   R(73,79)                1.5339                                         !
 ! R79   R(75,76)                1.0973                                         !
 ! R80   R(75,77)                1.0954                                         !
 ! R81   R(75,78)                1.0938                                         !
 ! R82   R(79,80)                1.0972                                         !
 ! R83   R(79,81)                1.096                                          !
 ! R84   R(79,82)                1.0957                                         !
 ! R85   R(83,84)                1.0183                                         !
 ! R86   R(83,85)                1.4536                                         !
 ! R87   R(85,86)                1.0931                                         !
 ! R88   R(85,87)                1.5395                                         !
 ! R89   R(85,88)                1.5429                                         !
 ! R90   R(87,91)                1.2393                                         !
 ! R91   R(87,98)                1.3378                                         !
 ! R92   R(88,89)                1.0974                                         !
 ! R93   R(88,90)                1.094                                          !
 ! R94   R(88,92)                1.5244                                         !
 ! R95   R(92,93)                1.0985                                         !
 ! R96   R(92,94)                1.093                                          !
 ! R97   R(92,95)                1.5129                                         !
 ! R98   R(95,96)                1.2096                                         !
 ! R99   R(95,97)                1.3539                                         !
 ! R100  R(97,123)               0.9759                                         !
 ! R101  R(98,99)                1.0196                                         !
 ! R102  R(98,100)               1.4586                                         !
 ! R103  R(100,101)              1.0952                                         !
 ! R104  R(100,102)              1.5471                                         !
 ! R105  R(100,103)              1.5426                                         !
 ! R106  R(102,106)              1.236                                          !
 ! R107  R(102,122)              1.2897                                         !
 ! R108  R(103,104)              1.0946                                         !
 ! R109  R(103,105)              1.0951                                         !
 ! R110  R(103,107)              1.5417                                         !
 ! R111  R(107,108)              1.0985                                         !
 ! R112  R(107,109)              1.0959                                         !
 ! R113  R(107,110)              1.5382                                         !
 ! R114  R(110,111)              1.097                                          !
 ! R115  R(110,112)              1.097                                          !
 ! R116  R(110,113)              1.4677                                         !
 ! R117  R(113,114)              1.0226                                         !
 ! R118  R(113,121)              1.3383                                         !
 ! R119  R(115,116)              1.009                                          !
 ! R120  R(115,117)              1.0084                                         !
 ! R121  R(115,121)              1.349                                          !
 ! R122  R(118,119)              1.0102                                         !
 ! R123  R(118,120)              1.0464                                         !
 ! R124  R(118,121)              1.3358                                         !
 ! A1    A(2,1,3)              109.5409                                         !
 ! A2    A(2,1,4)              111.8006                                         !
 ! A3    A(2,1,5)              113.8954                                         !
 ! A4    A(3,1,4)              109.4459                                         !
 ! A5    A(3,1,5)              109.2629                                         !
 ! A6    A(4,1,5)              102.6614                                         !
 ! A7    A(1,5,6)              107.1662                                         !
 ! A8    A(1,5,7)              102.3651                                         !
 ! A9    A(1,5,8)              110.1798                                         !
 ! A10   A(6,5,7)              106.5776                                         !
 ! A11   A(6,5,8)              110.838                                          !
 ! A12   A(7,5,8)              118.8781                                         !
 ! A13   A(5,7,11)             116.9851                                         !
 ! A14   A(5,7,23)             118.5295                                         !
 ! A15   A(11,7,23)            124.3231                                         !
 ! A16   A(5,8,9)              108.2314                                         !
 ! A17   A(5,8,10)             108.2618                                         !
 ! A18   A(5,8,12)             113.4983                                         !
 ! A19   A(9,8,10)             106.2638                                         !
 ! A20   A(9,8,12)             109.6913                                         !
 ! A21   A(10,8,12)            110.6106                                         !
 ! A22   A(8,12,13)            119.553                                          !
 ! A23   A(8,12,15)            121.5638                                         !
 ! A24   A(13,12,15)           118.8547                                         !
 ! A25   A(12,13,14)           119.9058                                         !
 ! A26   A(12,13,17)           121.0175                                         !
 ! A27   A(14,13,17)           118.941                                          !
 ! A28   A(12,15,16)           120.5724                                         !
 ! A29   A(12,15,19)           119.9996                                         !
 ! A30   A(16,15,19)           119.3426                                         !
 ! A31   A(13,17,18)           119.3014                                         !
 ! A32   A(13,17,21)           119.6259                                         !
 ! A33   A(18,17,21)           121.0389                                         !
 ! A34   A(15,19,20)           119.3454                                         !
 ! A35   A(15,19,21)           120.6316                                         !
 ! A36   A(20,19,21)           120.0103                                         !
 ! A37   A(17,21,19)           119.8524                                         !
 ! A38   A(17,21,22)           120.1264                                         !
 ! A39   A(19,21,22)           120.0172                                         !
 ! A40   A(7,23,24)            121.0319                                         !
 ! A41   A(7,23,25)            120.0686                                         !
 ! A42   A(24,23,25)           118.3744                                         !
 ! A43   A(23,25,26)           107.1639                                         !
 ! A44   A(23,25,27)           105.8499                                         !
 ! A45   A(23,25,28)           111.3695                                         !
 ! A46   A(26,25,27)           105.8902                                         !
 ! A47   A(26,25,28)           109.0652                                         !
 ! A48   A(27,25,28)           116.9636                                         !
 ! A49   A(25,27,32)           119.1978                                         !
 ! A50   A(25,27,33)           117.4284                                         !
 ! A51   A(32,27,33)           123.2931                                         !
 ! A52   A(25,28,29)           110.4296                                         !
 ! A53   A(25,28,30)           111.5809                                         !
 ! A54   A(25,28,31)           109.5575                                         !
 ! A55   A(29,28,30)           109.3308                                         !
 ! A56   A(29,28,31)           107.8983                                         !
 ! A57   A(30,28,31)           107.9398                                         !
 ! A58   A(27,33,34)           119.5009                                         !
 ! A59   A(27,33,35)           122.9128                                         !
 ! A60   A(34,33,35)           117.139                                          !
 ! A61   A(33,35,36)           106.128                                          !
 ! A62   A(33,35,37)           109.1979                                         !
 ! A63   A(33,35,38)           110.4532                                         !
 ! A64   A(36,35,37)           108.5058                                         !
 ! A65   A(36,35,38)           110.9117                                         !
 ! A66   A(37,35,38)           111.4759                                         !
 ! A67   A(35,37,42)           122.0255                                         !
 ! A68   A(35,37,43)           112.3974                                         !
 ! A69   A(42,37,43)           125.5353                                         !
 ! A70   A(35,38,39)           109.9387                                         !
 ! A71   A(35,38,40)           110.8928                                         !
 ! A72   A(35,38,41)           110.3831                                         !
 ! A73   A(39,38,40)           106.9671                                         !
 ! A74   A(39,38,41)           109.019                                          !
 ! A75   A(40,38,41)           109.562                                          !
 ! A76   A(37,43,44)           116.7443                                         !
 ! A77   A(37,43,45)           127.3985                                         !
 ! A78   A(44,43,45)           115.5798                                         !
 ! A79   A(43,45,46)           109.9742                                         !
 ! A80   A(43,45,47)           105.2532                                         !
 ! A81   A(43,45,48)           115.2905                                         !
 ! A82   A(46,45,47)           110.02                                           !
 ! A83   A(46,45,48)           107.3162                                         !
 ! A84   A(47,45,48)           108.9424                                         !
 ! A85   A(45,47,51)           120.3682                                         !
 ! A86   A(45,47,64)           116.9388                                         !
 ! A87   A(51,47,64)           122.6922                                         !
 ! A88   A(45,48,49)           106.9208                                         !
 ! A89   A(45,48,50)           106.9504                                         !
 ! A90   A(45,48,52)           113.6068                                         !
 ! A91   A(49,48,50)           107.8832                                         !
 ! A92   A(49,48,52)           109.4564                                         !
 ! A93   A(50,48,52)           111.7554                                         !
 ! A94   A(48,52,53)           121.3089                                         !
 ! A95   A(48,52,55)           120.2577                                         !
 ! A96   A(53,52,55)           118.4021                                         !
 ! A97   A(52,53,54)           119.1866                                         !
 ! A98   A(52,53,57)           121.1163                                         !
 ! A99   A(54,53,57)           119.6826                                         !
 ! A100  A(52,55,56)           120.2589                                         !
 ! A101  A(52,55,59)           120.933                                          !
 ! A102  A(56,55,59)           118.8049                                         !
 ! A103  A(53,57,58)           121.6252                                         !
 ! A104  A(53,57,63)           119.5197                                         !
 ! A105  A(58,57,63)           118.8345                                         !
 ! A106  A(55,59,60)           119.8645                                         !
 ! A107  A(55,59,63)           119.7224                                         !
 ! A108  A(60,59,63)           120.4067                                         !
 ! A109  A(62,61,63)           108.4696                                         !
 ! A110  A(57,63,59)           120.2406                                         !
 ! A111  A(57,63,61)           117.7534                                         !
 ! A112  A(59,63,61)           121.9676                                         !
 ! A113  A(47,64,65)           119.4562                                         !
 ! A114  A(47,64,66)           122.1359                                         !
 ! A115  A(65,64,66)           117.3327                                         !
 ! A116  A(64,66,67)           105.821                                          !
 ! A117  A(64,66,68)           109.5965                                         !
 ! A118  A(64,66,69)           112.8906                                         !
 ! A119  A(67,66,68)           108.85                                           !
 ! A120  A(67,66,69)           107.6915                                         !
 ! A121  A(68,66,69)           111.7318                                         !
 ! A122  A(66,68,72)           122.0547                                         !
 ! A123  A(66,68,83)           113.41                                           !
 ! A124  A(72,68,83)           124.5347                                         !
 ! A125  A(66,69,70)           109.8263                                         !
 ! A126  A(66,69,71)           106.8522                                         !
 ! A127  A(66,69,73)           113.7789                                         !
 ! A128  A(70,69,71)           106.132                                          !
 ! A129  A(70,69,73)           110.6003                                         !
 ! A130  A(71,69,73)           109.3012                                         !
 ! A131  A(69,73,74)           107.6114                                         !
 ! A132  A(69,73,75)           112.496                                          !
 ! A133  A(69,73,79)           110.1163                                         !
 ! A134  A(74,73,75)           108.2019                                         !
 ! A135  A(74,73,79)           107.7142                                         !
 ! A136  A(75,73,79)           110.523                                          !
 ! A137  A(73,75,76)           110.597                                          !
 ! A138  A(73,75,77)           110.7763                                         !
 ! A139  A(73,75,78)           111.9944                                         !
 ! A140  A(76,75,77)           107.615                                          !
 ! A141  A(76,75,78)           107.9151                                         !
 ! A142  A(77,75,78)           107.775                                          !
 ! A143  A(73,79,80)           110.9389                                         !
 ! A144  A(73,79,81)           111.0612                                         !
 ! A145  A(73,79,82)           111.0677                                         !
 ! A146  A(80,79,81)           107.912                                          !
 ! A147  A(80,79,82)           107.6137                                         !
 ! A148  A(81,79,82)           108.1023                                         !
 ! A149  A(68,83,84)           119.4454                                         !
 ! A150  A(68,83,85)           124.1188                                         !
 ! A151  A(84,83,85)           112.0032                                         !
 ! A152  A(83,85,86)           109.217                                          !
 ! A153  A(83,85,87)           105.9359                                         !
 ! A154  A(83,85,88)           112.6737                                         !
 ! A155  A(86,85,87)           111.2306                                         !
 ! A156  A(86,85,88)           108.7239                                         !
 ! A157  A(87,85,88)           109.0679                                         !
 ! A158  A(85,87,91)           120.1703                                         !
 ! A159  A(85,87,98)           115.3613                                         !
 ! A160  A(91,87,98)           124.4259                                         !
 ! A161  A(85,88,89)           108.6124                                         !
 ! A162  A(85,88,90)           108.8156                                         !
 ! A163  A(85,88,92)           113.0182                                         !
 ! A164  A(89,88,90)           107.2844                                         !
 ! A165  A(89,88,92)           109.2316                                         !
 ! A166  A(90,88,92)           109.7119                                         !
 ! A167  A(88,92,93)           110.2929                                         !
 ! A168  A(88,92,94)           111.0                                            !
 ! A169  A(88,92,95)           112.8021                                         !
 ! A170  A(93,92,94)           106.8831                                         !
 ! A171  A(93,92,95)           107.3634                                         !
 ! A172  A(94,92,95)           108.2539                                         !
 ! A173  A(92,95,96)           125.6706                                         !
 ! A174  A(92,95,97)           111.124                                          !
 ! A175  A(96,95,97)           123.1684                                         !
 ! A176  A(95,97,123)          106.5552                                         !
 ! A177  A(87,98,99)           121.989                                          !
 ! A178  A(87,98,100)          124.0085                                         !
 ! A179  A(99,98,100)          112.2069                                         !
 ! A180  A(98,100,101)         108.8942                                         !
 ! A181  A(98,100,102)         108.3409                                         !
 ! A182  A(98,100,103)         112.627                                          !
 ! A183  A(101,100,102)        108.5331                                         !
 ! A184  A(101,100,103)        107.0566                                         !
 ! A185  A(102,100,103)        111.2897                                         !
 ! A186  A(100,102,106)        117.122                                          !
 ! A187  A(100,102,122)        115.0992                                         !
 ! A188  A(106,102,122)        127.5076                                         !
 ! A189  A(100,103,104)        106.8829                                         !
 ! A190  A(100,103,105)        106.8938                                         !
 ! A191  A(100,103,107)        117.1144                                         !
 ! A192  A(104,103,105)        107.5054                                         !
 ! A193  A(104,103,107)        107.943                                          !
 ! A194  A(105,103,107)        110.0968                                         !
 ! A195  A(103,107,108)        110.3212                                         !
 ! A196  A(103,107,109)        107.7637                                         !
 ! A197  A(103,107,110)        117.3931                                         !
 ! A198  A(108,107,109)        105.531                                          !
 ! A199  A(108,107,110)        109.3718                                         !
 ! A200  A(109,107,110)        105.7029                                         !
 ! A201  A(107,110,111)        108.9794                                         !
 ! A202  A(107,110,112)        109.0709                                         !
 ! A203  A(107,110,113)        112.5232                                         !
 ! A204  A(111,110,112)        108.1787                                         !
 ! A205  A(111,110,113)        108.9781                                         !
 ! A206  A(112,110,113)        109.017                                          !
 ! A207  A(110,113,114)        116.0689                                         !
 ! A208  A(110,113,121)        124.1169                                         !
 ! A209  A(114,113,121)        111.7401                                         !
 ! A210  A(116,115,117)        116.6405                                         !
 ! A211  A(116,115,121)        119.5898                                         !
 ! A212  A(117,115,121)        119.975                                          !
 ! A213  A(119,118,120)        118.0334                                         !
 ! A214  A(119,118,121)        118.4201                                         !
 ! A215  A(120,118,121)        113.062                                          !
 ! A216  A(113,121,115)        120.3521                                         !
 ! A217  A(113,121,118)        118.3993                                         !
 ! A218  A(115,121,118)        121.1042                                         !
 ! D1    D(2,1,5,6)            -24.8312                                         !
 ! D2    D(2,1,5,7)           -136.7584                                         !
 ! D3    D(2,1,5,8)             95.8455                                         !
 ! D4    D(3,1,5,6)           -147.6759                                         !
 ! D5    D(3,1,5,7)            100.397                                          !
 ! D6    D(3,1,5,8)            -26.9992                                         !
 ! D7    D(4,1,5,6)             96.2229                                         !
 ! D8    D(4,1,5,7)            -15.7043                                         !
 ! D9    D(4,1,5,8)           -143.1004                                         !
 ! D10   D(1,5,7,11)            16.8014                                         !
 ! D11   D(1,5,7,23)          -167.6269                                         !
 ! D12   D(6,5,7,11)           -95.5643                                         !
 ! D13   D(6,5,7,23)            80.0074                                         !
 ! D14   D(8,5,7,11)           138.4172                                         !
 ! D15   D(8,5,7,23)           -46.0111                                         !
 ! D16   D(1,5,8,9)            -72.1022                                         !
 ! D17   D(1,5,8,10)           173.1142                                         !
 ! D18   D(1,5,8,12)            49.9068                                         !
 ! D19   D(6,5,8,9)             46.3447                                         !
 ! D20   D(6,5,8,10)           -68.4389                                         !
 ! D21   D(6,5,8,12)           168.3537                                         !
 ! D22   D(7,5,8,9)            170.3011                                         !
 ! D23   D(7,5,8,10)            55.5175                                         !
 ! D24   D(7,5,8,12)           -67.69                                           !
 ! D25   D(5,7,23,24)           15.1475                                         !
 ! D26   D(5,7,23,25)         -173.2989                                         !
 ! D27   D(11,7,23,24)        -169.6315                                         !
 ! D28   D(11,7,23,25)           1.9222                                         !
 ! D29   D(5,8,12,13)         -109.8384                                         !
 ! D30   D(5,8,12,15)           72.1271                                         !
 ! D31   D(9,8,12,13)           11.3553                                         !
 ! D32   D(9,8,12,15)         -166.6792                                         !
 ! D33   D(10,8,12,13)         128.2524                                         !
 ! D34   D(10,8,12,15)         -49.7821                                         !
 ! D35   D(8,12,13,14)          -0.8563                                         !
 ! D36   D(8,12,13,17)        -176.5757                                         !
 ! D37   D(15,12,13,14)        177.2316                                         !
 ! D38   D(15,12,13,17)          1.5122                                         !
 ! D39   D(8,12,15,16)           0.8751                                         !
 ! D40   D(8,12,15,19)         177.4928                                         !
 ! D41   D(13,12,15,16)       -177.1728                                         !
 ! D42   D(13,12,15,19)         -0.5551                                         !
 ! D43   D(12,13,17,18)        176.4394                                         !
 ! D44   D(12,13,17,21)         -1.4684                                         !
 ! D45   D(14,13,17,18)          0.6795                                         !
 ! D46   D(14,13,17,21)       -177.2283                                         !
 ! D47   D(12,15,19,20)       -179.1375                                         !
 ! D48   D(12,15,19,21)         -0.4343                                         !
 ! D49   D(16,15,19,20)         -2.4782                                         !
 ! D50   D(16,15,19,21)        176.2251                                         !
 ! D51   D(13,17,21,19)          0.4546                                         !
 ! D52   D(13,17,21,22)        179.7364                                         !
 ! D53   D(18,17,21,19)       -177.416                                          !
 ! D54   D(18,17,21,22)          1.8658                                         !
 ! D55   D(15,19,21,17)          0.4893                                         !
 ! D56   D(15,19,21,22)       -178.7933                                         !
 ! D57   D(20,19,21,17)        179.1839                                         !
 ! D58   D(20,19,21,22)         -0.0987                                         !
 ! D59   D(7,23,25,26)         -46.0371                                         !
 ! D60   D(7,23,25,27)        -158.7163                                         !
 ! D61   D(7,23,25,28)          73.1694                                         !
 ! D62   D(24,23,25,26)        125.7387                                         !
 ! D63   D(24,23,25,27)         13.0595                                         !
 ! D64   D(24,23,25,28)       -115.0548                                         !
 ! D65   D(23,25,27,32)         63.9323                                         !
 ! D66   D(23,25,27,33)       -112.9075                                         !
 ! D67   D(26,25,27,32)        -49.6321                                         !
 ! D68   D(26,25,27,33)        133.5282                                         !
 ! D69   D(28,25,27,32)       -171.3584                                         !
 ! D70   D(28,25,27,33)         11.8018                                         !
 ! D71   D(23,25,28,29)       -179.8216                                         !
 ! D72   D(23,25,28,30)         58.3617                                         !
 ! D73   D(23,25,28,31)        -61.1127                                         !
 ! D74   D(26,25,28,29)        -61.7542                                         !
 ! D75   D(26,25,28,30)        176.4291                                         !
 ! D76   D(26,25,28,31)         56.9547                                         !
 ! D77   D(27,25,28,29)         58.3008                                         !
 ! D78   D(27,25,28,30)        -63.5158                                         !
 ! D79   D(27,25,28,31)        177.0097                                         !
 ! D80   D(25,27,33,34)          0.8425                                         !
 ! D81   D(25,27,33,35)        172.9435                                         !
 ! D82   D(32,27,33,34)       -175.857                                          !
 ! D83   D(32,27,33,35)         -3.7559                                         !
 ! D84   D(27,33,35,36)         34.2613                                         !
 ! D85   D(27,33,35,37)        -82.5174                                         !
 ! D86   D(27,33,35,38)        154.5526                                         !
 ! D87   D(34,33,35,36)       -153.463                                          !
 ! D88   D(34,33,35,37)         89.7583                                         !
 ! D89   D(34,33,35,38)        -33.1718                                         !
 ! D90   D(33,35,37,42)       -116.095                                          !
 ! D91   D(33,35,37,43)         61.6746                                         !
 ! D92   D(36,35,37,42)        128.6451                                         !
 ! D93   D(36,35,37,43)        -53.5854                                         !
 ! D94   D(38,35,37,42)          6.2228                                         !
 ! D95   D(38,35,37,43)       -176.0076                                         !
 ! D96   D(33,35,38,39)       -179.4116                                         !
 ! D97   D(33,35,38,40)         62.5055                                         !
 ! D98   D(33,35,38,41)        -59.1064                                         !
 ! D99   D(36,35,38,39)        -62.0319                                         !
 ! D100  D(36,35,38,40)        179.8851                                         !
 ! D101  D(36,35,38,41)         58.2733                                         !
 ! D102  D(37,35,38,39)         58.9962                                         !
 ! D103  D(37,35,38,40)        -59.0868                                         !
 ! D104  D(37,35,38,41)        179.3013                                         !
 ! D105  D(35,37,43,44)          0.5672                                         !
 ! D106  D(35,37,43,45)       -173.0758                                         !
 ! D107  D(42,37,43,44)        178.2433                                         !
 ! D108  D(42,37,43,45)          4.6004                                         !
 ! D109  D(37,43,45,46)        -80.9739                                         !
 ! D110  D(37,43,45,47)        160.5578                                         !
 ! D111  D(37,43,45,48)         40.4927                                         !
 ! D112  D(44,43,45,46)        105.3198                                         !
 ! D113  D(44,43,45,47)        -13.1486                                         !
 ! D114  D(44,43,45,48)       -133.2137                                         !
 ! D115  D(43,45,47,51)        -29.3491                                         !
 ! D116  D(43,45,47,64)        150.9671                                         !
 ! D117  D(46,45,47,51)       -147.7866                                         !
 ! D118  D(46,45,47,64)         32.5296                                         !
 ! D119  D(48,45,47,51)         94.8278                                         !
 ! D120  D(48,45,47,64)        -84.856                                          !
 ! D121  D(43,45,48,49)       -167.3562                                         !
 ! D122  D(43,45,48,50)        -51.9982                                         !
 ! D123  D(43,45,48,52)         71.7858                                         !
 ! D124  D(46,45,48,49)        -44.4642                                         !
 ! D125  D(46,45,48,50)         70.8938                                         !
 ! D126  D(46,45,48,52)       -165.3222                                         !
 ! D127  D(47,45,48,49)         74.6227                                         !
 ! D128  D(47,45,48,50)       -170.0193                                         !
 ! D129  D(47,45,48,52)        -46.2353                                         !
 ! D130  D(45,47,64,65)          8.9768                                         !
 ! D131  D(45,47,64,66)        176.8001                                         !
 ! D132  D(51,47,64,65)       -170.699                                          !
 ! D133  D(51,47,64,66)         -2.8757                                         !
 ! D134  D(45,48,52,53)        -76.3901                                         !
 ! D135  D(45,48,52,55)        101.5429                                         !
 ! D136  D(49,48,52,53)        164.1869                                         !
 ! D137  D(49,48,52,55)        -17.8801                                         !
 ! D138  D(50,48,52,53)         44.7393                                         !
 ! D139  D(50,48,52,55)       -137.3277                                         !
 ! D140  D(48,52,53,54)         -5.8051                                         !
 ! D141  D(48,52,53,57)        175.5802                                         !
 ! D142  D(55,52,53,54)        176.2246                                         !
 ! D143  D(55,52,53,57)         -2.3901                                         !
 ! D144  D(48,52,55,56)          2.8446                                         !
 ! D145  D(48,52,55,59)       -176.493                                          !
 ! D146  D(53,52,55,56)       -179.163                                          !
 ! D147  D(53,52,55,59)          1.4993                                         !
 ! D148  D(52,53,57,58)        179.2466                                         !
 ! D149  D(52,53,57,63)          0.9176                                         !
 ! D150  D(54,53,57,58)          0.6386                                         !
 ! D151  D(54,53,57,63)       -177.6903                                         !
 ! D152  D(52,55,59,60)       -178.228                                          !
 ! D153  D(52,55,59,63)          0.8489                                         !
 ! D154  D(56,55,59,60)          2.4249                                         !
 ! D155  D(56,55,59,63)       -178.4982                                         !
 ! D156  D(53,57,63,59)          1.4926                                         !
 ! D157  D(53,57,63,61)       -176.2977                                         !
 ! D158  D(58,57,63,59)       -176.8832                                         !
 ! D159  D(58,57,63,61)          5.3266                                         !
 ! D160  D(55,59,63,57)         -2.3667                                         !
 ! D161  D(55,59,63,61)        175.3282                                         !
 ! D162  D(60,59,63,57)        176.7051                                         !
 ! D163  D(60,59,63,61)         -5.6                                            !
 ! D164  D(62,61,63,57)       -155.9899                                         !
 ! D165  D(62,61,63,59)         26.2604                                         !
 ! D166  D(47,64,66,67)          6.5276                                         !
 ! D167  D(47,64,66,68)       -110.6881                                         !
 ! D168  D(47,64,66,69)        124.0762                                         !
 ! D169  D(65,64,66,67)        174.5961                                         !
 ! D170  D(65,64,66,68)         57.3803                                         !
 ! D171  D(65,64,66,69)        -67.8554                                         !
 ! D172  D(64,66,68,72)        -18.102                                          !
 ! D173  D(64,66,68,83)        161.6148                                         !
 ! D174  D(67,66,68,72)       -133.4008                                         !
 ! D175  D(67,66,68,83)         46.316                                          !
 ! D176  D(69,66,68,72)        107.7987                                         !
 ! D177  D(69,66,68,83)        -72.4845                                         !
 ! D178  D(64,66,69,70)         61.4365                                         !
 ! D179  D(64,66,69,71)        176.1337                                         !
 ! D180  D(64,66,69,73)        -63.1445                                         !
 ! D181  D(67,66,69,70)        177.8795                                         !
 ! D182  D(67,66,69,71)        -67.4233                                         !
 ! D183  D(67,66,69,73)         53.2985                                         !
 ! D184  D(68,66,69,70)        -62.6341                                         !
 ! D185  D(68,66,69,71)         52.0631                                         !
 ! D186  D(68,66,69,73)        172.7849                                         !
 ! D187  D(66,68,83,84)          8.9572                                         !
 ! D188  D(66,68,83,85)        163.4005                                         !
 ! D189  D(72,68,83,84)       -171.3342                                         !
 ! D190  D(72,68,83,85)        -16.8908                                         !
 ! D191  D(66,69,73,74)        -29.2822                                         !
 ! D192  D(66,69,73,75)         89.8076                                         !
 ! D193  D(66,69,73,79)       -146.4269                                         !
 ! D194  D(70,69,73,74)       -153.4465                                         !
 ! D195  D(70,69,73,75)        -34.3567                                         !
 ! D196  D(70,69,73,79)         89.4087                                         !
 ! D197  D(71,69,73,74)         90.0566                                         !
 ! D198  D(71,69,73,75)       -150.8535                                         !
 ! D199  D(71,69,73,79)        -27.0881                                         !
 ! D200  D(69,73,75,76)         62.3848                                         !
 ! D201  D(69,73,75,77)       -178.383                                          !
 ! D202  D(69,73,75,78)        -58.0264                                         !
 ! D203  D(74,73,75,76)       -178.8707                                         !
 ! D204  D(74,73,75,77)        -59.6385                                         !
 ! D205  D(74,73,75,78)         60.7181                                         !
 ! D206  D(79,73,75,76)        -61.1544                                         !
 ! D207  D(79,73,75,77)         58.0778                                         !
 ! D208  D(79,73,75,78)        178.4344                                         !
 ! D209  D(69,73,79,80)        -60.1241                                         !
 ! D210  D(69,73,79,81)         59.8909                                         !
 ! D211  D(69,73,79,82)       -179.7677                                         !
 ! D212  D(74,73,79,80)       -177.2049                                         !
 ! D213  D(74,73,79,81)        -57.19                                           !
 ! D214  D(74,73,79,82)         63.1515                                         !
 ! D215  D(75,73,79,80)         64.7798                                         !
 ! D216  D(75,73,79,81)       -175.2052                                         !
 ! D217  D(75,73,79,82)        -54.8638                                         !
 ! D218  D(68,83,85,86)        -22.8259                                         !
 ! D219  D(68,83,85,87)       -142.7166                                         !
 ! D220  D(68,83,85,88)         98.1077                                         !
 ! D221  D(84,83,85,86)        133.2711                                         !
 ! D222  D(84,83,85,87)         13.3804                                         !
 ! D223  D(84,83,85,88)       -105.7953                                         !
 ! D224  D(83,85,87,91)        -16.2075                                         !
 ! D225  D(83,85,87,98)        166.0617                                         !
 ! D226  D(86,85,87,91)       -134.7723                                         !
 ! D227  D(86,85,87,98)         47.4969                                         !
 ! D228  D(88,85,87,91)        105.3166                                         !
 ! D229  D(88,85,87,98)        -72.4142                                         !
 ! D230  D(83,85,88,89)         64.9724                                         !
 ! D231  D(83,85,88,90)       -178.5427                                         !
 ! D232  D(83,85,88,92)        -56.4076                                         !
 ! D233  D(86,85,88,89)       -173.8126                                         !
 ! D234  D(86,85,88,90)        -57.3277                                         !
 ! D235  D(86,85,88,92)         64.8074                                         !
 ! D236  D(87,85,88,89)        -52.3654                                         !
 ! D237  D(87,85,88,90)         64.1195                                         !
 ! D238  D(87,85,88,92)       -173.7454                                         !
 ! D239  D(85,87,98,99)          5.2528                                         !
 ! D240  D(85,87,98,100)       168.7895                                         !
 ! D241  D(91,87,98,99)       -172.3688                                         !
 ! D242  D(91,87,98,100)        -8.8321                                         !
 ! D243  D(85,88,92,93)        174.4908                                         !
 ! D244  D(85,88,92,94)         56.2218                                         !
 ! D245  D(85,88,92,95)        -65.469                                          !
 ! D246  D(89,88,92,93)         53.4612                                         !
 ! D247  D(89,88,92,94)        -64.8077                                         !
 ! D248  D(89,88,92,95)        173.5014                                         !
 ! D249  D(90,88,92,93)        -63.8777                                         !
 ! D250  D(90,88,92,94)        177.8534                                         !
 ! D251  D(90,88,92,95)         56.1626                                         !
 ! D252  D(88,92,95,96)        -11.2081                                         !
 ! D253  D(88,92,95,97)        170.9588                                         !
 ! D254  D(93,92,95,96)        110.503                                          !
 ! D255  D(93,92,95,97)        -67.3301                                         !
 ! D256  D(94,92,95,96)       -134.4387                                         !
 ! D257  D(94,92,95,97)         47.7283                                         !
 ! D258  D(92,95,97,123)      -179.527                                          !
 ! D259  D(96,95,97,123)         2.576                                          !
 ! D260  D(87,98,100,101)      -41.0036                                         !
 ! D261  D(87,98,100,102)     -158.869                                          !
 ! D262  D(87,98,100,103)       77.5861                                         !
 ! D263  D(99,98,100,101)      123.9486                                         !
 ! D264  D(99,98,100,102)        6.0832                                         !
 ! D265  D(99,98,100,103)     -117.4617                                         !
 ! D266  D(98,100,102,106)     176.7816                                         !
 ! D267  D(98,100,102,122)      -8.7458                                         !
 ! D268  D(101,100,102,106)     58.6859                                         !
 ! D269  D(101,100,102,122)   -126.8416                                         !
 ! D270  D(103,100,102,106)    -58.8724                                         !
 ! D271  D(103,100,102,122)    115.6001                                         !
 ! D272  D(98,100,103,104)     -64.1288                                         !
 ! D273  D(98,100,103,105)    -179.0072                                         !
 ! D274  D(98,100,103,107)      57.0092                                         !
 ! D275  D(101,100,103,104)     55.531                                          !
 ! D276  D(101,100,103,105)    -59.3474                                         !
 ! D277  D(101,100,103,107)    176.669                                          !
 ! D278  D(102,100,103,104)    173.9805                                         !
 ! D279  D(102,100,103,105)     59.102                                          !
 ! D280  D(102,100,103,107)    -64.8815                                         !
 ! D281  D(100,103,107,108)    -40.9602                                         !
 ! D282  D(100,103,107,109)   -155.6981                                         !
 ! D283  D(100,103,107,110)     85.2171                                         !
 ! D284  D(104,103,107,108)     79.6213                                         !
 ! D285  D(104,103,107,109)    -35.1165                                         !
 ! D286  D(104,103,107,110)   -154.2013                                         !
 ! D287  D(105,103,107,108)   -163.3039                                         !
 ! D288  D(105,103,107,109)     81.9582                                         !
 ! D289  D(105,103,107,110)    -37.1266                                         !
 ! D290  D(103,107,110,111)    159.0813                                         !
 ! D291  D(103,107,110,112)     41.1783                                         !
 ! D292  D(103,107,110,113)    -79.9264                                         !
 ! D293  D(108,107,110,111)    -74.2767                                         !
 ! D294  D(108,107,110,112)    167.8203                                         !
 ! D295  D(108,107,110,113)     46.7156                                         !
 ! D296  D(109,107,110,111)     38.9071                                         !
 ! D297  D(109,107,110,112)    -78.9959                                         !
 ! D298  D(109,107,110,113)    159.8994                                         !
 ! D299  D(107,110,113,114)     -4.3091                                         !
 ! D300  D(107,110,113,121)    141.7388                                         !
 ! D301  D(111,110,113,114)    116.6839                                         !
 ! D302  D(111,110,113,121)    -97.2682                                         !
 ! D303  D(112,110,113,114)   -125.4446                                         !
 ! D304  D(112,110,113,121)     20.6033                                         !
 ! D305  D(110,113,121,115)     29.2878                                         !
 ! D306  D(110,113,121,118)   -155.0308                                         !
 ! D307  D(114,113,121,115)    176.5976                                         !
 ! D308  D(114,113,121,118)     -7.721                                          !
 ! D309  D(116,115,121,113)   -159.3083                                         !
 ! D310  D(116,115,121,118)     25.1288                                         !
 ! D311  D(117,115,121,113)     -1.9731                                         !
 ! D312  D(117,115,121,118)   -177.5361                                         !
 ! D313  D(119,118,121,113)    176.9381                                         !
 ! D314  D(119,118,121,115)     -7.4145                                         !
 ! D315  D(120,118,121,113)     32.7243                                         !
 ! D316  D(120,118,121,115)   -151.6283                                         !
 --------------------------------------------------------------------------------
 Symmetry turned off by external request.
 Stoichiometry    C41H61N10O11(1+)
 Framework group  C1[X(C41H61N10O11)]
 Deg. of freedom   363
 Full point group                 C1      NOp   1
                          Input orientation:                          
 ---------------------------------------------------------------------
 Center     Atomic      Atomic             Coordinates (Angstroms)
 Number     Number       Type             X           Y           Z
 ---------------------------------------------------------------------
      1          7           0       -3.098811    4.858123    1.206666
      2          1           0       -2.938369    5.377256    0.342048
      3          1           0       -2.207063    4.749141    1.714361
      4          1           0       -3.802146    5.342012    1.830460
      5          6           0       -3.723861    3.495128    0.996686
      6          1           0       -4.267977    3.531901    0.047007
      7          6           0       -4.792976    3.444222    2.117049
      8          6           0       -2.638456    2.416254    0.960979
      9          1           0       -2.090598    2.512430    0.017383
     10          1           0       -3.127149    1.439941    0.932789
     11          8           0       -5.109084    4.523900    2.644079
     12          6           0       -1.670923    2.494618    2.122934
     13          6           0       -0.347892    2.902685    1.895509
     14          1           0       -0.021532    3.146199    0.887753
     15          6           0       -2.053823    2.128356    3.425788
     16          1           0       -3.055748    1.765399    3.624505
     17          6           0        0.589119    2.918081    2.931956
     18          1           0        1.617853    3.182603    2.713493
     19          6           0       -1.122143    2.163418    4.461735
     20          1           0       -1.425586    1.864988    5.460603
     21          6           0        0.199008    2.551955    4.218939
     22          1           0        0.921384    2.556880    5.029447
     23          7           0       -5.373159    2.278321    2.389214
     24          1           0       -4.976362    1.400621    2.049248
     25          6           0       -6.497348    2.216742    3.343135
     26          1           0       -6.212493    2.811177    4.216844
     27          6           0       -6.557589    0.762150    3.826322
     28          6           0       -7.774458    2.799475    2.737469
     29          1           0       -8.596742    2.749047    3.458298
     30          1           0       -8.062407    2.273134    1.821909
     31          1           0       -7.613254    3.849590    2.485197
     32          8           0       -5.609509    0.300857    4.464356
     33          7           0       -7.635348    0.030959    3.466611
     34          1           0       -8.351094    0.450315    2.889951
     35          6           0       -7.747433   -1.410486    3.732255
     36          1           0       -7.240879   -1.584008    4.686755
     37          6           0       -6.992103   -2.194848    2.623147
     38          6           0       -9.208659   -1.824446    3.810113
     39          1           0       -9.282141   -2.893904    4.017912
     40          1           0       -9.715507   -1.648873    2.855903
     41          1           0       -9.719540   -1.271304    4.603351
     42          8           0       -7.571847   -2.949891    1.851723
     43          7           0       -5.667495   -1.903278    2.594642
     44          1           0       -5.330539   -1.234670    3.284703
     45          6           0       -4.690400   -2.336734    1.612840
     46          1           0       -4.358863   -3.359095    1.839476
     47          6           0       -3.518341   -1.362400    1.753819
     48          6           0       -5.182808   -2.325700    0.132853
     49          1           0       -4.442840   -2.880725   -0.453404
     50          1           0       -6.119816   -2.884427    0.105123
     51          8           0       -3.713253   -0.198518    2.131331
     52          6           0       -5.341030   -0.941028   -0.440163
     53          6           0       -6.437737   -0.134572   -0.104549
     54          1           0       -7.233281   -0.550242    0.504874
     55          6           0       -4.363521   -0.414526   -1.292859
     56          1           0       -3.508335   -1.017612   -1.583340
     57          6           0       -6.534093    1.177257   -0.563811
     58          1           0       -7.384612    1.804525   -0.319185
     59          6           0       -4.459159    0.891152   -1.773158
     60          1           0       -3.706157    1.272489   -2.456707
     61          8           0       -5.624380    3.022629   -1.758376
     62          1           0       -5.131402    3.145854   -2.585465
     63          6           0       -5.532539    1.692698   -1.387263
     64          7           0       -2.296912   -1.830508    1.445170
     65          1           0       -2.207840   -2.739381    1.009005
     66          6           0       -1.116132   -0.985585    1.472830
     67          1           0       -1.442635   -0.032205    1.887780
     68          6           0       -0.613378   -0.757072    0.041731
     69          6           0       -0.005356   -1.537890    2.386255
     70          1           0        0.324270   -2.519899    2.020096
     71          1           0        0.855977   -0.868271    2.279679
     72          8           0       -0.951391   -1.482147   -0.892460
     73          6           0       -0.407412   -1.620048    3.876856
     74          1           0       -1.142607   -0.825593    4.067242
     75          6           0       -1.051072   -2.965341    4.238051
     76          1           0       -0.341311   -3.787379    4.081116
     77          1           0       -1.350437   -2.982442    5.291651
     78          1           0       -1.940530   -3.168998    3.634832
     79          6           0        0.811871   -1.350859    4.767736
     80          1           0        1.602881   -2.088516    4.583161
     81          1           0        1.227925   -0.355248    4.575625
     82          1           0        0.545004   -1.409368    5.828780
     83          7           0        0.216632    0.307660   -0.073694
     84          1           0        0.551144    0.775069    0.766903
     85          6           0        1.092032    0.539589   -1.210785
     86          1           0        1.283659   -0.410136   -1.716927
     87          6           0        2.388646    1.134241   -0.631661
     88          6           0        0.493505    1.531810   -2.229529
     89          1           0        0.405336    2.515195   -1.750425
     90          1           0        1.188690    1.639592   -3.067388
     91          8           0        2.403647    1.592907    0.519529
     92          6           0       -0.873913    1.101478   -2.748071
     93          1           0       -1.300602    1.882946   -3.391397
     94          1           0       -1.575673    0.950666   -1.923836
     95          6           0       -0.817965   -0.172647   -3.561964
     96          8           0        0.188891   -0.710156   -3.962403
     97          8           0       -2.061940   -0.630517   -3.837721
     98          7           0        3.433524    1.152745   -1.466814
     99          1           0        3.350038    0.869574   -2.442750
    100          6           0        4.672947    1.876422   -1.206874
    101          1           0        4.429801    2.850326   -0.768917
    102          6           0        5.392514    2.109950   -2.556363
    103          6           0        5.588093    1.144826   -0.203402
    104          1           0        5.053076    1.114484    0.751110
    105          1           0        6.474279    1.772926   -0.064463
    106          8           0        6.438563    2.767756   -2.530715
    107          6           0        6.009680   -0.295239   -0.557569
    108          1           0        5.160846   -0.847474   -0.983211
    109          1           0        6.256117   -0.811020    0.377470
    110          6           0        7.238879   -0.469725   -1.465740
    111          1           0        7.640338   -1.481852   -1.332204
    112          1           0        8.012037    0.247664   -1.164196
    113          7           0        6.923396   -0.264705   -2.884387
    114          1           0        5.938425   -0.103587   -3.106973
    115          7           0        9.072386    0.310483   -3.581701
    116          1           0        9.652644    1.006116   -4.026072
    117          1           0        9.463989   -0.160177   -2.780479
    118          7           0        7.193886    0.925598   -4.830132
    119          1           0        7.800052    1.430578   -5.461118
    120          1           0        6.237692    1.311719   -4.652287
    121          6           0        7.734900    0.350898   -3.752474
    122          8           0        4.877551    1.492719   -3.564950
    123          1           0       -1.948215   -1.451015   -4.353709
 ---------------------------------------------------------------------
 Rotational constants (GHZ):           0.0745149           0.0204963           0.0200756
 Standard basis: 6-31G(d) (6D, 7F)
  1052 basis functions,  1980 primitive gaussians,  1052 cartesian basis functions
   232 alpha electrons      232 beta electrons
       nuclear repulsion energy     10349.9270036131 Hartrees.
 NAtoms=  123 NActive=  123 NUniq=  123 SFac= 1.00D+00 NAtFMM=   60 NAOKFM=T Big=T
 Integral buffers will be    131072 words long.
 Raffenetti 2 integral format.
 Two-electron integral symmetry is turned off.
 Nuclear repulsion after empirical dispersion term =    10349.6139895857 Hartrees.
 One-electron integrals computed using PRISM.
 NBasis=  1052 RedAO= T EigKep=  3.93D-04  NBF=  1052
 NBsUse=  1052 1.00D-06 EigRej= -1.00D+00 NBFU=  1052
 Initial guess from the checkpoint file:  "conf-669.chk"
 B after Tr=     0.000000    0.000000    0.000000
         Rot=    1.000000    0.000000    0.000000    0.000000 Ang=   0.00 deg.
 Requested convergence on RMS density matrix=1.00D-08 within 128 cycles.
 Requested convergence on MAX density matrix=1.00D-06.
 Requested convergence on             energy=1.00D-06.
 No special actions if energy rises.
 SCF Done:  E(RB3LYP) =  -2974.34765954     A.U. after    1 cycles
            NFock=  1  Conv=0.72D-08     -V/T= 2.0093
 Hyperfine terms turned off by default for NAtoms > 100.

 **********************************************************************

            Population analysis using the SCF Density.

 **********************************************************************

 Alpha  occ. eigenvalues --  -19.27167 -19.26357 -19.24692 -19.21568 -19.20944
 Alpha  occ. eigenvalues --  -19.20598 -19.19783 -19.18989 -19.18939 -19.15348
 Alpha  occ. eigenvalues --  -19.13667 -14.57196 -14.47535 -14.46428 -14.45972
 Alpha  occ. eigenvalues --  -14.45598 -14.44371 -14.43327 -14.43003 -14.42833
 Alpha  occ. eigenvalues --  -14.41884 -10.41376 -10.41092 -10.38904 -10.38435
 Alpha  occ. eigenvalues --  -10.38322 -10.37875 -10.36633 -10.36022 -10.35683
 Alpha  occ. eigenvalues --  -10.33522 -10.33347 -10.32249 -10.32199 -10.31418
 Alpha  occ. eigenvalues --  -10.31155 -10.30729 -10.30688 -10.30547 -10.29837
 Alpha  occ. eigenvalues --  -10.28615 -10.28062 -10.28014 -10.27976 -10.27925
 Alpha  occ. eigenvalues --  -10.27831 -10.27724 -10.27528 -10.27328 -10.27261
 Alpha  occ. eigenvalues --  -10.27214 -10.27182 -10.27135 -10.26826 -10.26806
 Alpha  occ. eigenvalues --  -10.26444 -10.26212 -10.25876 -10.25318 -10.24458
 Alpha  occ. eigenvalues --  -10.23765 -10.23724  -1.17148  -1.17146  -1.14703
 Alpha  occ. eigenvalues --   -1.13718  -1.13135  -1.11615  -1.11420  -1.10682
 Alpha  occ. eigenvalues --   -1.10448  -1.10181  -1.08235  -1.07710  -1.04080
 Alpha  occ. eigenvalues --   -1.02070  -1.02019  -1.00323  -0.99902  -0.99840
 Alpha  occ. eigenvalues --   -0.99415  -0.98232  -0.97534  -0.95450  -0.93717
 Alpha  occ. eigenvalues --   -0.91025  -0.89239  -0.88109  -0.87780  -0.86807
 Alpha  occ. eigenvalues --   -0.86178  -0.84662  -0.83722  -0.83664  -0.83484
 Alpha  occ. eigenvalues --   -0.83100  -0.81991  -0.80744  -0.79156  -0.77901
 Alpha  occ. eigenvalues --   -0.76013  -0.75141  -0.74697  -0.74408  -0.73660
 Alpha  occ. eigenvalues --   -0.72729  -0.72193  -0.71915  -0.71014  -0.70640
 Alpha  occ. eigenvalues --   -0.70238  -0.69820  -0.69367  -0.68536  -0.68406
 Alpha  occ. eigenvalues --   -0.67978  -0.67661  -0.67397  -0.66605  -0.66097
 Alpha  occ. eigenvalues --   -0.65317  -0.64933  -0.64176  -0.63948  -0.63624
 Alpha  occ. eigenvalues --   -0.62881  -0.62771  -0.62416  -0.61596  -0.61297
 Alpha  occ. eigenvalues --   -0.59424  -0.59030  -0.58652  -0.58479  -0.58436
 Alpha  occ. eigenvalues --   -0.57837  -0.57520  -0.57102  -0.56776  -0.56489
 Alpha  occ. eigenvalues --   -0.55982  -0.55911  -0.55875  -0.55281  -0.55206
 Alpha  occ. eigenvalues --   -0.54935  -0.54832  -0.54572  -0.54432  -0.53827
 Alpha  occ. eigenvalues --   -0.53587  -0.53183  -0.53093  -0.52726  -0.52432
 Alpha  occ. eigenvalues --   -0.52046  -0.51944  -0.51562  -0.51111  -0.50931
 Alpha  occ. eigenvalues --   -0.50771  -0.50737  -0.50485  -0.50357  -0.50152
 Alpha  occ. eigenvalues --   -0.50081  -0.49695  -0.49622  -0.49354  -0.48940
 Alpha  occ. eigenvalues --   -0.48717  -0.48689  -0.48353  -0.48235  -0.47980
 Alpha  occ. eigenvalues --   -0.47666  -0.47468  -0.47365  -0.47316  -0.46831
 Alpha  occ. eigenvalues --   -0.46705  -0.46469  -0.46241  -0.45707  -0.45359
 Alpha  occ. eigenvalues --   -0.45298  -0.45219  -0.44889  -0.44755  -0.44555
 Alpha  occ. eigenvalues --   -0.44362  -0.44192  -0.43856  -0.43765  -0.43544
 Alpha  occ. eigenvalues --   -0.43384  -0.43324  -0.43013  -0.42892  -0.42460
 Alpha  occ. eigenvalues --   -0.42296  -0.41892  -0.41338  -0.40915  -0.40815
 Alpha  occ. eigenvalues --   -0.40243  -0.39737  -0.39545  -0.39331  -0.39165
 Alpha  occ. eigenvalues --   -0.38465  -0.37474  -0.36861  -0.36423  -0.35645
 Alpha  occ. eigenvalues --   -0.35412  -0.34846  -0.34672  -0.34455  -0.34209
 Alpha  occ. eigenvalues --   -0.33931  -0.33606  -0.33388  -0.33077  -0.32893
 Alpha  occ. eigenvalues --   -0.32611  -0.32299  -0.31673  -0.30451  -0.30357
 Alpha  occ. eigenvalues --   -0.30121  -0.27700
 Alpha virt. eigenvalues --   -0.11026  -0.10513  -0.09661  -0.09056  -0.08422
 Alpha virt. eigenvalues --   -0.07815  -0.07367  -0.06902  -0.06137  -0.06074
 Alpha virt. eigenvalues --   -0.05558  -0.04796  -0.04651  -0.03443  -0.02176
 Alpha virt. eigenvalues --   -0.02024  -0.01541  -0.01299  -0.00571  -0.00243
 Alpha virt. eigenvalues --    0.00392   0.00626   0.01493   0.01650   0.01742
 Alpha virt. eigenvalues --    0.02282   0.02558   0.03094   0.03259   0.03660
 Alpha virt. eigenvalues --    0.03767   0.04058   0.04285   0.04459   0.04699
 Alpha virt. eigenvalues --    0.05022   0.05176   0.05584   0.05700   0.05893
 Alpha virt. eigenvalues --    0.06386   0.06567   0.06844   0.06877   0.07464
[...]
 Alpha virt. eigenvalues --    0.94787   0.95392   0.95936   0.96250   0.96464
 Alpha virt. eigenvalues --    0.96616   0.97289   0.97755   0.98248   0.99126
 Alpha virt. eigenvalues --    0.99471   0.99644   0.99940   1.00629   1.01016
 Alpha virt. eigenvalues --    1.01298   1.01727   1.01923   1.02181   1.03091
 Alpha virt. eigenvalues --    1.03429   1.03941   1.04501   1.04606   1.05300
 Alpha virt. eigenvalues --    1.05690   1.06098   1.06317   1.06525   1.07171
 Alpha virt. eigenvalues --    1.07579   1.07734   1.08420   1.08762   1.09651
 Alpha virt. eigenvalues --    1.10020   1.10123   1.10665   1.11067   1.11308
 Alpha virt. eigenvalues --    1.12345   1.12771   1.13400   1.13719   1.14015
 Alpha virt. eigenvalues --    1.14323   1.14696   1.15188   1.15499   1.15883
 Alpha virt. eigenvalues --    1.16557   1.16990   1.17676   1.18192   1.18261
 Alpha virt. eigenvalues --    1.18692   1.18785   1.19945   1.20431   1.20556
 Alpha virt. eigenvalues --    1.21399   1.22013   1.22463   1.22565   1.22867
 Alpha virt. eigenvalues --    1.23001   1.24142   1.24581   1.25194   1.26098
 Alpha virt. eigenvalues --    1.26276   1.27353   1.27746   1.28358   1.29079
 Alpha virt. eigenvalues --    1.29322   1.29963   1.30134   1.30324   1.31571
 Alpha virt. eigenvalues --    1.32230   1.32424   1.33286   1.33926   1.34799
 Alpha virt. eigenvalues --    1.35091   1.35206   1.35546   1.36034   1.36335
 Alpha virt. eigenvalues --    1.36800   1.37333   1.37575   1.38261   1.38930
 Alpha virt. eigenvalues --    1.38978   1.39714   1.40048   1.40328   1.40567
 Alpha virt. eigenvalues --    1.40835   1.40953   1.41424   1.42037   1.42317
 Alpha virt. eigenvalues --    1.42921   1.43227   1.43512   1.43653   1.44352
 Alpha virt. eigenvalues --    1.44702   1.45554   1.46153   1.46441   1.46958
 Alpha virt. eigenvalues --    1.47577   1.48850   1.49495   1.49760   1.50348
 Alpha virt. eigenvalues --    1.51196   1.51715   1.52322   1.52642   1.52926
 Alpha virt. eigenvalues --    1.53166   1.53459   1.54147   1.54511   1.54843
 Alpha virt. eigenvalues --    1.55592   1.56712   1.57996   1.58462   1.58833
 Alpha virt. eigenvalues --    1.59724   1.61381   1.61712   1.62588   1.63460
 Alpha virt. eigenvalues --    1.64337   1.64605   1.64731   1.65036   1.65406
 Alpha virt. eigenvalues --    1.66373   1.67023   1.67239   1.67616   1.68284
 Alpha virt. eigenvalues --    1.68552   1.69039   1.69378   1.69682   1.69790
 Alpha virt. eigenvalues --    1.70012   1.70658   1.70719   1.71184   1.71506
 Alpha virt. eigenvalues --    1.71852   1.72100   1.72723   1.72927   1.73413
 Alpha virt. eigenvalues --    1.73606   1.74111   1.74594   1.74754   1.74982
 Alpha virt. eigenvalues --    1.75341   1.75937   1.76054   1.76177   1.76563
 Alpha virt. eigenvalues --    1.76760   1.77086   1.77156   1.77341   1.77939
 Alpha virt. eigenvalues --    1.78362   1.78721   1.79011   1.79287   1.79525
 Alpha virt. eigenvalues --    1.79753   1.79969   1.80287   1.80401   1.80704
 Alpha virt. eigenvalues --    1.81095   1.81325   1.81997   1.82320   1.82542
 Alpha virt. eigenvalues --    1.83013   1.83881   1.84185   1.84528   1.85007
 Alpha virt. eigenvalues --    1.85317   1.85463   1.85695   1.86150   1.86571
 Alpha virt. eigenvalues --    1.87069   1.87776   1.88095   1.88287   1.88584
 Alpha virt. eigenvalues --    1.88746   1.89148   1.89770   1.90186   1.90221
 Alpha virt. eigenvalues --    1.90505   1.90903   1.91017   1.91353   1.91973
 Alpha virt. eigenvalues --    1.92262   1.92624   1.92662   1.92847   1.93310
 Alpha virt. eigenvalues --    1.93541   1.93827   1.94118   1.94733   1.94812
 Alpha virt. eigenvalues --    1.95376   1.95997   1.96407   1.96435   1.97063
 Alpha virt. eigenvalues --    1.97218   1.97444   1.97795   1.98055   1.99109
 Alpha virt. eigenvalues --    1.99654   1.99986   2.00392   2.00786   2.01264
 Alpha virt. eigenvalues --    2.01558   2.02179   2.02675   2.03114   2.03352
 Alpha virt. eigenvalues --    2.03820   2.04336   2.04963   2.05276   2.05481
 Alpha virt. eigenvalues --    2.05919   2.06507   2.06966   2.07075   2.07277
 Alpha virt. eigenvalues --    2.07677   2.07961   2.08037   2.08683   2.08964
 Alpha virt. eigenvalues --    2.09489   2.09754   2.09860   2.11726   2.12389
 Alpha virt. eigenvalues --    2.12552   2.13502   2.14171   2.14298   2.14801
 Alpha virt. eigenvalues --    2.17454   2.17665   2.18137   2.18290   2.18906
 Alpha virt. eigenvalues --    2.18961   2.19397   2.19737   2.19865   2.20135
 Alpha virt. eigenvalues --    2.20424   2.20693   2.20889   2.20994   2.21634
 Alpha virt. eigenvalues --    2.22385   2.22779   2.22903   2.23375   2.23665
 Alpha virt. eigenvalues --    2.24116   2.24684   2.25011   2.25422   2.26245
 Alpha virt. eigenvalues --    2.26782   2.27780   2.28026   2.28681   2.29222
 Alpha virt. eigenvalues --    2.29493   2.29630   2.30247   2.30500   2.31540
 Alpha virt. eigenvalues --    2.32106   2.32344   2.33457   2.33746   2.34365
 Alpha virt. eigenvalues --    2.34896   2.35193   2.36083   2.36948   2.37286
 Alpha virt. eigenvalues --    2.38221   2.38751   2.39054   2.39355   2.39820
 Alpha virt. eigenvalues --    2.40197   2.40534   2.40872   2.41145   2.42157
 Alpha virt. eigenvalues --    2.42352   2.42670   2.43900   2.44291   2.44720
 Alpha virt. eigenvalues --    2.45702   2.46299   2.47060   2.47555   2.48047
 Alpha virt. eigenvalues --    2.48408   2.48909   2.49578   2.50314   2.50507
 Alpha virt. eigenvalues --    2.51018   2.52304   2.52724   2.53733   2.54202
 Alpha virt. eigenvalues --    2.55357   2.55690   2.56035   2.56420   2.56565
 Alpha virt. eigenvalues --    2.57045   2.57648   2.58257   2.59059   2.59241
 Alpha virt. eigenvalues --    2.59497   2.60122   2.60635   2.61203   2.61785
 Alpha virt. eigenvalues --    2.62761   2.63783   2.63964   2.64495   2.64937
 Alpha virt. eigenvalues --    2.65251   2.65637   2.66080   2.66506   2.66723
 Alpha virt. eigenvalues --    2.68007   2.68347   2.68840   2.69336   2.71225
 Alpha virt. eigenvalues --    2.71651   2.72067   2.72319   2.72707   2.74892
 Alpha virt. eigenvalues --    2.76814   2.78492   2.79769   2.80460   2.81072
 Alpha virt. eigenvalues --    2.81800   2.82326   2.82780   2.83329   2.84369
 Alpha virt. eigenvalues --    2.86070   2.87456   2.88732   2.89979   2.90504
 Alpha virt. eigenvalues --    2.91704   2.92578   2.93043   2.93415   2.93975
 Alpha virt. eigenvalues --    2.94611   2.95551   2.96538   2.97356   2.99768
 Alpha virt. eigenvalues --    3.00007   3.01306   3.04515   3.05109   3.05662
 Alpha virt. eigenvalues --    3.07464   3.08461   3.10665   3.13953   3.14582
 Alpha virt. eigenvalues --    3.17649   3.31648   3.34349   3.69709   3.72091
 Alpha virt. eigenvalues --    3.82639   3.83891   3.87285   3.90842   3.91757
 Alpha virt. eigenvalues --    3.91851   3.94984   3.96763   3.98214   4.00680
 Alpha virt. eigenvalues --    4.02641   4.02841   4.04378   4.05379   4.06383
 Alpha virt. eigenvalues --    4.07453   4.08246   4.09809   4.11154   4.12049
 Alpha virt. eigenvalues --    4.12862   4.14712   4.15220   4.16650   4.17263
 Alpha virt. eigenvalues --    4.18326   4.18532   4.20299   4.21803   4.22719
 Alpha virt. eigenvalues --    4.23599   4.24143   4.26069   4.27784   4.28592
 Alpha virt. eigenvalues --    4.29082   4.30095   4.31874   4.32258   4.33505
 Alpha virt. eigenvalues --    4.37357   4.38969   4.41495   4.42429   4.43339
 Alpha virt. eigenvalues --    4.44968   4.46481   4.47892   4.49006   4.50928
 Alpha virt. eigenvalues --    4.51893   4.55496   4.56560   4.60341   4.61606
 Alpha virt. eigenvalues --    4.62631   4.64019   4.65067   4.70493   4.71195
          Condensed to atoms (all electrons):
 Mulliken charges:
               1
     1  N   -0.753299
     2  H    0.404326
     3  H    0.402536
     4  H    0.429438
     5  C   -0.134271
     6  H    0.247674
     7  C    0.654701
     8  C   -0.397036
     9  H    0.167364
    10  H    0.240113
    11  O   -0.553647
    12  C    0.076185
    13  C   -0.236950
    14  H    0.148399
    15  C   -0.182525
    16  H    0.186562
    17  C   -0.115272
    18  H    0.178067
    19  C   -0.132095
    20  H    0.161892
    21  C   -0.130724
    22  H    0.159119
    23  N   -0.629692
    24  H    0.417341
    25  C   -0.012622
    26  H    0.208067
    27  C    0.578085
    28  C   -0.495121
    29  H    0.177706
    30  H    0.157856
    31  H    0.199070
    32  O   -0.525742
    33  N   -0.590810
    34  H    0.348144
    35  C   -0.079297
    36  H    0.197658
    37  C    0.630111
    38  C   -0.459214
    39  H    0.189024
    40  H    0.165212
    41  H    0.161568
    42  O   -0.521038
    43  N   -0.657588
    44  H    0.399365
    45  C    0.002164
    46  H    0.170519
    47  C    0.619134
    48  C   -0.388918
    49  H    0.156384
    50  H    0.224938
    51  O   -0.563425
    52  C    0.161308
    53  C   -0.197668
    54  H    0.144369
    55  C   -0.214776
    56  H    0.180955
    57  C   -0.169571
    58  H    0.148966
    59  C   -0.200997
    60  H    0.137681
    61  O   -0.661433
    62  H    0.414252
    63  C    0.323091
    64  N   -0.576857
    65  H    0.349668
    66  C   -0.119614
    67  H    0.209184
    68  C    0.624788
    69  C   -0.278093
    70  H    0.147387
    71  H    0.158506
    72  O   -0.540946
    73  C   -0.070687
    74  H    0.139714
    75  C   -0.447330
    76  H    0.147114
    77  H    0.153889
    78  H    0.134457
    79  C   -0.454185
    80  H    0.148337
    81  H    0.144274
    82  H    0.149774
    83  N   -0.638483
    84  H    0.383601
    85  C   -0.067137
    86  H    0.206063
    87  C    0.611882
    88  C   -0.263208
    89  H    0.130899
    90  H    0.183483
    91  O   -0.567385
    92  C   -0.378953
    93  H    0.169130
    94  H    0.187123
    95  C    0.627876
    96  O   -0.462964
    97  O   -0.576029
    98  N   -0.613595
    99  H    0.364787
   100  C   -0.042562
   101  H    0.167514
   102  C    0.587681
   103  C   -0.267407
   104  H    0.163554
   105  H    0.163954
   106  O   -0.566226
   107  C   -0.311705
   108  H    0.157018
   109  H    0.158158
   110  C   -0.140842
   111  H    0.164794
   112  H    0.165203
   113  N   -0.588831
   114  H    0.370481
   115  N   -0.758319
   116  H    0.368197
   117  H    0.370534
   118  N   -0.749985
   119  H    0.342516
   120  H    0.411088
   121  C    0.782646
   122  O   -0.648936
   123  H    0.419391
 Sum of Mulliken charges =   1.00000
 Mulliken charges with hydrogens summed into heavy atoms:
               1
     1  N    0.483002
     5  C    0.113402
     7  C    0.654701
     8  C    0.010442
    11  O   -0.553647
    12  C    0.076185
    13  C   -0.088551
    15  C    0.004038
    17  C    0.062795
    19  C    0.029797
    21  C    0.028395
    23  N   -0.212351
    25  C    0.195445
    27  C    0.578085
    28  C    0.039512
    32  O   -0.525742
    33  N   -0.242666
    35  C    0.118361
    37  C    0.630111
    38  C    0.056590
    42  O   -0.521038
    43  N   -0.258223
    45  C    0.172683
    47  C    0.619134
    48  C   -0.007596
    51  O   -0.563425
    52  C    0.161308
    53  C   -0.053299
    55  C   -0.033821
    57  C   -0.020605
    59  C   -0.063316
    61  O   -0.247181
    63  C    0.323091
    64  N   -0.227190
    66  C    0.089569
    68  C    0.624788
    69  C    0.027800
    72  O   -0.540946
    73  C    0.069026
    75  C   -0.011870
    79  C   -0.011799
    83  N   -0.254882
    85  C    0.138925
    87  C    0.611882
    88  C    0.051173
    91  O   -0.567385
    92  C   -0.022700
    95  C    0.627876
    96  O   -0.462964
    97  O   -0.156637
    98  N   -0.248808
   100  C    0.124953
   102  C    0.587681
   103  C    0.060100
   106  O   -0.566226
   107  C    0.003472
   110  C    0.189155
   113  N   -0.218350
   115  N   -0.019588
   118  N    0.003620
   121  C    0.782646
   122  O   -0.648936
 Electronic spatial extent (au):  <R**2>=          59015.4255
 Charge=              1.0000 electrons
 Dipole moment (field-independent basis, Debye):
    X=             -2.1891    Y=              9.1511    Z=              1.5672  Tot=              9.5389
 Quadrupole moment (field-independent basis, Debye-Ang):
   XX=           -157.0682   YY=           -308.8011   ZZ=           -319.5929
   XY=            -49.8769   XZ=            -59.4670   YZ=             -1.3100
 Traceless Quadrupole moment (field-independent basis, Debye-Ang):
   XX=            104.7526   YY=            -46.9804   ZZ=            -57.7722
   XY=            -49.8769   XZ=            -59.4670   YZ=             -1.3100
 Octapole moment (field-independent basis, Debye-Ang**2):
  XXX=           2190.1075  YYY=           -347.2037  ZZZ=           -637.3233  XYY=            292.6636
  XXY=            -51.3149  XXZ=           -401.7152  XZZ=            550.9414  YZZ=           -156.3246
  YYZ=           -160.2899  XYZ=            -16.7371
 Hexadecapole moment (field-independent basis, Debye-Ang**3):
 XXXX=         -33592.2031 YYYY=          -7570.1061 ZZZZ=         -14844.5651 XXXY=          -1268.3066
 XXXZ=           1008.5283 YYYX=          -1139.8178 YYYZ=            266.5747 ZZZX=           7075.7388
 ZZZY=            -98.7731 XXYY=         -10407.1164 XXZZ=          -8235.7686 YYZZ=          -3973.5269
 XXYZ=           -277.9386 YYXZ=           2873.7145 ZZXY=            352.3220
 N-N= 1.034961398959D+04 E-N=-2.759200450033D+04  KE= 2.946969866035D+03
 Unable to Open any file for archive entry.
 1\1\GINC-AMR-175\SP\RB3LYP\6-31G(d)\C41H61N10O11(1+)\KENGMITH\24-Jul-2
 022\0\\# B3LYP/6-31G* empiricaldispersion=gd3bj guess=read geom=check 
 nosymm integral(ultrafinegrid)\\Candidate Structure: Conf:669 Charge c
 alc in gas phase\\1,1\N,0,-3.0988108109,4.8581226832,1.2066659351\H,0,
 -2.9383690207,5.3772563473,0.3420481243\H,0,-2.2070625803,4.7491405711
 ,1.7143605319\H,0,-3.8021461883,5.3420117286,1.8304598564\C,0,-3.72386
 13209,3.4951281451,0.9966860972\H,0,-4.267976686,3.5319007635,0.047007
 4962\C,0,-4.7929759183,3.4442220934,2.1170490042\C,0,-2.6384562897,2.4
 1625381,0.960979044\H,0,-2.090598431,2.5124297019,0.0173833365\H,0,-3.
 1271486921,1.4399405529,0.9327885009\O,0,-5.1090836433,4.5238997587,2.
 6440787299\C,0,-1.6709227308,2.4946181684,2.1229336457\C,0,-0.34789198
 59,2.9026849534,1.8955085434\H,0,-0.0215319258,3.1461988673,0.88775330
 76\C,0,-2.0538231798,2.1283560472,3.4257884891\H,0,-3.0557478753,1.765
 398649,3.6245046708\C,0,0.5891185973,2.9180811488,2.9319555347\H,0,1.6
 178529416,3.1826031772,2.7134929716\C,0,-1.1221434739,2.1634176757,4.4
 617347275\H,0,-1.4255861745,1.8649876386,5.4606027615\C,0,0.1990082934
 ,2.5519551398,4.2189390602\H,0,0.9213839526,2.5568803276,5.0294473833\
 N,0,-5.3731594396,2.2783206861,2.3892138225\H,0,-4.9763619485,1.400620
 5873,2.0492477656\C,0,-6.4973481566,2.2167417768,3.3431353027\H,0,-6.2
 124925793,2.8111768908,4.2168435686\C,0,-6.5575892804,0.7621501323,3.8
 263216836\C,0,-7.7744582823,2.7994754602,2.7374685618\H,0,-8.596741605
 3,2.7490466672,3.4582984318\H,0,-8.0624070825,2.2731338882,1.821908724
 5\H,0,-7.6132541462,3.8495904841,2.4851966891\O,0,-5.6095088363,0.3008
 571573,4.4643559232\N,0,-7.6353483901,0.0309587966,3.4666108816\H,0,-8
 .3510941369,0.4503153254,2.8899506437\C,0,-7.7474332984,-1.4104861662,
 3.7322554402\H,0,-7.2408785625,-1.5840082728,4.6867546602\C,0,-6.99210
 34688,-2.1948478748,2.6231471111\C,0,-9.2086586346,-1.8244457847,3.810
 1128097\H,0,-9.2821410751,-2.8939041622,4.0179124655\H,0,-9.7155073439
 ,-1.6488726295,2.8559033239\H,0,-9.7195402323,-1.2713039962,4.60335051
 44\O,0,-7.5718471262,-2.9498914147,1.8517231971\N,0,-5.6674949683,-1.9
 032782293,2.5946417105\H,0,-5.3305388234,-1.2346704432,3.2847025631\C,
 0,-4.6904004004,-2.3367343549,1.6128395817\H,0,-4.3588627582,-3.359095
 1739,1.8394757667\C,0,-3.5183405309,-1.362400161,1.7538193177\C,0,-5.1
 82807739,-2.3256999869,0.1328525881\H,0,-4.4428400696,-2.8807254861,-0
 .4534042743\H,0,-6.1198158488,-2.8844269293,0.1051231338\O,0,-3.713253
 0105,-0.1985176749,2.1313310886\C,0,-5.341030135,-0.9410280697,-0.4401
 625621\C,0,-6.4377365191,-0.1345721493,-0.1045486268\H,0,-7.2332808292
 ,-0.5502419628,0.5048735663\C,0,-4.3635207729,-0.41452621,-1.292858525
 8\H,0,-3.5083346259,-1.0176117824,-1.5833404247\C,0,-6.5340930312,1.17
 72572244,-0.5638107884\H,0,-7.3846121555,1.8045247947,-0.3191848072\C,
 0,-4.4591586793,0.8911519168,-1.7731583111\H,0,-3.7061565023,1.2724889
 891,-2.4567065757\O,0,-5.6243800411,3.0226293572,-1.7583755763\H,0,-5.
 1314021581,3.1458543112,-2.5854647313\C,0,-5.5325390287,1.6926980737,-
 1.3872628841\N,0,-2.2969122055,-1.8305084822,1.4451696393\H,0,-2.20784
 0309,-2.7393812516,1.0090048336\C,0,-1.1161319687,-0.9855846998,1.4728
 303412\H,0,-1.4426352014,-0.032205436,1.8877798319\C,0,-0.613377877,-0
 .7570723603,0.0417308077\C,0,-0.0053560277,-1.5378901245,2.386255445\H
 ,0,0.3242701178,-2.5198986438,2.0200960273\H,0,0.8559766254,-0.8682708
 046,2.2796791175\O,0,-0.9513913553,-1.4821466802,-0.8924597713\C,0,-0.
 4074121739,-1.6200475416,3.8768556393\H,0,-1.1426073838,-0.825593443,4
 .0672419697\C,0,-1.0510718231,-2.9653407612,4.2380512823\H,0,-0.341311
 0773,-3.7873788998,4.0811158612\H,0,-1.3504366185,-2.9824424479,5.2916
 51022\H,0,-1.9405304097,-3.1689982573,3.6348324952\C,0,0.8118714226,-1
 .3508586945,4.7677358732\H,0,1.6028809513,-2.0885162552,4.5831607153\H
 ,0,1.2279248124,-0.3552484207,4.5756248202\H,0,0.5450041978,-1.4093684
 646,5.8287804913\N,0,0.2166323613,0.3076599727,-0.0736944467\H,0,0.551
 1443833,0.7750693343,0.7669027917\C,0,1.0920322378,0.5395887388,-1.210
 7847266\H,0,1.2836587344,-0.4101360811,-1.7169274826\C,0,2.3886459142,
 1.134241213,-0.6316611114\C,0,0.4935045661,1.53181026,-2.22952939\H,0,
 0.4053360905,2.5151951225,-1.7504250652\H,0,1.1886901776,1.6395920795,
 -3.067387732\O,0,2.4036469835,1.5929070099,0.5195286931\C,0,-0.8739134
 436,1.101478221,-2.7480709002\H,0,-1.3006021325,1.8829462526,-3.391397
 1302\H,0,-1.5756726525,0.9506660824,-1.9238355057\C,0,-0.8179649838,-0
 .1726473396,-3.561963872\O,0,0.1888910737,-0.71015593,-3.9624030208\O,
 0,-2.0619402795,-0.6305173821,-3.8377213151\N,0,3.4335242007,1.1527454
 122,-1.4668135398\H,0,3.3500376072,0.8695744464,-2.442750488\C,0,4.672
 9468262,1.8764217779,-1.2068737443\H,0,4.4298008491,2.8503264126,-0.76
 89170597\C,0,5.3925138424,2.1099503354,-2.5563633083\C,0,5.5880925534,
 1.1448257774,-0.2034017983\H,0,5.0530762603,1.1144840848,0.7511098071\
 H,0,6.4742790242,1.7729261606,-0.064462695\O,0,6.4385628412,2.76775628
 39,-2.5307151151\C,0,6.0096800953,-0.2952387542,-0.5575686273\H,0,5.16
 08464549,-0.8474741211,-0.9832110974\H,0,6.2561173331,-0.8110202698,0.
 3774701187\C,0,7.238879008,-0.4697251832,-1.4657401564\H,0,7.640337763
 1,-1.4818522996,-1.3322036124\H,0,8.0120365761,0.2476644141,-1.1641963
 033\N,0,6.9233958274,-0.2647047206,-2.8843874571\H,0,5.9384246209,-0.1
 035870473,-3.1069725066\N,0,9.072385728,0.3104830431,-3.5817006898\H,0
 ,9.6526437503,1.0061159967,-4.026072393\H,0,9.4639892289,-0.160177201,
 -2.7804788103\N,0,7.193886188,0.9255977845,-4.8301324129\H,0,7.8000523
 488,1.4305780698,-5.4611175792\H,0,6.2376923288,1.311719484,-4.6522874
 95\C,0,7.7348995751,0.3508976427,-3.7524742757\O,0,4.8775507186,1.4927
 185466,-3.5649498367\H,0,-1.9482147212,-1.4510148643,-4.3537091137\\Ve
 rsion=ES64L-G16RevC.01\HF=-2974.3476595\RMSD=7.195e-09\Dipole=1.580471
 ,2.5616521,-0.3074389\Quadrupole=77.8809563,-34.9287687,-42.9521876,-3
 7.0822298,-44.2122508,-0.9739386\PG=C01 [X(C41H61N10O11)]\\@
 The archive entry for this job was punched.


 WHEN YOU'VE SEEN ONE NUCLEAR WAR YOU'VE SEEN THEM ALL.
 Job cpu time:       0 days  0 hours  4 minutes 41.4 seconds.
 Elapsed time:       0 days  0 hours  1 minutes 11.2 seconds.
 File lengths (MBytes):  RWF=    800 Int=      0 D2E=      0 Chk=    112 Scr=     32
 Normal termination of Gaussian 16 at Sun Jul 24 01:56:30 2022.
