 Entering Gaussian System, Link 0=/opt/software/Gaussian/g16-AVX2-C.01/g16/g16
 Input=charge-conf-883.com
 Output=charge-conf-883.log
 Initial command:
 /opt/software/Gaussian/g16-AVX2-C.01/g16/l1.exe "/mnt/gs21/scratch/kengmith/Gau-21306.inp" -scrdir="/mnt/gs21/scratch/kengmith/"
 Entering Link 1 = /opt/software/Gaussian/g16-AVX2-C.01/g16/l1.exe PID=     21328.
  
 Copyright (c) 1988-2019, Gaussian, Inc.  All Rights Reserved.
  
 This is part of the Gaussian(R) 16 program.  It is based on
 the Gaussian(R) 09 system (copyright 2009, Gaussian, Inc.),
 the Gaussian(R) 03 system (copyright 2003, Gaussian, Inc.),
 the Gaussian(R) 98 system (copyright 1998, Gaussian, Inc.),
 the Gaussian(R) 94 system (copyright 1995, Gaussian, Inc.),
 the Gaussian 92(TM) system (copyright 1992, Gaussian, Inc.),
 the Gaussian 90(TM) system (copyright 1990, Gaussian, Inc.),
 the Gaussian 88(TM) system (copyright 1988, Gaussian, Inc.),
 the Gaussian 86(TM) system (copyright 1986, Carnegie Mellon
 University), and the Gaussian 82(TM) system (copyright 1983,
 Carnegie Mellon University). Gaussian is a federally registered
 trademark of Gaussian, Inc.
  
 This software contains proprietary and confidential information,
 including trade secrets, belonging to Gaussian, Inc.
  
 This software is provided under written license and may be
 used, copied, transmitted, or stored only in accord with that
 written license.
  
 The following legend is applicable only to US Government
 contracts under FAR:
  
                    RESTRICTED RIGHTS LEGEND
  
 Use, reproduction and disclosure by the US Government is
 subject to restrictions as set forth in subparagraphs (a)
 and (c) of the Commercial Computer Software - Restricted
 Rights clause in FAR 52.227-19.
  
 Gaussian, Inc.
 340 Quinnipiac St., Bldg. 40, Wallingford CT 06492
  
  
 ---------------------------------------------------------------
 Warning -- This program may not be used in any manner that
 competes with the business of Gaussian, Inc. or will provide
 assistance to any competitor of Gaussian, Inc.  The licensee
 of this program is prohibited from giving any competitor of
 Gaussian, Inc. access to this program.  By using this program,
 the user acknowledges that Gaussian, Inc. is engaged in the
 business of creating and licensing software in the field of
 computational chemistry and represents and warrants to the
 licensee that it is not a competitor of Gaussian, Inc. and that
 it will not use this program in any manner prohibited above.
 ---------------------------------------------------------------
  

 Cite this work as:
 Gaussian 16, Revision C.01,
 M. J. Frisch, G. W. Trucks, H. B. Schlegel, G. E. Scuseria, 
 M. A. Robb, J. R. Cheeseman, G. Scalmani, V. Barone, 
 G. A. Petersson, H. Nakatsuji, X. Li, M. Caricato, A. V. Marenich, 
 J. Bloino, B. G. Janesko, R. Gomperts, B. Mennucci, H. P. Hratchian, 
 J. V. Ortiz, A. F. Izmaylov, J. L. Sonnenberg, D. Williams-Young, 
 F. Ding, F. Lipparini, F. Egidi, J. Goings, B. Peng, A. Petrone, 
 T. Henderson, D. Ranasinghe, V. G. Zakrzewski, J. Gao, N. Rega, 
 G. Zheng, W. Liang, M. Hada, M. Ehara, K. Toyota, R. Fukuda, 
 J. Hasegawa, M. Ishida, T. Nakajima, Y. Honda, O. Kitao, H. Nakai, 
 T. Vreven, K. Throssell, J. A. Montgomery, Jr., J. E. Peralta, 
 F. Ogliaro, M. J. Bearpark, J. J. Heyd, E. N. Brothers, K. N. Kudin, 
 V. N. Staroverov, T. A. Keith, R. Kobayashi, J. Normand, 
 K. Raghavachari, A. P. Rendell, J. C. Burant, S. S. Iyengar, 
 J. Tomasi, M. Cossi, J. M. Millam, M. Klene, C. Adamo, R. Cammi, 
 J. W. Ochterski, R. L. Martin, K. Morokuma, O. Farkas, 
 J. B. Foresman, and D. J. Fox, Gaussian, Inc., Wallingford CT, 2019.
 
 ******************************************
 Gaussian 16:  ES64L-G16RevC.01  3-Jul-2019
                24-Jul-2022 
 ******************************************
 %mem=8gb
 %nproc=4
 Will use up to    4 processors via shared memory.
 %chk=conf-883.chk
 ----------------------------------------------------------------------
 # B3LYP/6-31G* empiricaldispersion=gd3bj guess=read geom=check nosymm 
 integral(ultrafinegrid)
 ----------------------------------------------------------------------
 1/29=2,38=1,172=1/1;
 2/12=2,15=1,40=1/2;
 3/5=1,6=6,7=1,11=2,14=-4,25=1,30=1,74=-5,75=-5,116=-2,124=41/1,2,3;
 4/5=1/1;
 5/5=2,38=6/2;
 6/7=2,8=2,9=2,10=2,28=1/1;
 99/5=1,9=1/99;
 ------------------------------------------------------
 Candidate Structure: Conf:883 Charge calc in gas phase
 ------------------------------------------------------
 Structure from the checkpoint file:  "conf-883.chk"
 Charge =  1 Multiplicity = 1
 Redundant internal coordinates found in file.  (old form).
 N,0,-3.1715057049,-1.3265449055,4.996350713
 H,0,-2.153484168,-1.1985438446,5.0192758173
 H,0,-3.427018948,-1.4547956073,3.9914267525
 H,0,-3.4383188523,-2.1690785013,5.5180076333
 C,0,-3.8788610803,-0.1271842951,5.5906990138
 H,0,-3.4180868892,0.0378337399,6.5656172965
 C,0,-5.2984211957,-0.6535919767,5.8835098726
 C,0,-3.6917244173,1.0828359589,4.6792777589
 H,0,-4.2145087448,1.9263477355,5.148335981
 H,0,-4.1723908497,0.8925702999,3.7131004761
 O,0,-5.4259920981,-1.4607983791,6.7900689295
 C,0,-2.236888454,1.4313003969,4.4168469582
 C,0,-1.8338909882,1.7535880374,3.1166514299
 H,0,-2.5584086733,1.7248478299,2.3093803231
 C,0,-1.2835393211,1.4625355356,5.444054582
 H,0,-1.5699587347,1.2493108117,6.4714870529
 C,0,-0.5162015891,2.1202384419,2.8405684795
 H,0,-0.2526711796,2.428763037,1.8329755793
 C,0,0.0442670779,1.7950503068,5.1686741459
 H,0,0.7718160147,1.8127367026,5.9742988242
 C,0,0.4288633323,2.1284615346,3.8686997001
 H,0,1.45718937,2.4138312254,3.6654487302
 N,0,-6.304812982,-0.2497933022,5.0571549618
 H,0,-6.0372444661,0.3182633909,4.2627985828
 C,0,-7.3974471656,-1.186220932,4.8001775606
 H,0,-7.6116415964,-1.6732576455,5.7561477999
 C,0,-6.8183011658,-2.2798536001,3.8646694764
 C,0,-8.6380529073,-0.4561071234,4.2917940497
 H,0,-9.4948288528,-1.1335517578,4.2174543606
 H,0,-8.4689241322,0.000450063,3.3094407892
 H,0,-8.9109793295,0.3339434174,4.9953593654
 O,0,-5.6285761097,-2.6134654186,3.979155641
 N,0,-7.6321036319,-2.8211809992,2.9427731668
 H,0,-8.5732449757,-2.4672476722,2.8398951282
 C,0,-7.2002362973,-3.8608954951,1.9899349649
 H,0,-6.5135045869,-4.512938637,2.5388443666
 C,0,-6.42333265,-3.2021021172,0.8189789401
 C,0,-8.4054792458,-4.640870505,1.4879084164
 H,0,-8.0791567714,-5.4281436543,0.8051494458
 H,0,-9.0831138822,-3.9906763405,0.926170251
 H,0,-8.9415196259,-5.0985397651,2.3243601311
 O,0,-6.8510389551,-3.1792204776,-0.327659429
 N,0,-5.2415797354,-2.6519030695,1.2024909493
 H,0,-5.0201582165,-2.6377972622,2.1955641034
 C,0,-4.4420464578,-1.8215747179,0.3257978622
 H,0,-4.2054704995,-2.381195385,-0.5849875483
 C,0,-3.1612797319,-1.4812158438,1.0842415629
 C,0,-5.1742995926,-0.5132476865,-0.0857646599
 H,0,-6.0905752712,-0.8164756383,-0.5991219085
 H,0,-5.4567471856,0.0161155023,0.8313989151
 O,0,-3.2053997663,-1.1888947353,2.2968703303
 C,0,-4.3032611497,0.355737914,-0.9539265825
 C,0,-3.6783847238,1.4945670103,-0.4325471979
 H,0,-3.9050772131,1.8061823421,0.5838110814
 C,0,-4.0175401545,-0.0087553463,-2.2746305875
 H,0,-4.5037524575,-0.8775887698,-2.7117159586
 C,0,-2.7873764063,2.2505761984,-1.1857317388
 H,0,-2.2859385981,3.1171583949,-0.7743307587
 C,0,-3.1194771592,0.7300837802,-3.0440420288
 H,0,-2.9067265108,0.4354941397,-4.0694194359
 O,0,-1.6041664255,2.6204808817,-3.2044990483
 H,0,-1.5359437918,2.2844884108,-4.1121161129
 C,0,-2.5028855791,1.8521201182,-2.4915628604
 N,0,-2.0306779219,-1.4923768631,0.3792471186
 H,0,-2.0609947655,-1.5880843711,-0.6332201864
 C,0,-0.7216622339,-1.1127965446,0.8927726725
 H,0,-0.857328027,-0.3549890121,1.6678416314
 C,0,0.0609726535,-0.5255812885,-0.2864150934
 C,0,0.0565960686,-2.3359677696,1.4386124927
 H,0,-0.0505113233,-3.1405349476,0.7024345692
 H,0,1.1267872298,-2.1018792587,1.459321743
 O,0,-0.2765965739,-0.7636491508,-1.4487719001
 C,0,-0.3745881208,-2.8293058725,2.8285099801
 H,0,-1.4630742324,-2.9728773646,2.8244885041
 C,0,0.2890969943,-4.1797057014,3.1251714769
 H,0,1.3817952156,-4.0886490039,3.111853035
 H,0,-0.0009808754,-4.5564224446,4.1125114287
 H,0,0.0066953111,-4.9324375153,2.3812551532
 C,0,-0.016550546,-1.8027389994,3.9113658165
 H,0,1.064372713,-1.6203751454,3.9370358014
 H,0,-0.5008532695,-0.8339750267,3.7482413946
 H,0,-0.2849431075,-2.175315554,4.9102924369
 N,0,1.1403246334,0.21510952,0.0630400226
 H,0,1.3713249043,0.2377110136,1.0495395286
 C,0,2.2520142573,0.4210509363,-0.8665010431
 H,0,1.7853637167,0.5286393762,-1.8484404205
 C,0,3.0965584154,-0.8725600281,-0.8826571053
 C,0,3.0525668252,1.695049243,-0.540484322
 H,0,3.821884991,1.4837240169,0.2106956063
 H,0,3.5875045267,1.9845381822,-1.4494974784
 O,0,2.4938026311,-1.9766364422,-0.7637397179
 C,0,2.206449175,2.8746347683,-0.0388839292
 H,0,2.792276974,3.796065438,-0.1467724508
 H,0,1.9867418463,2.7807609652,1.0276507403
 C,0,0.8797496314,3.089335662,-0.7301517887
 O,0,-0.1283024598,3.455076729,-0.1516836194
 O,0,0.9246832453,2.8481858945,-2.0481302667
 N,0,4.4042559894,-0.7612762932,-1.0445495631
 H,0,4.8560326922,0.1575211357,-0.8091958899
 C,0,5.379257593,-1.7293851913,-0.5152780503
 H,0,4.8521245866,-2.4610630378,0.1051741535
 C,0,6.3014388422,-0.8299170037,0.4422139876
 C,0,6.2659853891,-2.4468168623,-1.5376584193
 H,0,7.175540569,-2.6802208352,-0.9747505844
 H,0,6.5554251305,-1.7444911027,-2.3311498581
 O,0,6.0224589051,0.4074735747,0.3983304779
 C,0,5.7651350382,-3.7655632993,-2.1521247176
 H,0,5.3045713732,-4.3932885011,-1.377317768
 H,0,6.6355474274,-4.3258446494,-2.5135071699
 C,0,4.8143771011,-3.66809929,-3.3466849794
 H,0,4.725619138,-4.6557404997,-3.8196384346
 H,0,5.2286157631,-2.9698346143,-4.0877984076
 N,0,3.4819484332,-3.2125655229,-2.9465570067
 H,0,3.2965273007,-2.9730757924,-1.9581862023
 N,0,2.611738796,-3.2103465622,-5.1042754719
 H,0,2.0221570726,-2.7388109513,-5.7735192442
 H,0,3.4783352178,-3.5851931572,-5.4590995471
 N,0,1.3975723545,-2.2983750114,-3.3458043515
 H,0,0.5679954323,-2.2486994602,-3.9158881744
 H,0,1.3136633662,-2.0475972614,-2.3587106649
 C,0,2.5077661848,-2.9056749697,-3.7890916339
 O,0,7.1576214907,-1.4533710435,1.072298463
 H,0,0.0115999098,2.9393257401,-2.4151908407
 Recover connectivity data from disk.
                           ----------------------------
                           !    Current Parameters    !
                           ! (Angstroms and Degrees)  !
 --------------------------                            --------------------------
 ! Name  Definition              Value                                          !
 --------------------------------------------------------------------------------
 ! R1    R(1,2)                  1.0263                                         !
 ! R2    R(1,3)                  1.0448                                         !
 ! R3    R(1,4)                  1.0262                                         !
 ! R4    R(1,5)                  1.514                                          !
 ! R5    R(5,6)                  1.0909                                         !
 ! R6    R(5,7)                  1.5421                                         !
 ! R7    R(5,8)                  1.5264                                         !
 ! R8    R(7,11)                 1.2205                                         !
 ! R9    R(7,23)                 1.3634                                         !
 ! R10   R(8,9)                  1.0976                                         !
 ! R11   R(8,10)                 1.0958                                         !
 ! R12   R(8,12)                 1.5188                                         !
 ! R13   R(12,13)                1.3989                                         !
 ! R14   R(12,15)                1.4018                                         !
 ! R15   R(13,14)                1.0851                                         !
 ! R16   R(13,17)                1.3953                                         !
 ! R17   R(15,16)                1.0877                                         !
 ! R18   R(15,19)                1.3962                                         !
 ! R19   R(17,18)                1.0862                                         !
 ! R20   R(17,21)                1.3965                                         !
 ! R21   R(19,20)                1.0857                                         !
 ! R22   R(19,21)                1.3961                                         !
 ! R23   R(21,22)                1.0864                                         !
 ! R24   R(23,24)                1.0126                                         !
 ! R25   R(23,25)                1.4618                                         !
 ! R26   R(25,26)                1.0941                                         !
 ! R27   R(25,27)                1.5513                                         !
 ! R28   R(25,28)                1.5266                                         !
 ! R29   R(27,32)                1.2409                                         !
 ! R30   R(27,33)                1.3436                                         !
 ! R31   R(28,29)                1.0948                                         !
 ! R32   R(28,30)                1.0964                                         !
 ! R33   R(28,31)                1.0926                                         !
 ! R34   R(33,34)                1.0107                                         !
 ! R35   R(33,35)                1.4749                                         !
 ! R36   R(35,36)                1.0946                                         !
 ! R37   R(35,37)                1.552                                          !
 ! R38   R(35,38)                1.5209                                         !
 ! R39   R(37,42)                1.224                                          !
 ! R40   R(37,43)                1.3588                                         !
 ! R41   R(38,39)                1.092                                          !
 ! R42   R(38,40)                1.0943                                         !
 ! R43   R(38,41)                1.0938                                         !
 ! R44   R(43,44)                1.0176                                         !
 ! R45   R(43,45)                1.4482                                         !
 ! R46   R(45,46)                1.0948                                         !
 ! R47   R(45,47)                1.5269                                         !
 ! R48   R(45,48)                1.5548                                         !
 ! R49   R(47,51)                1.2481                                         !
 ! R50   R(47,64)                1.3324                                         !
 ! R51   R(48,49)                1.0932                                         !
 ! R52   R(48,50)                1.096                                          !
 ! R53   R(48,52)                1.5058                                         !
 ! R54   R(52,53)                1.3997                                         !
 ! R55   R(52,55)                1.3996                                         !
 ! R56   R(53,54)                1.087                                          !
 ! R57   R(53,57)                1.3902                                         !
 ! R58   R(55,56)                1.0873                                         !
 ! R59   R(55,59)                1.3944                                         !
 ! R60   R(57,58)                1.0824                                         !
 ! R61   R(57,63)                1.3946                                         !
 ! R62   R(59,60)                1.0879                                         !
 ! R63   R(59,63)                1.3944                                         !
 ! R64   R(61,62)                0.9702                                         !
 ! R65   R(61,63)                1.3807                                         !
 ! R66   R(64,65)                1.0174                                         !
 ! R67   R(64,66)                1.4565                                         !
 ! R68   R(66,67)                1.0924                                         !
 ! R69   R(66,68)                1.5323                                         !
 ! R70   R(66,69)                1.5491                                         !
 ! R71   R(68,72)                1.2336                                         !
 ! R72   R(68,83)                1.3549                                         !
 ! R73   R(69,70)                1.0958                                         !
 ! R74   R(69,71)                1.0957                                         !
 ! R75   R(69,73)                1.5366                                         !
 ! R76   R(73,74)                1.0979                                         !
 ! R77   R(73,75)                1.5336                                         !
 ! R78   R(73,79)                1.5345                                         !
 ! R79   R(75,76)                1.0966                                         !
 ! R80   R(75,77)                1.0959                                         !
 ! R81   R(75,78)                1.0953                                         !
 ! R82   R(79,80)                1.0965                                         !
 ! R83   R(79,81)                1.0953                                         !
 ! R84   R(79,82)                1.0994                                         !
 ! R85   R(83,84)                1.0134                                         !
 ! R86   R(83,85)                1.4637                                         !
 ! R87   R(85,86)                1.0925                                         !
 ! R88   R(85,87)                1.545                                          !
 ! R89   R(85,88)                1.5396                                         !
 ! R90   R(87,91)                1.2635                                         !
 ! R91   R(87,98)                1.3224                                         !
 ! R92   R(88,89)                1.0958                                         !
 ! R93   R(88,90)                1.0937                                         !
 ! R94   R(88,92)                1.5359                                         !
 ! R95   R(92,93)                1.0972                                         !
 ! R96   R(92,94)                1.093                                          !
 ! R97   R(92,95)                1.5113                                         !
 ! R98   R(95,96)                1.2184                                         !
 ! R99   R(95,97)                1.3406                                         !
 ! R100  R(97,123)               0.9883                                         !
 ! R101  R(98,99)                1.0506                                         !
 ! R102  R(98,100)               1.4724                                         !
 ! R103  R(100,101)              1.0946                                         !
 ! R104  R(100,102)              1.6051                                         !
 ! R105  R(100,103)              1.5317                                         !
 ! R106  R(102,106)              1.2692                                         !
 ! R107  R(102,122)              1.2324                                         !
 ! R108  R(103,104)              1.0948                                         !
 ! R109  R(103,105)              1.0985                                         !
 ! R110  R(103,107)              1.5387                                         !
 ! R111  R(107,108)              1.0984                                         !
 ! R112  R(107,109)              1.0964                                         !
 ! R113  R(107,110)              1.5298                                         !
 ! R114  R(110,111)              1.0986                                         !
 ! R115  R(110,112)              1.0993                                         !
 ! R116  R(110,113)              1.4639                                         !
 ! R117  R(113,114)              1.0337                                         !
 ! R118  R(113,121)              1.324                                          !
 ! R119  R(115,116)              1.0089                                         !
 ! R120  R(115,117)              1.0087                                         !
 ! R121  R(115,121)              1.354                                          !
 ! R122  R(118,119)              1.0078                                         !
 ! R123  R(118,120)              1.0219                                         !
 ! R124  R(118,121)              1.3408                                         !
 ! A1    A(2,1,3)              106.2233                                         !
 ! A2    A(2,1,4)              110.4222                                         !
 ! A3    A(2,1,5)              110.8476                                         !
 ! A4    A(3,1,4)              108.9387                                         !
 ! A5    A(3,1,5)              111.1357                                         !
 ! A6    A(4,1,5)              109.2299                                         !
 ! A7    A(1,5,6)              105.8629                                         !
 ! A8    A(1,5,7)              103.5455                                         !
 ! A9    A(1,5,8)              109.6523                                         !
 ! A10   A(6,5,7)              105.7102                                         !
 ! A11   A(6,5,8)              111.2191                                         !
 ! A12   A(7,5,8)              119.7919                                         !
 ! A13   A(5,7,11)             117.5818                                         !
 ! A14   A(5,7,23)             117.6022                                         !
 ! A15   A(11,7,23)            124.6752                                         !
 ! A16   A(5,8,9)              107.1959                                         !
 ! A17   A(5,8,10)             109.5762                                         !
 ! A18   A(5,8,12)             113.7335                                         !
 ! A19   A(9,8,10)             107.5358                                         !
 ! A20   A(9,8,12)             110.716                                          !
 ! A21   A(10,8,12)            107.9181                                         !
 ! A22   A(8,12,13)            119.3019                                         !
 ! A23   A(8,12,15)            122.0013                                         !
 ! A24   A(13,12,15)           118.688                                          !
 ! A25   A(12,13,14)           119.5401                                         !
 ! A26   A(12,13,17)           121.0983                                         !
 ! A27   A(14,13,17)           119.3604                                         !
 ! A28   A(12,15,16)           120.5787                                         !
 ! A29   A(12,15,19)           120.5004                                         !
 ! A30   A(16,15,19)           118.9079                                         !
 ! A31   A(13,17,18)           119.1623                                         !
 ! A32   A(13,17,21)           119.6665                                         !
 ! A33   A(18,17,21)           121.1354                                         !
 ! A34   A(15,19,20)           119.658                                          !
 ! A35   A(15,19,21)           120.1665                                         !
 ! A36   A(20,19,21)           120.1638                                         !
 ! A37   A(17,21,19)           119.8479                                         !
 ! A38   A(17,21,22)           120.2901                                         !
 ! A39   A(19,21,22)           119.8488                                         !
 ! A40   A(7,23,24)            116.5257                                         !
 ! A41   A(7,23,25)            117.9422                                         !
 ! A42   A(24,23,25)           114.771                                          !
 ! A43   A(23,25,26)           106.1354                                         !
 ! A44   A(23,25,27)           106.1751                                         !
 ! A45   A(23,25,28)           111.0753                                         !
 ! A46   A(26,25,27)           106.6298                                         !
 ! A47   A(26,25,28)           110.1683                                         !
 ! A48   A(27,25,28)           116.0854                                         !
 ! A49   A(25,27,32)           119.46                                           !
 ! A50   A(25,27,33)           118.1436                                         !
 ! A51   A(32,27,33)           122.3915                                         !
 ! A52   A(25,28,29)           111.263                                          !
 ! A53   A(25,28,30)           111.8493                                         !
 ! A54   A(25,28,31)           109.5354                                         !
 ! A55   A(29,28,30)           108.5157                                         !
 ! A56   A(29,28,31)           107.1993                                         !
 ! A57   A(30,28,31)           108.3245                                         !
 ! A58   A(27,33,34)           119.5211                                         !
 ! A59   A(27,33,35)           123.3623                                         !
 ! A60   A(34,33,35)           116.9834                                         !
 ! A61   A(33,35,36)           106.2403                                         !
 ! A62   A(33,35,37)           109.5578                                         !
 ! A63   A(33,35,38)           110.0433                                         !
 ! A64   A(36,35,37)           108.4915                                         !
 ! A65   A(36,35,38)           110.9301                                         !
 ! A66   A(37,35,38)           111.4287                                         !
 ! A67   A(35,37,42)           122.6699                                         !
 ! A68   A(35,37,43)           113.2215                                         !
 ! A69   A(42,37,43)           124.106                                          !
 ! A70   A(35,38,39)           109.8351                                         !
 ! A71   A(35,38,40)           110.8218                                         !
 ! A72   A(35,38,41)           110.5192                                         !
 ! A73   A(39,38,40)           107.0051                                         !
 ! A74   A(39,38,41)           108.8394                                         !
 ! A75   A(40,38,41)           109.736                                          !
 ! A76   A(37,43,44)           118.0546                                         !
 ! A77   A(37,43,45)           122.7824                                         !
 ! A78   A(44,43,45)           117.5626                                         !
 ! A79   A(43,45,46)           109.2584                                         !
 ! A80   A(43,45,47)           106.8697                                         !
 ! A81   A(43,45,48)           112.5011                                         !
 ! A82   A(46,45,47)           110.2369                                         !
 ! A83   A(46,45,48)           108.1608                                         !
 ! A84   A(47,45,48)           109.8137                                         !
 ! A85   A(45,47,51)           120.3407                                         !
 ! A86   A(45,47,64)           116.5549                                         !
 ! A87   A(51,47,64)           123.093                                          !
 ! A88   A(45,48,49)           106.5977                                         !
 ! A89   A(45,48,50)           107.8363                                         !
 ! A90   A(45,48,52)           111.4563                                         !
 ! A91   A(49,48,50)           108.1163                                         !
 ! A92   A(49,48,52)           111.9728                                         !
 ! A93   A(50,48,52)           110.6589                                         !
 ! A94   A(48,52,53)           120.8636                                         !
 ! A95   A(48,52,55)           120.787                                          !
 ! A96   A(53,52,55)           118.1807                                         !
 ! A97   A(52,53,54)           119.2379                                         !
 ! A98   A(52,53,57)           121.7867                                         !
 ! A99   A(54,53,57)           118.9697                                         !
 ! A100  A(52,55,56)           119.7449                                         !
 ! A101  A(52,55,59)           120.9428                                         !
 ! A102  A(56,55,59)           119.3118                                         !
 ! A103  A(53,57,58)           121.7594                                         !
 ! A104  A(53,57,63)           118.8591                                         !
 ! A105  A(58,57,63)           119.3484                                         !
 ! A106  A(55,59,60)           120.1694                                         !
 ! A107  A(55,59,63)           119.5066                                         !
 ! A108  A(60,59,63)           120.3231                                         !
 ! A109  A(62,61,63)           109.639                                          !
 ! A110  A(57,63,59)           120.7099                                         !
 ! A111  A(57,63,61)           117.2113                                         !
 ! A112  A(59,63,61)           122.0754                                         !
 ! A113  A(47,64,65)           120.1338                                         !
 ! A114  A(47,64,66)           125.0211                                         !
 ! A115  A(65,64,66)           113.7131                                         !
 ! A116  A(64,66,67)           108.6221                                         !
 ! A117  A(64,66,68)           106.7143                                         !
 ! A118  A(64,66,69)           111.7143                                         !
 ! A119  A(67,66,68)           110.0957                                         !
 ! A120  A(67,66,69)           111.108                                          !
 ! A121  A(68,66,69)           108.491                                          !
 ! A122  A(66,68,72)           120.7579                                         !
 ! A123  A(66,68,83)           114.7029                                         !
 ! A124  A(72,68,83)           124.5088                                         !
 ! A125  A(66,69,70)           107.0927                                         !
 ! A126  A(66,69,71)           109.1877                                         !
 ! A127  A(66,69,73)           115.5467                                         !
 ! A128  A(70,69,71)           105.3689                                         !
 ! A129  A(70,69,73)           110.1528                                         !
 ! A130  A(71,69,73)           109.0005                                         !
 ! A131  A(69,73,74)           108.4737                                         !
 ! A132  A(69,73,75)           109.6475                                         !
 ! A133  A(69,73,79)           110.9805                                         !
 ! A134  A(74,73,75)           108.3365                                         !
 ! A135  A(74,73,79)           108.7471                                         !
 ! A136  A(75,73,79)           110.5846                                         !
 ! A137  A(73,75,76)           110.8399                                         !
 ! A138  A(73,75,77)           111.2489                                         !
 ! A139  A(73,75,78)           111.2327                                         !
 ! A140  A(76,75,77)           107.6534                                         !
 ! A141  A(76,75,78)           107.802                                          !
 ! A142  A(77,75,78)           107.9041                                         !
 ! A143  A(73,79,80)           110.9652                                         !
 ! A144  A(73,79,81)           112.5475                                         !
 ! A145  A(73,79,82)           110.9473                                         !
 ! A146  A(80,79,81)           106.994                                          !
 ! A147  A(80,79,82)           106.0065                                         !
 ! A148  A(81,79,82)           109.0938                                         !
 ! A149  A(68,83,84)           116.413                                          !
 ! A150  A(68,83,85)           121.2103                                         !
 ! A151  A(84,83,85)           116.2275                                         !
 ! A152  A(83,85,86)           105.0845                                         !
 ! A153  A(83,85,87)           107.699                                          !
 ! A154  A(83,85,88)           112.1413                                         !
 ! A155  A(86,85,87)           107.8515                                         !
 ! A156  A(86,85,88)           109.3263                                         !
 ! A157  A(87,85,88)           114.2578                                         !
 ! A158  A(85,87,91)           118.0274                                         !
 ! A159  A(85,87,98)           118.1246                                         !
 ! A160  A(91,87,98)           123.8359                                         !
 ! A161  A(85,88,89)           110.5265                                         !
 ! A162  A(85,88,90)           107.2985                                         !
 ! A163  A(85,88,92)           114.7234                                         !
 ! A164  A(89,88,90)           106.1052                                         !
 ! A165  A(89,88,92)           108.1194                                         !
 ! A166  A(90,88,92)           109.7302                                         !
 ! A167  A(88,92,93)           108.5858                                         !
 ! A168  A(88,92,94)           111.3132                                         !
 ! A169  A(88,92,95)           116.3166                                         !
 ! A170  A(93,92,94)           105.9864                                         !
 ! A171  A(93,92,95)           107.7235                                         !
 ! A172  A(94,92,95)           106.3838                                         !
 ! A173  A(92,95,96)           123.488                                          !
 ! A174  A(92,95,97)           113.247                                          !
 ! A175  A(96,95,97)           123.2626                                         !
 ! A176  A(95,97,123)          108.5165                                         !
 ! A177  A(87,98,99)           118.1274                                         !
 ! A178  A(87,98,100)          123.7447                                         !
 ! A179  A(99,98,100)          102.1074                                         !
 ! A180  A(98,100,101)         108.9267                                         !
 ! A181  A(98,100,102)         103.0868                                         !
 ! A182  A(98,100,103)         116.8314                                         !
 ! A183  A(101,100,102)        108.2482                                         !
 ! A184  A(101,100,103)        110.1228                                         !
 ! A185  A(102,100,103)        109.1498                                         !
 ! A186  A(100,102,106)        113.5425                                         !
 ! A187  A(100,102,122)        114.876                                          !
 ! A188  A(106,102,122)        131.575                                          !
 ! A189  A(100,103,104)        103.7456                                         !
 ! A190  A(100,103,105)        109.5856                                         !
 ! A191  A(100,103,107)        118.6554                                         !
 ! A192  A(104,103,105)        106.7863                                         !
 ! A193  A(104,103,107)        107.0397                                         !
 ! A194  A(105,103,107)        110.1984                                         !
 ! A195  A(103,107,108)        110.157                                          !
 ! A196  A(103,107,109)        108.1308                                         !
 ! A197  A(103,107,110)        117.3561                                         !
 ! A198  A(108,107,109)        105.8628                                         !
 ! A199  A(108,107,110)        109.0639                                         !
 ! A200  A(109,107,110)        105.5785                                         !
 ! A201  A(107,110,111)        109.213                                          !
 ! A202  A(107,110,112)        109.4331                                         !
 ! A203  A(107,110,113)        111.8428                                         !
 ! A204  A(111,110,112)        108.1341                                         !
 ! A205  A(111,110,113)        108.8974                                         !
 ! A206  A(112,110,113)        109.2445                                         !
 ! A207  A(110,113,114)        119.7812                                         !
 ! A208  A(110,113,121)        124.603                                          !
 ! A209  A(114,113,121)        115.0076                                         !
 ! A210  A(116,115,117)        116.2586                                         !
 ! A211  A(116,115,121)        119.6228                                         !
 ! A212  A(117,115,121)        119.425                                          !
 ! A213  A(119,118,120)        117.8214                                         !
 ! A214  A(119,118,121)        121.1227                                         !
 ! A215  A(120,118,121)        119.8994                                         !
 ! A216  A(113,121,115)        120.6263                                         !
 ! A217  A(113,121,118)        120.2523                                         !
 ! A218  A(115,121,118)        119.1186                                         !
 ! D1    D(2,1,5,6)            -51.8667                                         !
 ! D2    D(2,1,5,7)           -162.8444                                         !
 ! D3    D(2,1,5,8)             68.2004                                         !
 ! D4    D(3,1,5,6)           -169.7538                                         !
 ! D5    D(3,1,5,7)             79.2685                                         !
 ! D6    D(3,1,5,8)            -49.6867                                         !
 ! D7    D(4,1,5,6)             70.0227                                         !
 ! D8    D(4,1,5,7)            -40.9551                                         !
 ! D9    D(4,1,5,8)           -169.9103                                         !
 ! D10   D(1,5,7,11)            70.1959                                         !
 ! D11   D(1,5,7,23)          -105.6947                                         !
 ! D12   D(6,5,7,11)           -40.8941                                         !
 ! D13   D(6,5,7,23)           143.2153                                         !
 ! D14   D(8,5,7,11)          -167.3553                                         !
 ! D15   D(8,5,7,23)            16.7541                                         !
 ! D16   D(1,5,8,9)           -179.7664                                         !
 ! D17   D(1,5,8,10)            63.8229                                         !
 ! D18   D(1,5,8,12)           -57.0445                                         !
 ! D19   D(6,5,8,9)            -63.0225                                         !
 ! D20   D(6,5,8,10)          -179.4332                                         !
 ! D21   D(6,5,8,12)            59.6994                                         !
 ! D22   D(7,5,8,9)             60.8251                                         !
 ! D23   D(7,5,8,10)           -55.5857                                         !
 ! D24   D(7,5,8,12)          -176.453                                          !
 ! D25   D(5,7,23,24)            4.3205                                         !
 ! D26   D(5,7,23,25)          146.9603                                         !
 ! D27   D(11,7,23,24)        -171.2499                                         !
 ! D28   D(11,7,23,25)         -28.61                                           !
 ! D29   D(5,8,12,13)          136.1791                                         !
 ! D30   D(5,8,12,15)          -44.9099                                         !
 ! D31   D(9,8,12,13)         -103.0536                                         !
 ! D32   D(9,8,12,15)           75.8574                                         !
 ! D33   D(10,8,12,13)          14.3872                                         !
 ! D34   D(10,8,12,15)        -166.7018                                         !
 ! D35   D(8,12,13,14)          -1.6213                                         !
 ! D36   D(8,12,13,17)         177.967                                          !
 ! D37   D(15,12,13,14)        179.4314                                         !
 ! D38   D(15,12,13,17)         -0.9803                                         !
 ! D39   D(8,12,15,16)          -0.9323                                         !
 ! D40   D(8,12,15,19)        -179.6051                                         !
 ! D41   D(13,12,15,16)        177.9852                                         !
 ! D42   D(13,12,15,19)         -0.6876                                         !
 ! D43   D(12,13,17,18)       -175.9106                                         !
 ! D44   D(12,13,17,21)          1.9372                                         !
 ! D45   D(14,13,17,18)          3.6785                                         !
 ! D46   D(14,13,17,21)       -178.4737                                         !
 ! D47   D(12,15,19,20)       -179.8552                                         !
 ! D48   D(12,15,19,21)          1.3915                                         !
 ! D49   D(16,15,19,20)          1.4501                                         !
 ! D50   D(16,15,19,21)       -177.3032                                         !
 ! D51   D(13,17,21,19)         -1.2167                                         !
 ! D52   D(13,17,21,22)       -179.8968                                         !
 ! D53   D(18,17,21,19)        176.5876                                         !
 ! D54   D(18,17,21,22)         -2.0925                                         !
 ! D55   D(15,19,21,17)         -0.4283                                         !
 ! D56   D(15,19,21,22)        178.2577                                         !
 ! D57   D(20,19,21,17)       -179.1752                                         !
 ! D58   D(20,19,21,22)         -0.4893                                         !
 ! D59   D(7,23,25,26)          40.305                                          !
 ! D60   D(7,23,25,27)         -72.9059                                         !
 ! D61   D(7,23,25,28)         160.0498                                         !
 ! D62   D(24,23,25,26)       -176.4193                                         !
 ! D63   D(24,23,25,27)         70.3699                                         !
 ! D64   D(24,23,25,28)        -56.6745                                         !
 ! D65   D(23,25,27,32)         33.4603                                         !
 ! D66   D(23,25,27,33)       -145.7573                                         !
 ! D67   D(26,25,27,32)        -79.4087                                         !
 ! D68   D(26,25,27,33)        101.3736                                         !
 ! D69   D(28,25,27,32)        157.439                                          !
 ! D70   D(28,25,27,33)        -21.7786                                         !
 ! D71   D(23,25,28,29)       -172.8988                                         !
 ! D72   D(23,25,28,30)         65.5562                                         !
 ! D73   D(23,25,28,31)        -54.5557                                         !
 ! D74   D(26,25,28,29)        -55.587                                          !
 ! D75   D(26,25,28,30)       -177.132                                          !
 ! D76   D(26,25,28,31)         62.7561                                         !
 ! D77   D(27,25,28,29)         65.697                                          !
 ! D78   D(27,25,28,30)        -55.8479                                         !
 ! D79   D(27,25,28,31)       -175.9599                                         !
 ! D80   D(25,27,33,34)          3.9011                                         !
 ! D81   D(25,27,33,35)        179.5751                                         !
 ! D82   D(32,27,33,34)       -175.2922                                         !
 ! D83   D(32,27,33,35)          0.3818                                         !
 ! D84   D(27,33,35,36)         37.2974                                         !
 ! D85   D(27,33,35,37)        -79.7067                                         !
 ! D86   D(27,33,35,38)        157.4519                                         !
 ! D87   D(34,33,35,36)       -146.9267                                         !
 ! D88   D(34,33,35,37)         96.0693                                         !
 ! D89   D(34,33,35,38)        -26.7721                                         !
 ! D90   D(33,35,37,42)       -112.9253                                         !
 ! D91   D(33,35,37,43)         66.5141                                         !
 ! D92   D(36,35,37,42)        131.4957                                         !
 ! D93   D(36,35,37,43)        -49.0649                                         !
 ! D94   D(38,35,37,42)          9.0904                                         !
 ! D95   D(38,35,37,43)       -171.4701                                         !
 ! D96   D(33,35,38,39)       -178.3738                                         !
 ! D97   D(33,35,38,40)         63.6046                                         !
 ! D98   D(33,35,38,41)        -58.2719                                         !
 ! D99   D(36,35,38,39)        -61.0988                                         !
 ! D100  D(36,35,38,40)       -179.1205                                         !
 ! D101  D(36,35,38,41)         59.0031                                         !
 ! D102  D(37,35,38,39)         59.8915                                         !
 ! D103  D(37,35,38,40)        -58.1301                                         !
 ! D104  D(37,35,38,41)        179.9934                                         !
 ! D105  D(35,37,43,44)         -5.7306                                         !
 ! D106  D(35,37,43,45)       -170.942                                          !
 ! D107  D(42,37,43,44)        173.6995                                         !
 ! D108  D(42,37,43,45)          8.4881                                         !
 ! D109  D(37,43,45,46)        -56.987                                          !
 ! D110  D(37,43,45,47)       -176.2509                                         !
 ! D111  D(37,43,45,48)         63.1514                                         !
 ! D112  D(44,43,45,46)        137.7332                                         !
 ! D113  D(44,43,45,47)         18.4693                                         !
 ! D114  D(44,43,45,48)       -102.1284                                         !
 ! D115  D(43,45,47,51)        -41.3529                                         !
 ! D116  D(43,45,47,64)        139.8414                                         !
 ! D117  D(46,45,47,51)       -159.9816                                         !
 ! D118  D(46,45,47,64)         21.2127                                         !
 ! D119  D(48,45,47,51)         80.9457                                         !
 ! D120  D(48,45,47,64)        -97.86                                           !
 ! D121  D(43,45,48,49)        -59.6908                                         !
 ! D122  D(43,45,48,50)         56.2064                                         !
 ! D123  D(43,45,48,52)        177.8528                                         !
 ! D124  D(46,45,48,49)         61.0799                                         !
 ! D125  D(46,45,48,50)        176.977                                          !
 ! D126  D(46,45,48,52)        -61.3765                                         !
 ! D127  D(47,45,48,49)       -178.5802                                         !
 ! D128  D(47,45,48,50)        -62.683                                          !
 ! D129  D(47,45,48,52)         58.9634                                         !
 ! D130  D(45,47,64,65)          8.714                                          !
 ! D131  D(45,47,64,66)        175.7662                                         !
 ! D132  D(51,47,64,65)       -170.0558                                         !
 ! D133  D(51,47,64,66)         -3.0036                                         !
 ! D134  D(45,48,52,53)       -103.621                                          !
 ! D135  D(45,48,52,55)         71.5726                                         !
 ! D136  D(49,48,52,53)        137.0687                                         !
 ! D137  D(49,48,52,55)        -47.7377                                         !
 ! D138  D(50,48,52,53)         16.3732                                         !
 ! D139  D(50,48,52,55)       -168.4332                                         !
 ! D140  D(48,52,53,54)         -6.0579                                         !
 ! D141  D(48,52,53,57)        174.8207                                         !
 ! D142  D(55,52,53,54)        178.6261                                         !
 ! D143  D(55,52,53,57)         -0.4952                                         !
 ! D144  D(48,52,55,56)          5.8827                                         !
 ! D145  D(48,52,55,59)       -174.3581                                         !
 ! D146  D(53,52,55,56)       -178.7976                                         !
 ! D147  D(53,52,55,59)          0.9616                                         !
 ! D148  D(52,53,57,58)       -178.4782                                         !
 ! D149  D(52,53,57,63)         -0.5857                                         !
 ! D150  D(54,53,57,58)          2.3982                                         !
 ! D151  D(54,53,57,63)       -179.7093                                         !
 ! D152  D(52,55,59,60)       -179.9929                                         !
 ! D153  D(52,55,59,63)         -0.3412                                         !
 ! D154  D(56,55,59,60)         -0.2326                                         !
 ! D155  D(56,55,59,63)        179.4191                                         !
 ! D156  D(53,57,63,59)          1.2288                                         !
 ! D157  D(53,57,63,61)       -179.4189                                         !
 ! D158  D(58,57,63,59)        179.173                                          !
 ! D159  D(58,57,63,61)         -1.4746                                         !
 ! D160  D(55,59,63,57)         -0.777                                          !
 ! D161  D(55,59,63,61)        179.9027                                         !
 ! D162  D(60,59,63,57)        178.8741                                         !
 ! D163  D(60,59,63,61)         -0.4461                                         !
 ! D164  D(62,61,63,57)       -175.9902                                         !
 ! D165  D(62,61,63,59)          3.3526                                         !
 ! D166  D(47,64,66,67)        -30.3324                                         !
 ! D167  D(47,64,66,68)       -149.0016                                         !
 ! D168  D(47,64,66,69)         92.5723                                         !
 ! D169  D(65,64,66,67)        137.4484                                         !
 ! D170  D(65,64,66,68)         18.7792                                         !
 ! D171  D(65,64,66,69)        -99.6469                                         !
 ! D172  D(64,66,68,72)        -19.5565                                         !
 ! D173  D(64,66,68,83)        162.3614                                         !
 ! D174  D(67,66,68,72)       -137.2596                                         !
 ! D175  D(67,66,68,83)         44.6583                                         !
 ! D176  D(69,66,68,72)        100.9575                                         !
 ! D177  D(69,66,68,83)        -77.1245                                         !
 ! D178  D(64,66,69,70)         45.2819                                         !
 ! D179  D(64,66,69,71)        158.8975                                         !
 ! D180  D(64,66,69,73)        -77.8441                                         !
 ! D181  D(67,66,69,70)        166.7596                                         !
 ! D182  D(67,66,69,71)        -79.6248                                         !
 ! D183  D(67,66,69,73)         43.6336                                         !
 ! D184  D(68,66,69,70)        -72.0792                                         !
 ! D185  D(68,66,69,71)         41.5364                                         !
 ! D186  D(68,66,69,73)        164.7948                                         !
 ! D187  D(66,68,83,84)          5.3906                                         !
 ! D188  D(66,68,83,85)        156.7776                                         !
 ! D189  D(72,68,83,84)       -172.6093                                         !
 ! D190  D(72,68,83,85)        -21.2223                                         !
 ! D191  D(66,69,73,74)         51.4961                                         !
 ! D192  D(66,69,73,75)        169.6258                                         !
 ! D193  D(66,69,73,79)        -67.9121                                         !
 ! D194  D(70,69,73,74)        -69.9991                                         !
 ! D195  D(70,69,73,75)         48.1306                                         !
 ! D196  D(70,69,73,79)        170.5927                                         !
 ! D197  D(71,69,73,74)        174.8531                                         !
 ! D198  D(71,69,73,75)        -67.0172                                         !
 ! D199  D(71,69,73,79)         55.4449                                         !
 ! D200  D(69,73,75,76)         60.2401                                         !
 ! D201  D(69,73,75,77)        179.9877                                         !
 ! D202  D(69,73,75,78)        -59.6839                                         !
 ! D203  D(74,73,75,76)        178.4551                                         !
 ! D204  D(74,73,75,77)        -61.7973                                         !
 ! D205  D(74,73,75,78)         58.5311                                         !
 ! D206  D(79,73,75,76)        -62.4571                                         !
 ! D207  D(79,73,75,77)         57.2905                                         !
 ! D208  D(79,73,75,78)        177.6189                                         !
 ! D209  D(69,73,79,80)        -59.9232                                         !
 ! D210  D(69,73,79,81)         59.9434                                         !
 ! D211  D(69,73,79,82)       -177.4959                                         !
 ! D212  D(74,73,79,80)       -179.1675                                         !
 ! D213  D(74,73,79,81)        -59.3008                                         !
 ! D214  D(74,73,79,82)         63.2598                                         !
 ! D215  D(75,73,79,80)         61.9936                                         !
 ! D216  D(75,73,79,81)       -178.1397                                         !
 ! D217  D(75,73,79,82)        -55.5791                                         !
 ! D218  D(68,83,85,86)         37.732                                          !
 ! D219  D(68,83,85,87)        -77.057                                          !
 ! D220  D(68,83,85,88)        156.3989                                         !
 ! D221  D(84,83,85,86)       -170.831                                          !
 ! D222  D(84,83,85,87)         74.38                                           !
 ! D223  D(84,83,85,88)        -52.1641                                         !
 ! D224  D(83,85,87,91)         35.1126                                         !
 ! D225  D(83,85,87,98)       -146.1021                                         !
 ! D226  D(86,85,87,91)        -77.8273                                         !
 ! D227  D(86,85,87,98)        100.958                                          !
 ! D228  D(88,85,87,91)        160.4043                                         !
 ! D229  D(88,85,87,98)        -20.8105                                         !
 ! D230  D(83,85,88,89)         85.9406                                         !
 ! D231  D(83,85,88,90)       -158.7918                                         !
 ! D232  D(83,85,88,92)        -36.6062                                         !
 ! D233  D(86,85,88,89)       -157.9273                                         !
 ! D234  D(86,85,88,90)        -42.6597                                         !
 ! D235  D(86,85,88,92)         79.5259                                         !
 ! D236  D(87,85,88,89)        -36.9727                                         !
 ! D237  D(87,85,88,90)         78.2949                                         !
 ! D238  D(87,85,88,92)       -159.5195                                         !
 ! D239  D(85,87,98,99)         21.8721                                         !
 ! D240  D(85,87,98,100)       151.8982                                         !
 ! D241  D(91,87,98,99)       -159.4188                                         !
 ! D242  D(91,87,98,100)       -29.3927                                         !
 ! D243  D(85,88,92,93)       -161.9184                                         !
 ! D244  D(85,88,92,94)         81.7806                                         !
 ! D245  D(85,88,92,95)        -40.2756                                         !
 ! D246  D(89,88,92,93)         74.2444                                         !
 ! D247  D(89,88,92,94)        -42.0566                                         !
 ! D248  D(89,88,92,95)       -164.1128                                         !
 ! D249  D(90,88,92,93)        -41.0606                                         !
 ! D250  D(90,88,92,94)       -157.3616                                         !
 ! D251  D(90,88,92,95)         80.5822                                         !
 ! D252  D(88,92,95,96)        142.9656                                         !
 ! D253  D(88,92,95,97)        -37.5826                                         !
 ! D254  D(93,92,95,96)        -94.9369                                         !
 ! D255  D(93,92,95,97)         84.5149                                         !
 ! D256  D(94,92,95,96)         18.3499                                         !
 ! D257  D(94,92,95,97)       -162.1983                                         !
 ! D258  D(92,95,97,123)       175.5784                                         !
 ! D259  D(96,95,97,123)        -4.9683                                         !
 ! D260  D(87,98,100,101)       -6.141                                          !
 ! D261  D(87,98,100,102)     -120.9483                                         !
 ! D262  D(87,98,100,103)      119.3816                                         !
 ! D263  D(99,98,100,101)      130.175                                          !
 ! D264  D(99,98,100,102)       15.3677                                         !
 ! D265  D(99,98,100,103)     -104.3024                                         !
 ! D266  D(98,100,102,106)      -5.0865                                         !
 ! D267  D(98,100,102,122)     175.7309                                         !
 ! D268  D(101,100,102,106)   -120.3821                                         !
 ! D269  D(101,100,102,122)     60.4353                                         !
 ! D270  D(103,100,102,106)    119.7524                                         !
 ! D271  D(103,100,102,122)    -59.4302                                         !
 ! D272  D(98,100,103,104)     152.3601                                         !
 ! D273  D(98,100,103,105)      38.6186                                         !
 ! D274  D(98,100,103,107)     -89.1203                                         !
 ! D275  D(101,100,103,104)    -82.7181                                         !
 ! D276  D(101,100,103,105)    163.5403                                         !
 ! D277  D(101,100,103,107)     35.8015                                         !
 ! D278  D(102,100,103,104)     35.9843                                         !
 ! D279  D(102,100,103,105)    -77.7573                                         !
 ! D280  D(102,100,103,107)    154.5038                                         !
 ! D281  D(100,103,107,108)    -42.109                                          !
 ! D282  D(100,103,107,109)   -157.3596                                         !
 ! D283  D(100,103,107,110)     83.4584                                         !
 ! D284  D(104,103,107,108)     74.6795                                         !
 ! D285  D(104,103,107,109)    -40.5711                                         !
 ! D286  D(104,103,107,110)   -159.7531                                         !
 ! D287  D(105,103,107,108)   -169.5598                                         !
 ! D288  D(105,103,107,109)     75.1895                                         !
 ! D289  D(105,103,107,110)    -43.9924                                         !
 ! D290  D(103,107,110,111)    167.0828                                         !
 ! D291  D(103,107,110,112)     48.8886                                         !
 ! D292  D(103,107,110,113)    -72.307                                          !
 ! D293  D(108,107,110,111)    -66.8105                                         !
 ! D294  D(108,107,110,112)    174.9953                                         !
 ! D295  D(108,107,110,113)     53.7997                                         !
 ! D296  D(109,107,110,111)     46.5536                                         !
 ! D297  D(109,107,110,112)    -71.6406                                         !
 ! D298  D(109,107,110,113)    167.1638                                         !
 ! D299  D(107,110,113,114)      1.9804                                         !
 ! D300  D(107,110,113,121)    172.5791                                         !
 ! D301  D(111,110,113,114)    122.7742                                         !
 ! D302  D(111,110,113,121)    -66.6271                                         !
 ! D303  D(112,110,113,114)   -119.3243                                         !
 ! D304  D(112,110,113,121)     51.2744                                         !
 ! D305  D(110,113,121,115)     11.2382                                         !
 ! D306  D(110,113,121,118)   -169.3779                                         !
 ! D307  D(114,113,121,115)   -177.7622                                         !
 ! D308  D(114,113,121,118)      1.6218                                         !
 ! D309  D(116,115,121,113)   -161.3158                                         !
 ! D310  D(116,115,121,118)     19.2933                                         !
 ! D311  D(117,115,121,113)     -6.4868                                         !
 ! D312  D(117,115,121,118)    174.1223                                         !
 ! D313  D(119,118,121,113)   -165.719                                          !
 ! D314  D(119,118,121,115)     13.6742                                         !
 ! D315  D(120,118,121,113)      1.7229                                         !
 ! D316  D(120,118,121,115)   -178.884                                          !
 --------------------------------------------------------------------------------
 Symmetry turned off by external request.
 Stoichiometry    C41H61N10O11(1+)
 Framework group  C1[X(C41H61N10O11)]
 Deg. of freedom   363
 Full point group                 C1      NOp   1
                          Input orientation:                          
 ---------------------------------------------------------------------
 Center     Atomic      Atomic             Coordinates (Angstroms)
 Number     Number       Type             X           Y           Z
 ---------------------------------------------------------------------
      1          7           0       -3.171506   -1.326545    4.996351
      2          1           0       -2.153484   -1.198544    5.019276
      3          1           0       -3.427019   -1.454796    3.991427
      4          1           0       -3.438319   -2.169079    5.518008
      5          6           0       -3.878861   -0.127184    5.590699
      6          1           0       -3.418087    0.037834    6.565617
      7          6           0       -5.298421   -0.653592    5.883510
      8          6           0       -3.691724    1.082836    4.679278
      9          1           0       -4.214509    1.926348    5.148336
     10          1           0       -4.172391    0.892570    3.713100
     11          8           0       -5.425992   -1.460798    6.790069
     12          6           0       -2.236888    1.431300    4.416847
     13          6           0       -1.833891    1.753588    3.116651
     14          1           0       -2.558409    1.724848    2.309380
     15          6           0       -1.283539    1.462536    5.444055
     16          1           0       -1.569959    1.249311    6.471487
     17          6           0       -0.516202    2.120238    2.840568
     18          1           0       -0.252671    2.428763    1.832976
     19          6           0        0.044267    1.795050    5.168674
     20          1           0        0.771816    1.812737    5.974299
     21          6           0        0.428863    2.128462    3.868700
     22          1           0        1.457189    2.413831    3.665449
     23          7           0       -6.304813   -0.249793    5.057155
     24          1           0       -6.037244    0.318263    4.262799
     25          6           0       -7.397447   -1.186221    4.800178
     26          1           0       -7.611642   -1.673258    5.756148
     27          6           0       -6.818301   -2.279854    3.864669
     28          6           0       -8.638053   -0.456107    4.291794
     29          1           0       -9.494829   -1.133552    4.217454
     30          1           0       -8.468924    0.000450    3.309441
     31          1           0       -8.910979    0.333943    4.995359
     32          8           0       -5.628576   -2.613465    3.979156
     33          7           0       -7.632104   -2.821181    2.942773
     34          1           0       -8.573245   -2.467248    2.839895
     35          6           0       -7.200236   -3.860895    1.989935
     36          1           0       -6.513505   -4.512939    2.538844
     37          6           0       -6.423333   -3.202102    0.818979
     38          6           0       -8.405479   -4.640871    1.487908
     39          1           0       -8.079157   -5.428144    0.805149
     40          1           0       -9.083114   -3.990676    0.926170
     41          1           0       -8.941520   -5.098540    2.324360
     42          8           0       -6.851039   -3.179220   -0.327659
     43          7           0       -5.241580   -2.651903    1.202491
     44          1           0       -5.020158   -2.637797    2.195564
     45          6           0       -4.442046   -1.821575    0.325798
     46          1           0       -4.205470   -2.381195   -0.584988
     47          6           0       -3.161280   -1.481216    1.084242
     48          6           0       -5.174300   -0.513248   -0.085765
     49          1           0       -6.090575   -0.816476   -0.599122
     50          1           0       -5.456747    0.016116    0.831399
     51          8           0       -3.205400   -1.188895    2.296870
     52          6           0       -4.303261    0.355738   -0.953927
     53          6           0       -3.678385    1.494567   -0.432547
     54          1           0       -3.905077    1.806182    0.583811
     55          6           0       -4.017540   -0.008755   -2.274631
     56          1           0       -4.503752   -0.877589   -2.711716
     57          6           0       -2.787376    2.250576   -1.185732
     58          1           0       -2.285939    3.117158   -0.774331
     59          6           0       -3.119477    0.730084   -3.044042
     60          1           0       -2.906727    0.435494   -4.069419
     61          8           0       -1.604166    2.620481   -3.204499
     62          1           0       -1.535944    2.284488   -4.112116
     63          6           0       -2.502886    1.852120   -2.491563
     64          7           0       -2.030678   -1.492377    0.379247
     65          1           0       -2.060995   -1.588084   -0.633220
     66          6           0       -0.721662   -1.112797    0.892773
     67          1           0       -0.857328   -0.354989    1.667842
     68          6           0        0.060973   -0.525581   -0.286415
     69          6           0        0.056596   -2.335968    1.438612
     70          1           0       -0.050511   -3.140535    0.702435
     71          1           0        1.126787   -2.101879    1.459322
     72          8           0       -0.276597   -0.763649   -1.448772
     73          6           0       -0.374588   -2.829306    2.828510
     74          1           0       -1.463074   -2.972877    2.824489
     75          6           0        0.289097   -4.179706    3.125171
     76          1           0        1.381795   -4.088649    3.111853
     77          1           0       -0.000981   -4.556422    4.112511
     78          1           0        0.006695   -4.932438    2.381255
     79          6           0       -0.016551   -1.802739    3.911366
     80          1           0        1.064373   -1.620375    3.937036
     81          1           0       -0.500853   -0.833975    3.748241
     82          1           0       -0.284943   -2.175316    4.910292
     83          7           0        1.140325    0.215110    0.063040
     84          1           0        1.371325    0.237711    1.049540
     85          6           0        2.252014    0.421051   -0.866501
     86          1           0        1.785364    0.528639   -1.848440
     87          6           0        3.096558   -0.872560   -0.882657
     88          6           0        3.052567    1.695049   -0.540484
     89          1           0        3.821885    1.483724    0.210696
     90          1           0        3.587505    1.984538   -1.449497
     91          8           0        2.493803   -1.976636   -0.763740
     92          6           0        2.206449    2.874635   -0.038884
     93          1           0        2.792277    3.796065   -0.146772
     94          1           0        1.986742    2.780761    1.027651
     95          6           0        0.879750    3.089336   -0.730152
     96          8           0       -0.128302    3.455077   -0.151684
     97          8           0        0.924683    2.848186   -2.048130
     98          7           0        4.404256   -0.761276   -1.044550
     99          1           0        4.856033    0.157521   -0.809196
    100          6           0        5.379258   -1.729385   -0.515278
    101          1           0        4.852125   -2.461063    0.105174
    102          6           0        6.301439   -0.829917    0.442214
    103          6           0        6.265985   -2.446817   -1.537658
    104          1           0        7.175541   -2.680221   -0.974751
    105          1           0        6.555425   -1.744491   -2.331150
    106          8           0        6.022459    0.407474    0.398330
    107          6           0        5.765135   -3.765563   -2.152125
    108          1           0        5.304571   -4.393289   -1.377318
    109          1           0        6.635547   -4.325845   -2.513507
    110          6           0        4.814377   -3.668099   -3.346685
    111          1           0        4.725619   -4.655740   -3.819638
    112          1           0        5.228616   -2.969835   -4.087798
    113          7           0        3.481948   -3.212566   -2.946557
    114          1           0        3.296527   -2.973076   -1.958186
    115          7           0        2.611739   -3.210347   -5.104275
    116          1           0        2.022157   -2.738811   -5.773519
    117          1           0        3.478335   -3.585193   -5.459100
    118          7           0        1.397572   -2.298375   -3.345804
    119          1           0        0.567995   -2.248699   -3.915888
    120          1           0        1.313663   -2.047597   -2.358711
    121          6           0        2.507766   -2.905675   -3.789092
    122          8           0        7.157621   -1.453371    1.072298
    123          1           0        0.011600    2.939326   -2.415191
 ---------------------------------------------------------------------
 Rotational constants (GHZ):           0.0593992           0.0240027           0.0226559
 Standard basis: 6-31G(d) (6D, 7F)
  1052 basis functions,  1980 primitive gaussians,  1052 cartesian basis functions
   232 alpha electrons      232 beta electrons
       nuclear repulsion energy     10359.7448705124 Hartrees.
 NAtoms=  123 NActive=  123 NUniq=  123 SFac= 1.00D+00 NAtFMM=   60 NAOKFM=T Big=T
 Integral buffers will be    131072 words long.
 Raffenetti 2 integral format.
 Two-electron integral symmetry is turned off.
 Nuclear repulsion after empirical dispersion term =    10359.4408630090 Hartrees.
 One-electron integrals computed using PRISM.
 NBasis=  1052 RedAO= T EigKep=  4.10D-04  NBF=  1052
 NBsUse=  1052 1.00D-06 EigRej= -1.00D+00 NBFU=  1052
 Initial guess from the checkpoint file:  "conf-883.chk"
 B after Tr=     0.000000    0.000000    0.000000
         Rot=    1.000000    0.000000    0.000000    0.000000 Ang=   0.00 deg.
 Requested convergence on RMS density matrix=1.00D-08 within 128 cycles.
 Requested convergence on MAX density matrix=1.00D-06.
 Requested convergence on             energy=1.00D-06.
 No special actions if energy rises.
 SCF Done:  E(RB3LYP) =  -2974.31970070     A.U. after    2 cycles
            NFock=  2  Conv=0.68D-08     -V/T= 2.0093
 Hyperfine terms turned off by default for NAtoms > 100.

 **********************************************************************

            Population analysis using the SCF Density.

 **********************************************************************

 Alpha  occ. eigenvalues --  -19.28222 -19.25856 -19.24009 -19.23935 -19.23705
 Alpha  occ. eigenvalues --  -19.22272 -19.20852 -19.20658 -19.20287 -19.10439
 Alpha  occ. eigenvalues --  -19.09112 -14.56111 -14.48693 -14.48446 -14.48098
 Alpha  occ. eigenvalues --  -14.47241 -14.46692 -14.46396 -14.45874 -14.44482
 Alpha  occ. eigenvalues --  -14.41201 -10.43786 -10.41293 -10.40889 -10.40594
 Alpha  occ. eigenvalues --  -10.39201 -10.39148 -10.37959 -10.37700 -10.36216
 Alpha  occ. eigenvalues --  -10.35288 -10.33862 -10.33535 -10.33502 -10.33296
 Alpha  occ. eigenvalues --  -10.32237 -10.31901 -10.31645 -10.30437 -10.29923
 Alpha  occ. eigenvalues --  -10.29178 -10.28659 -10.28618 -10.28542 -10.28354
 Alpha  occ. eigenvalues --  -10.28339 -10.28144 -10.28111 -10.28018 -10.27997
 Alpha  occ. eigenvalues --  -10.27901 -10.27846 -10.27805 -10.27399 -10.27361
 Alpha  occ. eigenvalues --  -10.27092 -10.26819 -10.26620 -10.26029 -10.25634
 Alpha  occ. eigenvalues --  -10.25619 -10.23285  -1.17253  -1.16805  -1.15566
 Alpha  occ. eigenvalues --   -1.15524  -1.15350  -1.14019  -1.12699  -1.12470
 Alpha  occ. eigenvalues --   -1.11089  -1.10952  -1.08176  -1.04896  -1.04353
 Alpha  occ. eigenvalues --   -1.03833  -1.03527  -1.02498  -1.01714  -1.01623
 Alpha  occ. eigenvalues --   -1.00738  -0.98282  -0.95956  -0.94612  -0.94532
 Alpha  occ. eigenvalues --   -0.91645  -0.91116  -0.89494  -0.88400  -0.88117
 Alpha  occ. eigenvalues --   -0.86660  -0.86061  -0.85222  -0.84402  -0.84055
 Alpha  occ. eigenvalues --   -0.83671  -0.82334  -0.81484  -0.79513  -0.78363
 Alpha  occ. eigenvalues --   -0.77807  -0.77086  -0.76409  -0.75559  -0.75209
 Alpha  occ. eigenvalues --   -0.73609  -0.72949  -0.72097  -0.71652  -0.71259
 Alpha  occ. eigenvalues --   -0.70896  -0.70692  -0.70383  -0.69712  -0.69593
 Alpha  occ. eigenvalues --   -0.69235  -0.68641  -0.68292  -0.67789  -0.67625
 Alpha  occ. eigenvalues --   -0.67275  -0.66731  -0.66149  -0.65365  -0.65003
 Alpha  occ. eigenvalues --   -0.63829  -0.63634  -0.62849  -0.62509  -0.61616
 Alpha  occ. eigenvalues --   -0.61237  -0.60821  -0.60437  -0.59926  -0.59732
 Alpha  occ. eigenvalues --   -0.59250  -0.59030  -0.58509  -0.57913  -0.57547
 Alpha  occ. eigenvalues --   -0.57026  -0.56894  -0.56755  -0.56095  -0.55945
 Alpha  occ. eigenvalues --   -0.55772  -0.55642  -0.55402  -0.55063  -0.54578
 Alpha  occ. eigenvalues --   -0.54234  -0.53927  -0.53812  -0.53512  -0.53355
 Alpha  occ. eigenvalues --   -0.53254  -0.53065  -0.52940  -0.52600  -0.52286
 Alpha  occ. eigenvalues --   -0.52057  -0.51693  -0.51594  -0.51451  -0.51332
 Alpha  occ. eigenvalues --   -0.51037  -0.50848  -0.50569  -0.50224  -0.50166
 Alpha  occ. eigenvalues --   -0.50078  -0.49731  -0.49566  -0.49189  -0.49014
 Alpha  occ. eigenvalues --   -0.48723  -0.48638  -0.48449  -0.48203  -0.47625
 Alpha  occ. eigenvalues --   -0.47478  -0.47193  -0.47141  -0.47031  -0.46832
 Alpha  occ. eigenvalues --   -0.46558  -0.46369  -0.46206  -0.45933  -0.45349
 Alpha  occ. eigenvalues --   -0.45120  -0.44791  -0.44646  -0.44371  -0.44293
 Alpha  occ. eigenvalues --   -0.44175  -0.43427  -0.42997  -0.42716  -0.42513
 Alpha  occ. eigenvalues --   -0.42325  -0.42031  -0.41926  -0.41748  -0.41115
 Alpha  occ. eigenvalues --   -0.40595  -0.39461  -0.39400  -0.39327  -0.39222
 Alpha  occ. eigenvalues --   -0.38983  -0.38604  -0.38234  -0.37825  -0.37459
 Alpha  occ. eigenvalues --   -0.37333  -0.36709  -0.36326  -0.36156  -0.35699
 Alpha  occ. eigenvalues --   -0.34828  -0.34674  -0.34446  -0.34444  -0.34083
 Alpha  occ. eigenvalues --   -0.33868  -0.33657  -0.32924  -0.30884  -0.25356
 Alpha  occ. eigenvalues --   -0.25344  -0.23119
 Alpha virt. eigenvalues --   -0.12532  -0.10635  -0.10334  -0.09896  -0.09531
 Alpha virt. eigenvalues --   -0.09234  -0.08822  -0.08127  -0.08029  -0.06535
 Alpha virt. eigenvalues --   -0.06302  -0.05828  -0.05462  -0.04754  -0.04362
 Alpha virt. eigenvalues --   -0.02718  -0.02446  -0.02015  -0.01417  -0.01101
 Alpha virt. eigenvalues --   -0.00893  -0.00025   0.00371   0.01395   0.01463
 Alpha virt. eigenvalues --    0.01788   0.02101   0.02515   0.02710   0.02920
 Alpha virt. eigenvalues --    0.03097   0.03317   0.03534   0.03752   0.03857
 Alpha virt. eigenvalues --    0.04037   0.04301   0.04799   0.04920   0.05253
 Alpha virt. eigenvalues --    0.05297   0.05531   0.05795   0.05890   0.06109
[...]
 Alpha virt. eigenvalues --    0.98704   0.99132   0.99667   1.00079   1.00248
 Alpha virt. eigenvalues --    1.00887   1.01764   1.02251   1.02662   1.03095
 Alpha virt. eigenvalues --    1.03640   1.03902   1.04130   1.04775   1.05163
 Alpha virt. eigenvalues --    1.05470   1.05972   1.06122   1.06339   1.06688
 Alpha virt. eigenvalues --    1.07282   1.07588   1.08374   1.08651   1.08985
 Alpha virt. eigenvalues --    1.09556   1.09744   1.10255   1.10780   1.11625
 Alpha virt. eigenvalues --    1.11840   1.12231   1.12454   1.12800   1.13055
 Alpha virt. eigenvalues --    1.13718   1.14344   1.14651   1.15422   1.15762
 Alpha virt. eigenvalues --    1.16262   1.16558   1.17431   1.17577   1.18003
 Alpha virt. eigenvalues --    1.18756   1.19090   1.19802   1.20039   1.20531
 Alpha virt. eigenvalues --    1.20870   1.21628   1.21987   1.22232   1.22953
 Alpha virt. eigenvalues --    1.23908   1.24087   1.24468   1.25207   1.25693
 Alpha virt. eigenvalues --    1.26070   1.26471   1.26969   1.27824   1.28261
 Alpha virt. eigenvalues --    1.28553   1.29463   1.29540   1.30486   1.30666
 Alpha virt. eigenvalues --    1.30946   1.31300   1.31480   1.32655   1.32940
 Alpha virt. eigenvalues --    1.33360   1.33414   1.33913   1.34215   1.34876
 Alpha virt. eigenvalues --    1.35476   1.36178   1.36435   1.37455   1.37810
 Alpha virt. eigenvalues --    1.37963   1.38217   1.38858   1.39442   1.39711
 Alpha virt. eigenvalues --    1.40064   1.40283   1.40481   1.41280   1.42044
 Alpha virt. eigenvalues --    1.42199   1.42667   1.42988   1.43544   1.43766
 Alpha virt. eigenvalues --    1.43982   1.44217   1.44660   1.45436   1.45961
 Alpha virt. eigenvalues --    1.47489   1.47603   1.48324   1.48733   1.49152
 Alpha virt. eigenvalues --    1.50292   1.50716   1.51273   1.51766   1.52465
 Alpha virt. eigenvalues --    1.53244   1.53765   1.54701   1.55280   1.55467
 Alpha virt. eigenvalues --    1.55852   1.56251   1.57439   1.57811   1.57872
 Alpha virt. eigenvalues --    1.58572   1.59428   1.59852   1.60714   1.61252
 Alpha virt. eigenvalues --    1.61802   1.62545   1.63019   1.63348   1.63724
 Alpha virt. eigenvalues --    1.64516   1.65067   1.65205   1.65589   1.65761
 Alpha virt. eigenvalues --    1.66778   1.67119   1.67901   1.68299   1.68522
 Alpha virt. eigenvalues --    1.68762   1.68940   1.69660   1.69949   1.70252
 Alpha virt. eigenvalues --    1.70524   1.70655   1.71178   1.71493   1.71869
 Alpha virt. eigenvalues --    1.72331   1.72786   1.72970   1.73200   1.73946
 Alpha virt. eigenvalues --    1.74064   1.74868   1.74969   1.75209   1.75428
 Alpha virt. eigenvalues --    1.75720   1.76065   1.76695   1.76952   1.77518
 Alpha virt. eigenvalues --    1.77840   1.78144   1.78387   1.79152   1.79250
 Alpha virt. eigenvalues --    1.79324   1.79548   1.79845   1.80352   1.81032
 Alpha virt. eigenvalues --    1.81227   1.81525   1.81894   1.81980   1.82488
 Alpha virt. eigenvalues --    1.82724   1.83664   1.84079   1.84147   1.84455
 Alpha virt. eigenvalues --    1.84993   1.85320   1.85889   1.85929   1.86187
 Alpha virt. eigenvalues --    1.86378   1.86657   1.86813   1.87078   1.87357
 Alpha virt. eigenvalues --    1.87867   1.88007   1.88190   1.88856   1.89018
 Alpha virt. eigenvalues --    1.89451   1.89550   1.89673   1.90097   1.90195
 Alpha virt. eigenvalues --    1.90682   1.90931   1.91600   1.91891   1.92089
 Alpha virt. eigenvalues --    1.92389   1.92855   1.93076   1.93397   1.93728
 Alpha virt. eigenvalues --    1.93911   1.94850   1.95758   1.96516   1.96651
 Alpha virt. eigenvalues --    1.96928   1.97094   1.97225   1.97527   1.98063
 Alpha virt. eigenvalues --    1.98288   1.98755   1.99162   1.99529   1.99842
 Alpha virt. eigenvalues --    2.00015   2.00758   2.01372   2.01768   2.01837
 Alpha virt. eigenvalues --    2.02146   2.02600   2.03323   2.03634   2.04331
 Alpha virt. eigenvalues --    2.04769   2.04956   2.05321   2.05688   2.06363
 Alpha virt. eigenvalues --    2.06563   2.06898   2.07188   2.07797   2.08103
 Alpha virt. eigenvalues --    2.08473   2.09289   2.10088   2.10285   2.10545
 Alpha virt. eigenvalues --    2.11089   2.11637   2.12338   2.12858   2.12977
 Alpha virt. eigenvalues --    2.13728   2.14516   2.15218   2.15465   2.16362
 Alpha virt. eigenvalues --    2.16897   2.17226   2.17609   2.17786   2.18108
 Alpha virt. eigenvalues --    2.18378   2.18595   2.18983   2.20347   2.20457
 Alpha virt. eigenvalues --    2.20986   2.21242   2.21369   2.21521   2.21807
 Alpha virt. eigenvalues --    2.22825   2.22911   2.23329   2.23967   2.24573
 Alpha virt. eigenvalues --    2.25324   2.26438   2.26700   2.27594   2.28178
 Alpha virt. eigenvalues --    2.28558   2.29342   2.29931   2.30424   2.30646
 Alpha virt. eigenvalues --    2.31447   2.31937   2.32193   2.32463   2.32953
 Alpha virt. eigenvalues --    2.33402   2.34042   2.34466   2.35537   2.36009
 Alpha virt. eigenvalues --    2.36564   2.37162   2.37517   2.38570   2.38917
 Alpha virt. eigenvalues --    2.39257   2.39605   2.39752   2.40717   2.41756
 Alpha virt. eigenvalues --    2.42162   2.42288   2.42995   2.43708   2.44127
 Alpha virt. eigenvalues --    2.44481   2.44863   2.45320   2.46150   2.46679
 Alpha virt. eigenvalues --    2.47349   2.48624   2.49846   2.50209   2.50431
 Alpha virt. eigenvalues --    2.50795   2.51342   2.51845   2.52740   2.53172
 Alpha virt. eigenvalues --    2.53634   2.54264   2.54755   2.55494   2.55677
 Alpha virt. eigenvalues --    2.56361   2.56535   2.57637   2.57858   2.58266
 Alpha virt. eigenvalues --    2.58687   2.59057   2.59738   2.60493   2.61575
 Alpha virt. eigenvalues --    2.62192   2.62804   2.63355   2.64029   2.64043
 Alpha virt. eigenvalues --    2.64480   2.65486   2.65853   2.66361   2.66790
 Alpha virt. eigenvalues --    2.67359   2.68200   2.69036   2.69199   2.69764
 Alpha virt. eigenvalues --    2.70265   2.70974   2.71937   2.72860   2.73261
 Alpha virt. eigenvalues --    2.76640   2.77804   2.78599   2.79022   2.80341
 Alpha virt. eigenvalues --    2.81366   2.81823   2.82574   2.82970   2.84445
 Alpha virt. eigenvalues --    2.85879   2.86251   2.87961   2.89530   2.90343
 Alpha virt. eigenvalues --    2.90529   2.92821   2.93531   2.94347   2.95216
 Alpha virt. eigenvalues --    2.96096   2.96346   2.96663   2.97905   2.99712
 Alpha virt. eigenvalues --    3.00827   3.02611   3.02830   3.03055   3.03704
 Alpha virt. eigenvalues --    3.05041   3.05935   3.08707   3.11223   3.12054
 Alpha virt. eigenvalues --    3.17256   3.31386   3.34093   3.70989   3.81448
 Alpha virt. eigenvalues --    3.85796   3.86318   3.87155   3.91978   3.92723
 Alpha virt. eigenvalues --    3.94430   3.94621   3.96413   3.96709   3.99226
 Alpha virt. eigenvalues --    4.02391   4.03475   4.03699   4.04583   4.04788
 Alpha virt. eigenvalues --    4.05913   4.06784   4.07296   4.08781   4.10688
 Alpha virt. eigenvalues --    4.11595   4.12358   4.12691   4.14231   4.15139
 Alpha virt. eigenvalues --    4.16438   4.18442   4.18830   4.20487   4.20947
 Alpha virt. eigenvalues --    4.22076   4.22711   4.24645   4.26201   4.26567
 Alpha virt. eigenvalues --    4.27635   4.29323   4.31182   4.31551   4.34064
 Alpha virt. eigenvalues --    4.35046   4.35506   4.37683   4.39047   4.39701
 Alpha virt. eigenvalues --    4.40198   4.42137   4.44183   4.48030   4.49992
 Alpha virt. eigenvalues --    4.50390   4.53070   4.55428   4.58592   4.60724
 Alpha virt. eigenvalues --    4.61437   4.62249   4.64021   4.67848   4.68998
          Condensed to atoms (all electrons):
 Mulliken charges:
               1
     1  N   -0.778340
     2  H    0.412566
     3  H    0.469176
     4  H    0.415541
     5  C   -0.113980
     6  H    0.219244
     7  C    0.629668
     8  C   -0.380336
     9  H    0.204193
    10  H    0.168238
    11  O   -0.492276
    12  C    0.141923
    13  C   -0.187182
    14  H    0.143516
    15  C   -0.209157
    16  H    0.139170
    17  C   -0.170838
    18  H    0.206134
    19  C   -0.124013
    20  H    0.162098
    21  C   -0.149669
    22  H    0.159700
    23  N   -0.578035
    24  H    0.340583
    25  C   -0.080927
    26  H    0.232172
    27  C    0.639769
    28  C   -0.494584
    29  H    0.175617
    30  H    0.163878
    31  H    0.202090
    32  O   -0.573100
    33  N   -0.597825
    34  H    0.354117
    35  C   -0.069996
    36  H    0.192849
    37  C    0.623627
    38  C   -0.467824
    39  H    0.190787
    40  H    0.174680
    41  H    0.164671
    42  O   -0.512821
    43  N   -0.661665
    44  H    0.388879
    45  C    0.001453
    46  H    0.172081
    47  C    0.635189
    48  C   -0.366107
    49  H    0.202610
    50  H    0.130261
    51  O   -0.622896
    52  C    0.163624
    53  C   -0.207775
    54  H    0.131847
    55  C   -0.214771
    56  H    0.149383
    57  C   -0.158292
    58  H    0.196093
    59  C   -0.165004
    60  H    0.129058
    61  O   -0.670844
    62  H    0.423451
    63  C    0.345742
    64  N   -0.584550
    65  H    0.366836
    66  C   -0.101694
    67  H    0.193595
    68  C    0.657362
    69  C   -0.255844
    70  H    0.153712
    71  H    0.171111
    72  O   -0.568796
    73  C   -0.074275
    74  H    0.118624
    75  C   -0.446436
    76  H    0.163261
    77  H    0.145966
    78  H    0.153141
    79  C   -0.497922
    80  H    0.171844
    81  H    0.163057
    82  H    0.132586
    83  N   -0.595179
    84  H    0.341025
    85  C   -0.069757
    86  H    0.204846
    87  C    0.598717
    88  C   -0.336474
    89  H    0.215613
    90  H    0.180709
    91  O   -0.619830
    92  C   -0.369934
    93  H    0.203532
    94  H    0.166096
    95  C    0.609662
    96  O   -0.483276
    97  O   -0.597960
    98  N   -0.583069
    99  H    0.388242
   100  C   -0.108377
   101  H    0.147810
   102  C    0.587130
   103  C   -0.266086
   104  H    0.201638
   105  H    0.135343
   106  O   -0.612850
   107  C   -0.310715
   108  H    0.158933
   109  H    0.164881
   110  C   -0.149425
   111  H    0.163915
   112  H    0.165410
   113  N   -0.618113
   114  H    0.419538
   115  N   -0.766019
   116  H    0.364006
   117  H    0.379710
   118  N   -0.810318
   119  H    0.352094
   120  H    0.434235
   121  C    0.801431
   122  O   -0.549156
   123  H    0.453024
 Sum of Mulliken charges =   1.00000
 Mulliken charges with hydrogens summed into heavy atoms:
               1
     1  N    0.518943
     5  C    0.105264
     7  C    0.629668
     8  C   -0.007905
    11  O   -0.492276
    12  C    0.141923
    13  C   -0.043666
    15  C   -0.069987
    17  C    0.035296
    19  C    0.038085
    21  C    0.010031
    23  N   -0.237452
    25  C    0.151245
    27  C    0.639769
    28  C    0.047000
    32  O   -0.573100
    33  N   -0.243708
    35  C    0.122854
    37  C    0.623627
    38  C    0.062314
    42  O   -0.512821
    43  N   -0.272786
    45  C    0.173534
    47  C    0.635189
    48  C   -0.033236
    51  O   -0.622896
    52  C    0.163624
    53  C   -0.075928
    55  C   -0.065388
    57  C    0.037801
    59  C   -0.035946
    61  O   -0.247393
    63  C    0.345742
    64  N   -0.217714
    66  C    0.091901
    68  C    0.657362
    69  C    0.068978
    72  O   -0.568796
    73  C    0.044350
    75  C    0.015933
    79  C   -0.030436
    83  N   -0.254154
    85  C    0.135088
    87  C    0.598717
    88  C    0.059848
    91  O   -0.619830
    92  C   -0.000307
    95  C    0.609662
    96  O   -0.483276
    97  O   -0.144935
    98  N   -0.194826
   100  C    0.039433
   102  C    0.587130
   103  C    0.070895
   106  O   -0.612850
   107  C    0.013099
   110  C    0.179900
   113  N   -0.198575
   115  N   -0.022303
   118  N   -0.023989
   121  C    0.801431
   122  O   -0.549156
 Electronic spatial extent (au):  <R**2>=          55219.9384
 Charge=              1.0000 electrons
 Dipole moment (field-independent basis, Debye):
    X=            -21.9312    Y=             -8.6760    Z=             -0.5512  Tot=             23.5914
 Quadrupole moment (field-independent basis, Debye-Ang):
   XX=           -316.2821   YY=           -328.4842   ZZ=           -225.3544
   XY=              4.8176   XZ=           -111.4397   YZ=             23.6617
 Traceless Quadrupole moment (field-independent basis, Debye-Ang):
   XX=            -26.2419   YY=            -38.4439   ZZ=             64.6858
   XY=              4.8176   XZ=           -111.4397   YZ=             23.6617
 Octapole moment (field-independent basis, Debye-Ang**2):
  XXX=           -333.8375  YYY=            657.9704  ZZZ=          -1145.7580  XYY=            439.4598
  XXY=             59.8860  XXZ=           -149.9688  XZZ=            361.1573  YZZ=            138.0487
  YYZ=           -397.7775  XYZ=            200.9171
 Hexadecapole moment (field-independent basis, Debye-Ang**3):
 XXXX=         -37122.6826 YYYY=         -10692.3855 ZZZZ=         -16909.2200 XXXY=             -4.8139
 XXXZ=           1689.9782 YYYX=          -1362.3994 YYYZ=            500.3354 ZZZX=           6367.1542
 ZZZY=           1480.9904 XXYY=          -7577.4323 XXZZ=          -8454.7589 YYZZ=          -4572.4967
 XXYZ=            234.4606 YYXZ=           1721.5036 ZZXY=          -1127.0526
 N-N= 1.035944086301D+04 E-N=-2.760754518269D+04  KE= 2.946910974327D+03
 Unable to Open any file for archive entry.
 1\1\GINC-AMR-005\SP\RB3LYP\6-31G(d)\C41H61N10O11(1+)\KENGMITH\24-Jul-2
 022\0\\# B3LYP/6-31G* empiricaldispersion=gd3bj guess=read geom=check 
 nosymm integral(ultrafinegrid)\\Candidate Structure: Conf:883 Charge c
 alc in gas phase\\1,1\N,0,-3.1715057049,-1.3265449055,4.996350713\H,0,
 -2.153484168,-1.1985438446,5.0192758173\H,0,-3.427018948,-1.4547956073
 ,3.9914267525\H,0,-3.4383188523,-2.1690785013,5.5180076333\C,0,-3.8788
 610803,-0.1271842951,5.5906990138\H,0,-3.4180868892,0.0378337399,6.565
 6172965\C,0,-5.2984211957,-0.6535919767,5.8835098726\C,0,-3.6917244173
 ,1.0828359589,4.6792777589\H,0,-4.2145087448,1.9263477355,5.148335981\
 H,0,-4.1723908497,0.8925702999,3.7131004761\O,0,-5.4259920981,-1.46079
 83791,6.7900689295\C,0,-2.236888454,1.4313003969,4.4168469582\C,0,-1.8
 338909882,1.7535880374,3.1166514299\H,0,-2.5584086733,1.7248478299,2.3
 093803231\C,0,-1.2835393211,1.4625355356,5.444054582\H,0,-1.5699587347
 ,1.2493108117,6.4714870529\C,0,-0.5162015891,2.1202384419,2.8405684795
 \H,0,-0.2526711796,2.428763037,1.8329755793\C,0,0.0442670779,1.7950503
 068,5.1686741459\H,0,0.7718160147,1.8127367026,5.9742988242\C,0,0.4288
 633323,2.1284615346,3.8686997001\H,0,1.45718937,2.4138312254,3.6654487
 302\N,0,-6.304812982,-0.2497933022,5.0571549618\H,0,-6.0372444661,0.31
 82633909,4.2627985828\C,0,-7.3974471656,-1.186220932,4.8001775606\H,0,
 -7.6116415964,-1.6732576455,5.7561477999\C,0,-6.8183011658,-2.27985360
 01,3.8646694764\C,0,-8.6380529073,-0.4561071234,4.2917940497\H,0,-9.49
 48288528,-1.1335517578,4.2174543606\H,0,-8.4689241322,0.000450063,3.30
 94407892\H,0,-8.9109793295,0.3339434174,4.9953593654\O,0,-5.6285761097
 ,-2.6134654186,3.979155641\N,0,-7.6321036319,-2.8211809992,2.942773166
 8\H,0,-8.5732449757,-2.4672476722,2.8398951282\C,0,-7.2002362973,-3.86
 08954951,1.9899349649\H,0,-6.5135045869,-4.512938637,2.5388443666\C,0,
 -6.42333265,-3.2021021172,0.8189789401\C,0,-8.4054792458,-4.640870505,
 1.4879084164\H,0,-8.0791567714,-5.4281436543,0.8051494458\H,0,-9.08311
 38822,-3.9906763405,0.926170251\H,0,-8.9415196259,-5.0985397651,2.3243
 601311\O,0,-6.8510389551,-3.1792204776,-0.327659429\N,0,-5.2415797354,
 -2.6519030695,1.2024909493\H,0,-5.0201582165,-2.6377972622,2.195564103
 4\C,0,-4.4420464578,-1.8215747179,0.3257978622\H,0,-4.2054704995,-2.38
 1195385,-0.5849875483\C,0,-3.1612797319,-1.4812158438,1.0842415629\C,0
 ,-5.1742995926,-0.5132476865,-0.0857646599\H,0,-6.0905752712,-0.816475
 6383,-0.5991219085\H,0,-5.4567471856,0.0161155023,0.8313989151\O,0,-3.
 2053997663,-1.1888947353,2.2968703303\C,0,-4.3032611497,0.355737914,-0
 .9539265825\C,0,-3.6783847238,1.4945670103,-0.4325471979\H,0,-3.905077
 2131,1.8061823421,0.5838110814\C,0,-4.0175401545,-0.0087553463,-2.2746
 305875\H,0,-4.5037524575,-0.8775887698,-2.7117159586\C,0,-2.7873764063
 ,2.2505761984,-1.1857317388\H,0,-2.2859385981,3.1171583949,-0.77433075
 87\C,0,-3.1194771592,0.7300837802,-3.0440420288\H,0,-2.9067265108,0.43
 54941397,-4.0694194359\O,0,-1.6041664255,2.6204808817,-3.2044990483\H,
 0,-1.5359437918,2.2844884108,-4.1121161129\C,0,-2.5028855791,1.8521201
 182,-2.4915628604\N,0,-2.0306779219,-1.4923768631,0.3792471186\H,0,-2.
 0609947655,-1.5880843711,-0.6332201864\C,0,-0.7216622339,-1.1127965446
 ,0.8927726725\H,0,-0.857328027,-0.3549890121,1.6678416314\C,0,0.060972
 6535,-0.5255812885,-0.2864150934\C,0,0.0565960686,-2.3359677696,1.4386
 124927\H,0,-0.0505113233,-3.1405349476,0.7024345692\H,0,1.1267872298,-
 2.1018792587,1.459321743\O,0,-0.2765965739,-0.7636491508,-1.4487719001
 \C,0,-0.3745881208,-2.8293058725,2.8285099801\H,0,-1.4630742324,-2.972
 8773646,2.8244885041\C,0,0.2890969943,-4.1797057014,3.1251714769\H,0,1
 .3817952156,-4.0886490039,3.111853035\H,0,-0.0009808754,-4.5564224446,
 4.1125114287\H,0,0.0066953111,-4.9324375153,2.3812551532\C,0,-0.016550
 546,-1.8027389994,3.9113658165\H,0,1.064372713,-1.6203751454,3.9370358
 014\H,0,-0.5008532695,-0.8339750267,3.7482413946\H,0,-0.2849431075,-2.
 175315554,4.9102924369\N,0,1.1403246334,0.21510952,0.0630400226\H,0,1.
 3713249043,0.2377110136,1.0495395286\C,0,2.2520142573,0.4210509363,-0.
 8665010431\H,0,1.7853637167,0.5286393762,-1.8484404205\C,0,3.096558415
 4,-0.8725600281,-0.8826571053\C,0,3.0525668252,1.695049243,-0.54048432
 2\H,0,3.821884991,1.4837240169,0.2106956063\H,0,3.5875045267,1.9845381
 822,-1.4494974784\O,0,2.4938026311,-1.9766364422,-0.7637397179\C,0,2.2
 06449175,2.8746347683,-0.0388839292\H,0,2.792276974,3.796065438,-0.146
 7724508\H,0,1.9867418463,2.7807609652,1.0276507403\C,0,0.8797496314,3.
 089335662,-0.7301517887\O,0,-0.1283024598,3.455076729,-0.1516836194\O,
 0,0.9246832453,2.8481858945,-2.0481302667\N,0,4.4042559894,-0.76127629
 32,-1.0445495631\H,0,4.8560326922,0.1575211357,-0.8091958899\C,0,5.379
 257593,-1.7293851913,-0.5152780503\H,0,4.8521245866,-2.4610630378,0.10
 51741535\C,0,6.3014388422,-0.8299170037,0.4422139876\C,0,6.2659853891,
 -2.4468168623,-1.5376584193\H,0,7.175540569,-2.6802208352,-0.974750584
 4\H,0,6.5554251305,-1.7444911027,-2.3311498581\O,0,6.0224589051,0.4074
 735747,0.3983304779\C,0,5.7651350382,-3.7655632993,-2.1521247176\H,0,5
 .3045713732,-4.3932885011,-1.377317768\H,0,6.6355474274,-4.3258446494,
 -2.5135071699\C,0,4.8143771011,-3.66809929,-3.3466849794\H,0,4.7256191
 38,-4.6557404997,-3.8196384346\H,0,5.2286157631,-2.9698346143,-4.08779
 84076\N,0,3.4819484332,-3.2125655229,-2.9465570067\H,0,3.2965273007,-2
 .9730757924,-1.9581862023\N,0,2.611738796,-3.2103465622,-5.1042754719\
 H,0,2.0221570726,-2.7388109513,-5.7735192442\H,0,3.4783352178,-3.58519
 31572,-5.4590995471\N,0,1.3975723545,-2.2983750114,-3.3458043515\H,0,0
 .5679954323,-2.2486994602,-3.9158881744\H,0,1.3136633662,-2.0475972614
 ,-2.3587106649\C,0,2.5077661848,-2.9056749697,-3.7890916339\O,0,7.1576
 214907,-1.4533710435,1.072298463\H,0,0.0115999098,2.9393257401,-2.4151
 908407\\Version=ES64L-G16RevC.01\HF=-2974.3197007\RMSD=6.845e-09\Dipol
 e=-6.4762308,-1.9763129,-1.8968664\Quadrupole=-19.5101903,-28.582129,4
 8.0923193,3.5817792,-82.852712,17.5919292\PG=C01 [X(C41H61N10O11)]\\@
 The archive entry for this job was punched.


 A CHEMICAL PHYSICIST MAKES PRECISE MEASUREMENTS ON IMPURE COMPOUNDS.
 A THEORETICAL PHYSICAL CHEMIST MAKES IMPRECISE
     MEASUREMENTS ON PURE COMPOUNDS.
 AN EXPERIMENTAL PHYSICAL CHEMIST MAKES IMPRECISE
     MEASUREMENTS ON IMPURE COMPOUNDS.
 Job cpu time:       0 days  0 hours  7 minutes 20.9 seconds.
 Elapsed time:       0 days  0 hours  1 minutes 52.1 seconds.
 File lengths (MBytes):  RWF=    816 Int=      0 D2E=      0 Chk=    112 Scr=     32
 Normal termination of Gaussian 16 at Sun Jul 24 01:57:16 2022.
