 Entering Gaussian System, Link 0=/opt/software/Gaussian/g16-AVX2-C.01/g16/g16
 Input=charge-conf-217.com
 Output=charge-conf-217.log
 Initial command:
 /opt/software/Gaussian/g16-AVX2-C.01/g16/l1.exe "/mnt/gs21/scratch/kengmith/Gau-46507.inp" -scrdir="/mnt/gs21/scratch/kengmith/"
 Entering Link 1 = /opt/software/Gaussian/g16-AVX2-C.01/g16/l1.exe PID=     46517.
  
 Copyright (c) 1988-2019, Gaussian, Inc.  All Rights Reserved.
  
 This is part of the Gaussian(R) 16 program.  It is based on
 the Gaussian(R) 09 system (copyright 2009, Gaussian, Inc.),
 the Gaussian(R) 03 system (copyright 2003, Gaussian, Inc.),
 the Gaussian(R) 98 system (copyright 1998, Gaussian, Inc.),
 the Gaussian(R) 94 system (copyright 1995, Gaussian, Inc.),
 the Gaussian 92(TM) system (copyright 1992, Gaussian, Inc.),
 the Gaussian 90(TM) system (copyright 1990, Gaussian, Inc.),
 the Gaussian 88(TM) system (copyright 1988, Gaussian, Inc.),
 the Gaussian 86(TM) system (copyright 1986, Carnegie Mellon
 University), and the Gaussian 82(TM) system (copyright 1983,
 Carnegie Mellon University). Gaussian is a federally registered
 trademark of Gaussian, Inc.
  
 This software contains proprietary and confidential information,
 including trade secrets, belonging to Gaussian, Inc.
  
 This software is provided under written license and may be
 used, copied, transmitted, or stored only in accord with that
 written license.
  
 The following legend is applicable only to US Government
 contracts under FAR:
  
                    RESTRICTED RIGHTS LEGEND
  
 Use, reproduction and disclosure by the US Government is
 subject to restrictions as set forth in subparagraphs (a)
 and (c) of the Commercial Computer Software - Restricted
 Rights clause in FAR 52.227-19.
  
 Gaussian, Inc.
 340 Quinnipiac St., Bldg. 40, Wallingford CT 06492
  
  
 ---------------------------------------------------------------
 Warning -- This program may not be used in any manner that
 competes with the business of Gaussian, Inc. or will provide
 assistance to any competitor of Gaussian, Inc.  The licensee
 of this program is prohibited from giving any competitor of
 Gaussian, Inc. access to this program.  By using this program,
 the user acknowledges that Gaussian, Inc. is engaged in the
 business of creating and licensing software in the field of
 computational chemistry and represents and warrants to the
 licensee that it is not a competitor of Gaussian, Inc. and that
 it will not use this program in any manner prohibited above.
 ---------------------------------------------------------------
  

 Cite this work as:
 Gaussian 16, Revision C.01,
 M. J. Frisch, G. W. Trucks, H. B. Schlegel, G. E. Scuseria, 
 M. A. Robb, J. R. Cheeseman, G. Scalmani, V. Barone, 
 G. A. Petersson, H. Nakatsuji, X. Li, M. Caricato, A. V. Marenich, 
 J. Bloino, B. G. Janesko, R. Gomperts, B. Mennucci, H. P. Hratchian, 
 J. V. Ortiz, A. F. Izmaylov, J. L. Sonnenberg, D. Williams-Young, 
 F. Ding, F. Lipparini, F. Egidi, J. Goings, B. Peng, A. Petrone, 
 T. Henderson, D. Ranasinghe, V. G. Zakrzewski, J. Gao, N. Rega, 
 G. Zheng, W. Liang, M. Hada, M. Ehara, K. Toyota, R. Fukuda, 
 J. Hasegawa, M. Ishida, T. Nakajima, Y. Honda, O. Kitao, H. Nakai, 
 T. Vreven, K. Throssell, J. A. Montgomery, Jr., J. E. Peralta, 
 F. Ogliaro, M. J. Bearpark, J. J. Heyd, E. N. Brothers, K. N. Kudin, 
 V. N. Staroverov, T. A. Keith, R. Kobayashi, J. Normand, 
 K. Raghavachari, A. P. Rendell, J. C. Burant, S. S. Iyengar, 
 J. Tomasi, M. Cossi, J. M. Millam, M. Klene, C. Adamo, R. Cammi, 
 J. W. Ochterski, R. L. Martin, K. Morokuma, O. Farkas, 
 J. B. Foresman, and D. J. Fox, Gaussian, Inc., Wallingford CT, 2019.
 
 ******************************************
 Gaussian 16:  ES64L-G16RevC.01  3-Jul-2019
                24-Jul-2022 
 ******************************************
 %mem=8gb
 %nproc=4
 Will use up to    4 processors via shared memory.
 %chk=conf-217.chk
 ----------------------------------------------------------------------
 # B3LYP/6-31G* empiricaldispersion=gd3bj guess=read geom=check nosymm 
 integral(ultrafinegrid)
 ----------------------------------------------------------------------
 1/29=2,38=1,172=1/1;
 2/12=2,15=1,40=1/2;
 3/5=1,6=6,7=1,11=2,14=-4,25=1,30=1,74=-5,75=-5,116=-2,124=41/1,2,3;
 4/5=1/1;
 5/5=2,38=6/2;
 6/7=2,8=2,9=2,10=2,28=1/1;
 99/5=1,9=1/99;
 ------------------------------------------------------
 Candidate Structure: Conf:217 Charge calc in gas phase
 ------------------------------------------------------
 Structure from the checkpoint file:  "conf-217.chk"
 Charge =  1 Multiplicity = 1
 Redundant internal coordinates found in file.  (old form).
 N,0,-10.4501536721,4.4483180748,3.117506296
 H,0,-10.9062467304,3.6181246504,3.5930663607
 H,0,-11.0380567474,4.8409827714,2.3803126291
 H,0,-10.2602293465,5.1678086161,3.8359773543
 C,0,-9.1427769989,3.8696552936,2.6283243601
 H,0,-9.2475736201,3.680943103,1.556158397
 C,0,-9.082558747,2.5075411247,3.3723305226
 C,0,-7.9840420725,4.8494563293,2.9019575522
 H,0,-8.1086736644,5.7150058357,2.2411443242
 H,0,-7.0511485566,4.3669989194,2.5981957854
 O,0,-10.0967345966,2.1433099819,3.9870059065
 C,0,-7.9611711988,5.2932525842,4.3478138354
 C,0,-8.5672147778,6.5082713118,4.7076503118
 H,0,-8.9414945579,7.1745895123,3.9312090607
 C,0,-7.4183236047,4.4791896294,5.3533311344
 H,0,-6.9368184633,3.5372324031,5.1057276238
 C,0,-8.6375954967,6.9026836416,6.0468250213
 H,0,-9.0978485623,7.8506696393,6.3078182289
 C,0,-7.4851910869,4.8798299042,6.6869270761
 H,0,-7.0521312632,4.2465740041,7.4551777842
 C,0,-8.0985592684,6.0849113641,7.038385492
 H,0,-8.1459070287,6.3887604952,8.079402391
 N,0,-7.9557190113,1.8124091713,3.2738194247
 H,0,-7.1382172654,2.2132272083,2.8049128006
 C,0,-7.7782369326,0.5443324994,3.9891905006
 H,0,-8.3815365814,0.6179997522,4.9013180139
 C,0,-6.3048687174,0.4775397204,4.4419600432
 C,0,-8.2836900735,-0.638117839,3.1573863253
 H,0,-8.3101454875,-1.5550213265,3.7541678006
 H,0,-7.653846013,-0.8062089244,2.2788106338
 H,0,-9.3070320048,-0.4378952715,2.8302669955
 O,0,-5.7007433061,1.5128104278,4.7653634761
 N,0,-5.7764778132,-0.7518834908,4.5023934794
 H,0,-6.2294281892,-1.5214529182,4.0154167391
 C,0,-4.3637329306,-1.0190789102,4.7435885196
 H,0,-3.8241308754,-0.077429147,4.6141358573
 C,0,-3.9503096919,-2.0093457271,3.6341128811
 C,0,-4.1144594427,-1.5826194836,6.1473616882
 H,0,-3.0487202329,-1.7810765367,6.2987711199
 H,0,-4.6623750332,-2.5196171195,6.2875811215
 H,0,-4.4454834998,-0.863955632,6.9022880914
 O,0,-4.8013451307,-2.663084934,3.0305453688
 N,0,-2.6284881105,-2.0641706908,3.3786001396
 H,0,-1.994914816,-1.4277883214,3.8572878389
 C,0,-2.0754061386,-2.542018533,2.1209934466
 H,0,-2.1156015006,-3.6356614067,2.0773526407
 C,0,-0.6014920825,-2.0972129526,2.1246093462
 C,0,-2.8195334542,-1.9838609949,0.8596062637
 H,0,-2.1398069203,-1.9870316144,0.0013789865
 H,0,-3.6319093612,-2.6707483015,0.6177766639
 O,0,-0.1892745828,-1.2731794926,2.9474094783
 C,0,-3.4126504559,-0.6084454299,1.0655351275
 C,0,-4.7409783478,-0.3685122043,0.6970227539
 H,0,-5.2893330307,-1.1399968211,0.1657446803
 C,0,-2.7193916983,0.4164347152,1.7283827818
 H,0,-1.6883757312,0.269893373,2.0351821102
 C,0,-5.3944026028,0.807004197,1.0610879104
 H,0,-6.4379526377,0.9625329743,0.8041571276
 C,0,-3.3657874925,1.5924414299,2.1114251756
 H,0,-2.8388109407,2.3542571869,2.6781439771
 O,0,-5.4238145365,2.8336386756,2.3607636582
 H,0,-5.2574111848,2.7875406227,3.3272517453
 C,0,-4.7173152435,1.7564020573,1.8229970055
 N,0,0.159857993,-2.6383313422,1.1541105607
 H,0,-0.295725965,-3.1573147319,0.4070747796
 C,0,1.4135613335,-2.0322417709,0.723125748
 H,0,1.5408152669,-1.107360213,1.289926682
 C,0,1.2389199553,-1.7206901291,-0.7695925791
 C,0,2.6209150965,-2.9630420636,0.9370201841
 H,0,2.4678827814,-3.8623293553,0.3261002032
 H,0,3.5142882807,-2.4624422443,0.5387691571
 O,0,0.4228254004,-2.3471713197,-1.4516916955
 C,0,2.8705123988,-3.3654362189,2.3990915259
 H,0,1.954542318,-3.8437036421,2.772632777
 C,0,4.0060225152,-4.3945844467,2.4626958057
 H,0,4.9472558832,-3.9612237042,2.1010449594
 H,0,4.170459642,-4.7328367107,3.491485151
 H,0,3.7854980821,-5.2754482839,1.8487416195
 C,0,3.1750440666,-2.1540047842,3.2897763558
 H,0,4.0386602436,-1.5949663516,2.9050865702
 H,0,2.3204390185,-1.4747578818,3.3591187548
 H,0,3.4207651529,-2.47894349,4.3068727158
 N,0,2.0399617821,-0.7592068068,-1.257162121
 H,0,2.7340629427,-0.2986127218,-0.6766687751
 C,0,2.1299208519,-0.4273015331,-2.6647813615
 H,0,1.9957516343,-1.3470200491,-3.2456447968
 C,0,3.5487569805,0.1232735342,-2.8811785184
 C,0,1.0925807987,0.6203838656,-3.135821898
 H,0,1.13273612,1.4818108904,-2.462321727
 H,0,1.4089806859,0.9754653489,-4.1233679156
 O,0,4.2222643711,0.5244302382,-1.9245223385
 C,0,-0.3462193818,0.1033278051,-3.2688888182
 H,0,-0.3727741749,-0.8923947048,-3.7193290573
 H,0,-0.8921071344,0.7642977123,-3.9557697797
 C,0,-1.2157420721,0.0314965793,-2.0321506903
 O,0,-2.2683314139,-0.5677540848,-1.9856943023
 O,0,-0.758333829,0.7695354943,-0.9904134994
 N,0,3.9616544552,0.145852793,-4.1621435092
 H,0,3.3069047993,-0.0596756725,-4.9113976236
 C,0,5.1229779679,0.903143142,-4.5961369602
 H,0,5.3305502903,1.638719241,-3.8242907616
 C,0,4.7548939933,1.6460183306,-5.881255099
 C,0,6.3665061244,0.0152080515,-4.8197148624
 H,0,7.0703996239,0.5436719172,-5.4708628615
 H,0,6.0403247892,-0.8790451369,-5.3634149296
 O,0,5.6313797603,2.5696738061,-6.2580036369
 C,0,7.0825152411,-0.3791351441,-3.5254081099
 H,0,7.7819065195,-1.1958745032,-3.7446626798
 H,0,6.363077454,-0.7704631241,-2.796473267
 C,0,7.9027500168,0.752439379,-2.8894994524
 H,0,8.5874037595,1.1817819886,-3.6247405428
 H,0,8.5083089073,0.3317182019,-2.0768437952
 N,0,7.1354481815,1.8625368152,-2.3320093452
 H,0,6.3992525132,1.6169355547,-1.679011171
 N,0,7.3186900345,3.2687770965,-4.1932292559
 H,0,7.3582854692,4.2657153419,-4.407201944
 H,0,6.3368765861,2.7051714648,-5.5485348259
 N,0,6.4663402279,4.0431493911,-2.1042343756
 H,0,6.3847772151,4.9756564205,-2.4855697876
 H,0,6.7611627165,4.0160556008,-1.1363275829
 C,0,7.0078253561,3.0818574718,-2.94248022
 O,0,3.749696948,1.3800107215,-6.5115774108
 H,0,-1.4531313718,0.7244777701,-0.3024310319
 Recover connectivity data from disk.
                           ----------------------------
                           !    Current Parameters    !
                           ! (Angstroms and Degrees)  !
 --------------------------                            --------------------------
 ! Name  Definition              Value                                          !
 --------------------------------------------------------------------------------
 ! R1    R(1,2)                  1.0599                                         !
 ! R2    R(1,3)                  1.0214                                         !
 ! R3    R(1,4)                  1.0344                                         !
 ! R4    R(1,5)                  1.5111                                         !
 ! R5    R(5,6)                  1.0937                                         !
 ! R6    R(5,7)                  1.5532                                         !
 ! R7    R(5,8)                  1.5419                                         !
 ! R8    R(7,11)                 1.2406                                         !
 ! R9    R(7,23)                 1.3277                                         !
 ! R10   R(8,9)                  1.0961                                         !
 ! R11   R(8,10)                 1.0933                                         !
 ! R12   R(8,12)                 1.5126                                         !
 ! R13   R(12,13)                1.4046                                         !
 ! R14   R(12,15)                1.403                                          !
 ! R15   R(13,14)                1.0895                                         !
 ! R16   R(13,17)                1.3978                                         !
 ! R17   R(15,16)                1.0865                                         !
 ! R18   R(15,19)                1.3941                                         !
 ! R19   R(17,18)                1.0856                                         !
 ! R20   R(17,21)                1.3937                                         !
 ! R21   R(19,20)                1.0857                                         !
 ! R22   R(19,21)                1.3971                                         !
 ! R23   R(21,22)                1.0855                                         !
 ! R24   R(23,24)                1.0241                                         !
 ! R25   R(23,25)                1.4667                                         !
 ! R26   R(25,26)                1.0961                                         !
 ! R27   R(25,27)                1.5428                                         !
 ! R28   R(25,28)                1.5315                                         !
 ! R29   R(27,32)                1.2415                                         !
 ! R30   R(27,33)                1.3395                                         !
 ! R31   R(28,29)                1.0943                                         !
 ! R32   R(28,30)                1.094                                          !
 ! R33   R(28,31)                1.0929                                         !
 ! R34   R(33,34)                1.0171                                         !
 ! R35   R(33,35)                1.4579                                         !
 ! R36   R(35,36)                1.093                                          !
 ! R37   R(35,37)                1.5435                                         !
 ! R38   R(35,38)                1.5331                                         !
 ! R39   R(37,42)                1.2312                                         !
 ! R40   R(37,43)                1.3474                                         !
 ! R41   R(38,39)                1.0946                                         !
 ! R42   R(38,40)                1.0945                                         !
 ! R43   R(38,41)                1.0936                                         !
 ! R44   R(43,44)                1.0176                                         !
 ! R45   R(43,45)                1.4546                                         !
 ! R46   R(45,46)                1.0953                                         !
 ! R47   R(45,47)                1.5396                                         !
 ! R48   R(45,48)                1.5673                                         !
 ! R49   R(47,51)                1.2353                                         !
 ! R50   R(47,64)                1.347                                          !
 ! R51   R(48,49)                1.0948                                         !
 ! R52   R(48,50)                1.091                                          !
 ! R53   R(48,52)                1.5119                                         !
 ! R54   R(52,53)                1.3992                                         !
 ! R55   R(52,55)                1.4037                                         !
 ! R56   R(53,54)                1.0854                                         !
 ! R57   R(53,57)                1.3933                                         !
 ! R58   R(55,56)                1.0856                                         !
 ! R59   R(55,59)                1.3955                                         !
 ! R60   R(57,58)                1.0859                                         !
 ! R61   R(57,63)                1.3929                                         !
 ! R62   R(59,60)                1.0859                                         !
 ! R63   R(59,63)                1.3917                                         !
 ! R64   R(61,62)                0.9818                                         !
 ! R65   R(61,63)                1.396                                          !
 ! R66   R(64,65)                1.0173                                         !
 ! R67   R(64,66)                1.4577                                         !
 ! R68   R(66,67)                1.0922                                         !
 ! R69   R(66,68)                1.5349                                         !
 ! R70   R(66,69)                1.5394                                         !
 ! R71   R(68,72)                1.2344                                         !
 ! R72   R(68,83)                1.3431                                         !
 ! R73   R(69,70)                1.0979                                         !
 ! R74   R(69,71)                1.0988                                         !
 ! R75   R(69,73)                1.5368                                         !
 ! R76   R(73,74)                1.0988                                         !
 ! R77   R(73,75)                1.5338                                         !
 ! R78   R(73,79)                1.5342                                         !
 ! R79   R(75,76)                1.0975                                         !
 ! R80   R(75,77)                1.0954                                         !
 ! R81   R(75,78)                1.0961                                         !
 ! R82   R(79,80)                1.0983                                         !
 ! R83   R(79,81)                1.0939                                         !
 ! R84   R(79,82)                1.0957                                         !
 ! R85   R(83,84)                1.0153                                         !
 ! R86   R(83,85)                1.449                                          !
 ! R87   R(85,86)                1.096                                          !
 ! R88   R(85,87)                1.5372                                         !
 ! R89   R(85,88)                1.5478                                         !
 ! R90   R(87,91)                1.2368                                         !
 ! R91   R(87,98)                1.3461                                         !
 ! R92   R(88,89)                1.0942                                         !
 ! R93   R(88,90)                1.0961                                         !
 ! R94   R(88,92)                1.5347                                         !
 ! R95   R(92,93)                1.0932                                         !
 ! R96   R(92,94)                1.0985                                         !
 ! R97   R(92,95)                1.5135                                         !
 ! R98   R(95,96)                1.2121                                         !
 ! R99   R(95,97)                1.3561                                         !
 ! R100  R(97,123)               0.9788                                         !
 ! R101  R(98,99)                1.016                                          !
 ! R102  R(98,100)               1.4528                                         !
 ! R103  R(100,101)              1.0862                                         !
 ! R104  R(100,102)              1.5293                                         !
 ! R105  R(100,103)              1.5443                                         !
 ! R106  R(102,106)              1.3279                                         !
 ! R107  R(102,122)              1.2159                                         !
 ! R108  R(103,104)              1.0949                                         !
 ! R109  R(103,105)              1.0962                                         !
 ! R110  R(103,107)              1.5308                                         !
 ! R111  R(107,108)              1.0974                                         !
 ! R112  R(107,109)              1.0964                                         !
 ! R113  R(107,110)              1.5355                                         !
 ! R114  R(110,111)              1.0925                                         !
 ! R115  R(110,112)              1.0973                                         !
 ! R116  R(110,113)              1.4601                                         !
 ! R117  R(113,114)              1.0143                                         !
 ! R118  R(113,121)              1.3696                                         !
 ! R119  R(115,116)              1.0204                                         !
 ! R120  R(115,117)              1.7659                                         !
 ! R121  R(115,121)              1.3023                                         !
 ! R122  R(118,119)              1.0108                                         !
 ! R123  R(118,120)              1.0122                                         !
 ! R124  R(118,121)              1.3856                                         !
 ! A1    A(2,1,3)              112.1646                                         !
 ! A2    A(2,1,4)              108.191                                          !
 ! A3    A(2,1,5)              102.5684                                         !
 ! A4    A(3,1,4)              109.8523                                         !
 ! A5    A(3,1,5)              114.3026                                         !
 ! A6    A(4,1,5)              109.4126                                         !
 ! A7    A(1,5,6)              107.4897                                         !
 ! A8    A(1,5,7)              102.3745                                         !
 ! A9    A(1,5,8)              110.4499                                         !
 ! A10   A(6,5,7)              108.7828                                         !
 ! A11   A(6,5,8)              110.8315                                         !
 ! A12   A(7,5,8)              116.3025                                         !
 ! A13   A(5,7,11)             117.5881                                         !
 ! A14   A(5,7,23)             117.1626                                         !
 ! A15   A(11,7,23)            125.232                                          !
 ! A16   A(5,8,9)              108.0203                                         !
 ! A17   A(5,8,10)             108.1502                                         !
 ! A18   A(5,8,12)             111.5571                                         !
 ! A19   A(9,8,10)             106.1402                                         !
 ! A20   A(9,8,12)             110.262                                          !
 ! A21   A(10,8,12)            112.4667                                         !
 ! A22   A(8,12,13)            119.481                                          !
 ! A23   A(8,12,15)            121.3772                                         !
 ! A24   A(13,12,15)           119.0277                                         !
 ! A25   A(12,13,14)           119.6492                                         !
 ! A26   A(12,13,17)           120.7452                                         !
 ! A27   A(14,13,17)           119.5323                                         !
 ! A28   A(12,15,16)           120.743                                          !
 ! A29   A(12,15,19)           120.0186                                         !
 ! A30   A(16,15,19)           119.237                                          !
 ! A31   A(13,17,18)           119.8709                                         !
 ! A32   A(13,17,21)           119.7727                                         !
 ! A33   A(18,17,21)           120.3498                                         !
 ! A34   A(15,19,20)           119.3503                                         !
 ! A35   A(15,19,21)           120.6362                                         !
 ! A36   A(20,19,21)           120.0133                                         !
 ! A37   A(17,21,19)           119.7965                                         !
 ! A38   A(17,21,22)           120.0782                                         !
 ! A39   A(19,21,22)           120.1221                                         !
 ! A40   A(7,23,24)            120.4349                                         !
 ! A41   A(7,23,25)            121.2772                                         !
 ! A42   A(24,23,25)           117.7161                                         !
 ! A43   A(23,25,26)           106.3301                                         !
 ! A44   A(23,25,27)           107.225                                          !
 ! A45   A(23,25,28)           111.2644                                         !
 ! A46   A(26,25,27)           106.5191                                         !
 ! A47   A(26,25,28)           108.7966                                         !
 ! A48   A(27,25,28)           116.1767                                         !
 ! A49   A(25,27,32)           120.3346                                         !
 ! A50   A(25,27,33)           115.4472                                         !
 ! A51   A(32,27,33)           124.1693                                         !
 ! A52   A(25,28,29)           111.0196                                         !
 ! A53   A(25,28,30)           111.3946                                         !
 ! A54   A(25,28,31)           109.2784                                         !
 ! A55   A(29,28,30)           108.8525                                         !
 ! A56   A(29,28,31)           107.1038                                         !
 ! A57   A(30,28,31)           109.0789                                         !
 ! A58   A(27,33,34)           119.8121                                         !
 ! A59   A(27,33,35)           123.9124                                         !
 ! A60   A(34,33,35)           111.8438                                         !
 ! A61   A(33,35,36)           107.5125                                         !
 ! A62   A(33,35,37)           104.9642                                         !
 ! A63   A(33,35,38)           112.1123                                         !
 ! A64   A(36,35,37)           109.5945                                         !
 ! A65   A(36,35,38)           110.1737                                         !
 ! A66   A(37,35,38)           112.2587                                         !
 ! A67   A(35,37,42)           120.5222                                         !
 ! A68   A(35,37,43)           115.1613                                         !
 ! A69   A(42,37,43)           124.2993                                         !
 ! A70   A(35,38,39)           110.5865                                         !
 ! A71   A(35,38,40)           110.525                                          !
 ! A72   A(35,38,41)           109.9569                                         !
 ! A73   A(39,38,40)           108.33                                           !
 ! A74   A(39,38,41)           108.5646                                         !
 ! A75   A(40,38,41)           108.8221                                         !
 ! A76   A(37,43,44)           119.7446                                         !
 ! A77   A(37,43,45)           123.3899                                         !
 ! A78   A(44,43,45)           112.0494                                         !
 ! A79   A(43,45,46)           110.3971                                         !
 ! A80   A(43,45,47)           105.4903                                         !
 ! A81   A(43,45,48)           113.4728                                         !
 ! A82   A(46,45,47)           108.888                                          !
 ! A83   A(46,45,48)           107.8253                                         !
 ! A84   A(47,45,48)           110.7039                                         !
 ! A85   A(45,47,51)           120.9146                                         !
 ! A86   A(45,47,64)           115.0474                                         !
 ! A87   A(51,47,64)           124.0058                                         !
 ! A88   A(45,48,49)           109.5786                                         !
 ! A89   A(45,48,50)           107.9218                                         !
 ! A90   A(45,48,52)           113.6163                                         !
 ! A91   A(49,48,50)           106.6621                                         !
 ! A92   A(49,48,52)           110.6687                                         !
 ! A93   A(50,48,52)           108.1095                                         !
 ! A94   A(48,52,53)           119.5072                                         !
 ! A95   A(48,52,55)           122.3286                                         !
 ! A96   A(53,52,55)           117.9062                                         !
 ! A97   A(52,53,54)           119.1196                                         !
 ! A98   A(52,53,57)           121.4035                                         !
 ! A99   A(54,53,57)           119.3822                                         !
 ! A100  A(52,55,56)           120.2603                                         !
 ! A101  A(52,55,59)           121.0727                                         !
 ! A102  A(56,55,59)           118.4288                                         !
 ! A103  A(53,57,58)           120.643                                          !
 ! A104  A(53,57,63)           119.3401                                         !
 ! A105  A(58,57,63)           119.9285                                         !
 ! A106  A(55,59,60)           120.64                                           !
 ! A107  A(55,59,63)           119.4871                                         !
 ! A108  A(60,59,63)           119.7882                                         !
 ! A109  A(62,61,63)           104.9046                                         !
 ! A110  A(57,63,59)           120.3399                                         !
 ! A111  A(57,63,61)           119.3835                                         !
 ! A112  A(59,63,61)           120.1707                                         !
 ! A113  A(47,64,65)           118.7435                                         !
 ! A114  A(47,64,66)           122.1492                                         !
 ! A115  A(65,64,66)           112.3434                                         !
 ! A116  A(64,66,67)           107.3896                                         !
 ! A117  A(64,66,68)           105.9074                                         !
 ! A118  A(64,66,69)           112.4608                                         !
 ! A119  A(67,66,68)           110.2478                                         !
 ! A120  A(67,66,69)           110.3977                                         !
 ! A121  A(68,66,69)           110.3101                                         !
 ! A122  A(66,68,72)           120.638                                          !
 ! A123  A(66,68,83)           115.4999                                         !
 ! A124  A(72,68,83)           123.8511                                         !
 ! A125  A(66,69,70)           107.9766                                         !
 ! A126  A(66,69,71)           108.1701                                         !
 ! A127  A(66,69,73)           114.7005                                         !
 ! A128  A(70,69,71)           106.5485                                         !
 ! A129  A(70,69,73)           109.7276                                         !
 ! A130  A(71,69,73)           109.3936                                         !
 ! A131  A(69,73,74)           107.5781                                         !
 ! A132  A(69,73,75)           109.595                                          !
 ! A133  A(69,73,79)           112.1982                                         !
 ! A134  A(74,73,75)           108.1195                                         !
 ! A135  A(74,73,79)           108.1689                                         !
 ! A136  A(75,73,79)           111.0265                                         !
 ! A137  A(73,75,76)           110.8733                                         !
 ! A138  A(73,75,77)           110.9332                                         !
 ! A139  A(73,75,78)           111.533                                          !
 ! A140  A(76,75,77)           107.6185                                         !
 ! A141  A(76,75,78)           107.7754                                         !
 ! A142  A(77,75,78)           107.9452                                         !
 ! A143  A(73,79,80)           110.7722                                         !
 ! A144  A(73,79,81)           111.8426                                         !
 ! A145  A(73,79,82)           110.4432                                         !
 ! A146  A(80,79,81)           108.6903                                         !
 ! A147  A(80,79,82)           107.4423                                         !
 ! A148  A(81,79,82)           107.4893                                         !
 ! A149  A(68,83,84)           121.6635                                         !
 ! A150  A(68,83,85)           123.6184                                         !
 ! A151  A(84,83,85)           114.1449                                         !
 ! A152  A(83,85,86)           108.3621                                         !
 ! A153  A(83,85,87)           106.027                                          !
 ! A154  A(83,85,88)           114.147                                          !
 ! A155  A(86,85,87)           109.8116                                         !
 ! A156  A(86,85,88)           108.9461                                         !
 ! A157  A(87,85,88)           109.4703                                         !
 ! A158  A(85,87,91)           120.6567                                         !
 ! A159  A(85,87,98)           115.0301                                         !
 ! A160  A(91,87,98)           124.305                                          !
 ! A161  A(85,88,89)           108.7223                                         !
 ! A162  A(85,88,90)           107.4583                                         !
 ! A163  A(85,88,92)           115.2569                                         !
 ! A164  A(89,88,90)           106.794                                          !
 ! A165  A(89,88,92)           110.6722                                         !
 ! A166  A(90,88,92)           107.5568                                         !
 ! A167  A(88,92,93)           111.4309                                         !
 ! A168  A(88,92,94)           108.5053                                         !
 ! A169  A(88,92,95)           118.9309                                         !
 ! A170  A(93,92,94)           106.1612                                         !
 ! A171  A(93,92,95)           106.2308                                         !
 ! A172  A(94,92,95)           104.7147                                         !
 ! A173  A(92,95,96)           123.6197                                         !
 ! A174  A(92,95,97)           114.0844                                         !
 ! A175  A(96,95,97)           122.1752                                         !
 ! A176  A(95,97,123)          105.9887                                         !
 ! A177  A(87,98,99)           120.0467                                         !
 ! A178  A(87,98,100)          122.5643                                         !
 ! A179  A(99,98,100)          113.5964                                         !
 ! A180  A(98,100,101)         107.0666                                         !
 ! A181  A(98,100,102)         108.1703                                         !
 ! A182  A(98,100,103)         112.7826                                         !
 ! A183  A(101,100,102)        108.3096                                         !
 ! A184  A(101,100,103)        109.7774                                         !
 ! A185  A(102,100,103)        110.576                                          !
 ! A186  A(100,102,106)        114.6721                                         !
 ! A187  A(100,102,122)        121.8912                                         !
 ! A188  A(106,102,122)        123.4189                                         !
 ! A189  A(100,103,104)        109.0427                                         !
 ! A190  A(100,103,105)        107.533                                          !
 ! A191  A(100,103,107)        113.725                                          !
 ! A192  A(104,103,105)        106.8623                                         !
 ! A193  A(104,103,107)        109.055                                          !
 ! A194  A(105,103,107)        110.3883                                         !
 ! A195  A(103,107,108)        108.7166                                         !
 ! A196  A(103,107,109)        110.3135                                         !
 ! A197  A(103,107,110)        114.2161                                         !
 ! A198  A(108,107,109)        106.5823                                         !
 ! A199  A(108,107,110)        106.9045                                         !
 ! A200  A(109,107,110)        109.7688                                         !
 ! A201  A(107,110,111)        110.222                                          !
 ! A202  A(107,110,112)        108.5995                                         !
 ! A203  A(107,110,113)        115.9578                                         !
 ! A204  A(111,110,112)        107.6516                                         !
 ! A205  A(111,110,113)        106.7079                                         !
 ! A206  A(112,110,113)        107.382                                          !
 ! A207  A(110,113,114)        116.306                                          !
 ! A208  A(110,113,121)        123.7566                                         !
 ! A209  A(114,113,121)        115.7805                                         !
 ! A210  A(116,115,117)         99.9306                                         !
 ! A211  A(116,115,121)        110.5416                                         !
 ! A212  A(117,115,121)        123.9578                                         !
 ! A213  A(119,118,120)        114.1405                                         !
 ! A214  A(119,118,121)        116.3177                                         !
 ! A215  A(120,118,121)        116.494                                          !
 ! A216  A(113,121,115)        122.252                                          !
 ! A217  A(113,121,118)        112.6075                                         !
 ! A218  A(115,121,118)        125.0805                                         !
 ! D1    D(2,1,5,6)            102.2849                                         !
 ! D2    D(2,1,5,7)            -12.2187                                         !
 ! D3    D(2,1,5,8)           -136.6886                                         !
 ! D4    D(3,1,5,6)            -19.3694                                         !
 ! D5    D(3,1,5,7)           -133.8729                                         !
 ! D6    D(3,1,5,8)            101.6571                                         !
 ! D7    D(4,1,5,6)           -143.0258                                         !
 ! D8    D(4,1,5,7)            102.4707                                         !
 ! D9    D(4,1,5,8)            -21.9993                                         !
 ! D10   D(1,5,7,11)             9.2278                                         !
 ! D11   D(1,5,7,23)          -172.2037                                         !
 ! D12   D(6,5,7,11)          -104.3257                                         !
 ! D13   D(6,5,7,23)            74.2428                                         !
 ! D14   D(8,5,7,11)           129.7222                                         !
 ! D15   D(8,5,7,23)           -51.7093                                         !
 ! D16   D(1,5,8,9)            -69.3864                                         !
 ! D17   D(1,5,8,10)           176.1396                                         !
 ! D18   D(1,5,8,12)            51.9515                                         !
 ! D19   D(6,5,8,9)             49.6302                                         !
 ! D20   D(6,5,8,10)           -64.8437                                         !
 ! D21   D(6,5,8,12)           170.9682                                         !
 ! D22   D(7,5,8,9)            174.5452                                         !
 ! D23   D(7,5,8,10)            60.0713                                         !
 ! D24   D(7,5,8,12)           -64.1168                                         !
 ! D25   D(5,7,23,24)            6.0524                                         !
 ! D26   D(5,7,23,25)          177.1832                                         !
 ! D27   D(11,7,23,24)        -175.5009                                         !
 ! D28   D(11,7,23,25)          -4.3701                                         !
 ! D29   D(5,8,12,13)          -96.3864                                         !
 ! D30   D(5,8,12,15)           79.6937                                         !
 ! D31   D(9,8,12,13)           23.6401                                         !
 ! D32   D(9,8,12,15)         -160.2798                                         !
 ! D33   D(10,8,12,13)         141.8903                                         !
 ! D34   D(10,8,12,15)         -42.0296                                         !
 ! D35   D(8,12,13,14)          -7.2833                                         !
 ! D36   D(8,12,13,17)         175.8462                                         !
 ! D37   D(15,12,13,14)        176.544                                          !
 ! D38   D(15,12,13,17)         -0.3265                                         !
 ! D39   D(8,12,15,16)           4.346                                          !
 ! D40   D(8,12,15,19)        -176.0827                                         !
 ! D41   D(13,12,15,16)       -179.5566                                         !
 ! D42   D(13,12,15,19)          0.0148                                         !
 ! D43   D(12,13,17,18)        179.2158                                         !
 ! D44   D(12,13,17,21)          0.1505                                         !
 ! D45   D(14,13,17,18)          2.3417                                         !
 ! D46   D(14,13,17,21)       -176.7236                                         !
 ! D47   D(12,15,19,20)       -179.3451                                         !
 ! D48   D(12,15,19,21)          0.4746                                         !
 ! D49   D(16,15,19,20)          0.2328                                         !
 ! D50   D(16,15,19,21)       -179.9476                                         !
 ! D51   D(13,17,21,19)          0.3379                                         !
 ! D52   D(13,17,21,22)        179.6838                                         !
 ! D53   D(18,17,21,19)       -178.7229                                         !
 ! D54   D(18,17,21,22)          0.623                                          !
 ! D55   D(15,19,21,17)         -0.6528                                         !
 ! D56   D(15,19,21,22)       -179.9984                                         !
 ! D57   D(20,19,21,17)        179.1656                                         !
 ! D58   D(20,19,21,22)         -0.18                                           !
 ! D59   D(7,23,25,26)         -30.0312                                         !
 ! D60   D(7,23,25,27)        -143.6741                                         !
 ! D61   D(7,23,25,28)          88.2829                                         !
 ! D62   D(24,23,25,26)        141.3324                                         !
 ! D63   D(24,23,25,27)         27.6895                                         !
 ! D64   D(24,23,25,28)       -100.3534                                         !
 ! D65   D(23,25,27,32)         33.8599                                         !
 ! D66   D(23,25,27,33)       -148.578                                          !
 ! D67   D(26,25,27,32)        -79.6554                                         !
 ! D68   D(26,25,27,33)         97.9067                                         !
 ! D69   D(28,25,27,32)        158.9941                                         !
 ! D70   D(28,25,27,33)        -23.4438                                         !
 ! D71   D(23,25,28,29)       -170.2577                                         !
 ! D72   D(23,25,28,30)         68.2533                                         !
 ! D73   D(23,25,28,31)        -52.3409                                         !
 ! D74   D(26,25,28,29)        -53.4391                                         !
 ! D75   D(26,25,28,30)       -174.9281                                         !
 ! D76   D(26,25,28,31)         64.4777                                         !
 ! D77   D(27,25,28,29)         66.6923                                         !
 ! D78   D(27,25,28,30)        -54.7967                                         !
 ! D79   D(27,25,28,31)       -175.3909                                         !
 ! D80   D(25,27,33,34)         17.6384                                         !
 ! D81   D(25,27,33,35)        172.0525                                         !
 ! D82   D(32,27,33,34)       -164.9047                                         !
 ! D83   D(32,27,33,35)        -10.4906                                         !
 ! D84   D(27,33,35,36)        -13.6088                                         !
 ! D85   D(27,33,35,37)       -130.2461                                         !
 ! D86   D(27,33,35,38)        107.6259                                         !
 ! D87   D(34,33,35,36)        142.5818                                         !
 ! D88   D(34,33,35,37)         25.9445                                         !
 ! D89   D(34,33,35,38)        -96.1835                                         !
 ! D90   D(33,35,37,42)        -19.4479                                         !
 ! D91   D(33,35,37,43)        159.1096                                         !
 ! D92   D(36,35,37,42)       -134.6472                                         !
 ! D93   D(36,35,37,43)         43.9103                                         !
 ! D94   D(38,35,37,42)        102.5848                                         !
 ! D95   D(38,35,37,43)        -78.8577                                         !
 ! D96   D(33,35,38,39)        179.5597                                         !
 ! D97   D(33,35,38,40)         59.6038                                         !
 ! D98   D(33,35,38,41)        -60.5587                                         !
 ! D99   D(36,35,38,39)        -60.7498                                         !
 ! D100  D(36,35,38,40)        179.2942                                         !
 ! D101  D(36,35,38,41)         59.1317                                         !
 ! D102  D(37,35,38,39)         61.6906                                         !
 ! D103  D(37,35,38,40)        -58.2654                                         !
 ! D104  D(37,35,38,41)       -178.4279                                         !
 ! D105  D(35,37,43,44)         -4.4327                                         !
 ! D106  D(35,37,43,45)       -157.875                                          !
 ! D107  D(42,37,43,44)        174.0631                                         !
 ! D108  D(42,37,43,45)         20.6207                                         !
 ! D109  D(37,43,45,46)        -76.7311                                         !
 ! D110  D(37,43,45,47)        165.7886                                         !
 ! D111  D(37,43,45,48)         44.4355                                         !
 ! D112  D(44,43,45,46)        128.0293                                         !
 ! D113  D(44,43,45,47)         10.5489                                         !
 ! D114  D(44,43,45,48)       -110.8042                                         !
 ! D115  D(43,45,47,51)        -13.0715                                         !
 ! D116  D(43,45,47,64)        168.9137                                         !
 ! D117  D(46,45,47,51)       -131.5655                                         !
 ! D118  D(46,45,47,64)         50.4197                                         !
 ! D119  D(48,45,47,51)        110.0631                                         !
 ! D120  D(48,45,47,64)        -67.9517                                         !
 ! D121  D(43,45,48,49)        154.6974                                         !
 ! D122  D(43,45,48,50)        -89.5257                                         !
 ! D123  D(43,45,48,52)         30.3387                                         !
 ! D124  D(46,45,48,49)        -82.7032                                         !
 ! D125  D(46,45,48,50)         33.0736                                         !
 ! D126  D(46,45,48,52)        152.9381                                         !
 ! D127  D(47,45,48,49)         36.3124                                         !
 ! D128  D(47,45,48,50)        152.0892                                         !
 ! D129  D(47,45,48,52)        -88.0463                                         !
 ! D130  D(45,47,64,65)         10.3394                                         !
 ! D131  D(45,47,64,66)        159.3006                                         !
 ! D132  D(51,47,64,65)       -167.606                                          !
 ! D133  D(51,47,64,66)        -18.6449                                         !
 ! D134  D(45,48,52,53)       -131.3158                                         !
 ! D135  D(45,48,52,55)         42.7255                                         !
 ! D136  D(49,48,52,53)        104.9163                                         !
 ! D137  D(49,48,52,55)        -81.0424                                         !
 ! D138  D(50,48,52,53)        -11.5579                                         !
 ! D139  D(50,48,52,55)        162.4835                                         !
 ! D140  D(48,52,53,54)         -6.9203                                         !
 ! D141  D(48,52,53,57)        169.5181                                         !
 ! D142  D(55,52,53,54)        178.7764                                         !
 ! D143  D(55,52,53,57)         -4.7852                                         !
 ! D144  D(48,52,55,56)          5.6241                                         !
 ! D145  D(48,52,55,59)       -168.6806                                         !
 ! D146  D(53,52,55,56)        179.7563                                         !
 ! D147  D(53,52,55,59)          5.4516                                         !
 ! D148  D(52,53,57,58)       -177.4325                                         !
 ! D149  D(52,53,57,63)         -0.8524                                         !
 ! D150  D(54,53,57,58)         -1.0033                                         !
 ! D151  D(54,53,57,63)        175.5769                                         !
 ! D152  D(52,55,59,60)        176.1647                                         !
 ! D153  D(52,55,59,63)         -0.4808                                         !
 ! D154  D(56,55,59,60)          1.7583                                         !
 ! D155  D(56,55,59,63)       -174.8873                                         !
 ! D156  D(53,57,63,59)          6.0109                                         !
 ! D157  D(53,57,63,61)       -170.2546                                         !
 ! D158  D(58,57,63,59)       -177.3841                                         !
 ! D159  D(58,57,63,61)          6.3504                                         !
 ! D160  D(55,59,63,57)         -5.3514                                         !
 ! D161  D(55,59,63,61)        170.8845                                         !
 ! D162  D(60,59,63,57)        177.9741                                         !
 ! D163  D(60,59,63,61)         -5.7899                                         !
 ! D164  D(62,61,63,57)        123.3272                                         !
 ! D165  D(62,61,63,59)        -52.9447                                         !
 ! D166  D(47,64,66,67)         -2.3565                                         !
 ! D167  D(47,64,66,68)       -120.1543                                         !
 ! D168  D(47,64,66,69)        119.2903                                         !
 ! D169  D(65,64,66,67)        148.3829                                         !
 ! D170  D(65,64,66,68)         30.5851                                         !
 ! D171  D(65,64,66,69)        -89.9703                                         !
 ! D172  D(64,66,68,72)        -23.9983                                         !
 ! D173  D(64,66,68,83)        157.1586                                         !
 ! D174  D(67,66,68,72)       -139.8705                                         !
 ! D175  D(67,66,68,83)         41.2864                                         !
 ! D176  D(69,66,68,72)         97.9452                                         !
 ! D177  D(69,66,68,83)        -80.8979                                         !
 ! D178  D(64,66,69,70)         61.9137                                         !
 ! D179  D(64,66,69,71)        176.8527                                         !
 ! D180  D(64,66,69,73)        -60.7599                                         !
 ! D181  D(67,66,69,70)       -178.1681                                         !
 ! D182  D(67,66,69,71)        -63.229                                          !
 ! D183  D(67,66,69,73)         59.1583                                         !
 ! D184  D(68,66,69,70)        -56.0721                                         !
 ! D185  D(68,66,69,71)         58.8669                                         !
 ! D186  D(68,66,69,73)       -178.7458                                         !
 ! D187  D(66,68,83,84)          2.083                                          !
 ! D188  D(66,68,83,85)        172.8879                                         !
 ! D189  D(72,68,83,84)       -176.7184                                         !
 ! D190  D(72,68,83,85)         -5.9135                                         !
 ! D191  D(66,69,73,74)         57.1665                                         !
 ! D192  D(66,69,73,75)        174.4933                                         !
 ! D193  D(66,69,73,79)        -61.6854                                         !
 ! D194  D(70,69,73,74)        -64.5576                                         !
 ! D195  D(70,69,73,75)         52.7691                                         !
 ! D196  D(70,69,73,79)        176.5905                                         !
 ! D197  D(71,69,73,74)        178.8894                                         !
 ! D198  D(71,69,73,75)        -63.7839                                         !
 ! D199  D(71,69,73,79)         60.0375                                         !
 ! D200  D(69,73,75,76)         63.1857                                         !
 ! D201  D(69,73,75,77)       -177.2964                                         !
 ! D202  D(69,73,75,78)        -56.9273                                         !
 ! D203  D(74,73,75,76)       -179.8275                                         !
 ! D204  D(74,73,75,77)        -60.3095                                         !
 ! D205  D(74,73,75,78)         60.0595                                         !
 ! D206  D(79,73,75,76)        -61.3197                                         !
 ! D207  D(79,73,75,77)         58.1983                                         !
 ! D208  D(79,73,75,78)        178.5673                                         !
 ! D209  D(69,73,79,80)        -56.8993                                         !
 ! D210  D(69,73,79,81)         64.5187                                         !
 ! D211  D(69,73,79,82)       -175.815                                          !
 ! D212  D(74,73,79,80)       -175.4029                                         !
 ! D213  D(74,73,79,81)        -53.9849                                         !
 ! D214  D(74,73,79,82)         65.6814                                         !
 ! D215  D(75,73,79,80)         66.119                                          !
 ! D216  D(75,73,79,81)       -172.4629                                         !
 ! D217  D(75,73,79,82)        -52.7966                                         !
 ! D218  D(68,83,85,86)        -33.9312                                         !
 ! D219  D(68,83,85,87)       -151.7643                                         !
 ! D220  D(68,83,85,88)         87.6497                                         !
 ! D221  D(84,83,85,86)        137.4969                                         !
 ! D222  D(84,83,85,87)         19.6638                                         !
 ! D223  D(84,83,85,88)       -100.9221                                         !
 ! D224  D(83,85,87,91)        -18.5038                                         !
 ! D225  D(83,85,87,98)        162.4932                                         !
 ! D226  D(86,85,87,91)       -135.3671                                         !
 ! D227  D(86,85,87,98)         45.6299                                         !
 ! D228  D(88,85,87,91)        105.0688                                         !
 ! D229  D(88,85,87,98)        -73.9342                                         !
 ! D230  D(83,85,88,89)         50.7636                                         !
 ! D231  D(83,85,88,90)        166.0025                                         !
 ! D232  D(83,85,88,92)        -74.1287                                         !
 ! D233  D(86,85,88,89)        172.0217                                         !
 ! D234  D(86,85,88,90)        -72.7394                                         !
 ! D235  D(86,85,88,92)         47.1295                                         !
 ! D236  D(87,85,88,89)        -67.8832                                         !
 ! D237  D(87,85,88,90)         47.3557                                         !
 ! D238  D(87,85,88,92)        167.2245                                         !
 ! D239  D(85,87,98,99)          8.7106                                         !
 ! D240  D(85,87,98,100)       165.3625                                         !
 ! D241  D(91,87,98,99)       -170.2512                                         !
 ! D242  D(91,87,98,100)       -13.5992                                         !
 ! D243  D(85,88,92,93)        -41.4751                                         !
 ! D244  D(85,88,92,94)       -158.0069                                         !
 ! D245  D(85,88,92,95)         82.5836                                         !
 ! D246  D(89,88,92,93)       -165.3471                                         !
 ! D247  D(89,88,92,94)         78.1211                                         !
 ! D248  D(89,88,92,95)        -41.2885                                         !
 ! D249  D(90,88,92,93)         78.3396                                         !
 ! D250  D(90,88,92,94)        -38.1922                                         !
 ! D251  D(90,88,92,95)       -157.6018                                         !
 ! D252  D(88,92,95,96)       -166.7991                                         !
 ! D253  D(88,92,95,97)         17.125                                          !
 ! D254  D(93,92,95,96)        -40.2355                                         !
 ! D255  D(93,92,95,97)        143.6886                                         !
 ! D256  D(94,92,95,96)         71.8615                                         !
 ! D257  D(94,92,95,97)       -104.2144                                         !
 ! D258  D(92,95,97,123)       173.4553                                         !
 ! D259  D(96,95,97,123)        -2.6842                                         !
 ! D260  D(87,98,100,101)      -18.4645                                         !
 ! D261  D(87,98,100,102)     -134.9922                                         !
 ! D262  D(87,98,100,103)      102.3892                                         !
 ! D263  D(99,98,100,101)      139.5509                                         !
 ! D264  D(99,98,100,102)       23.0231                                         !
 ! D265  D(99,98,100,103)      -99.5955                                         !
 ! D266  D(98,100,102,106)     168.0925                                         !
 ! D267  D(98,100,102,122)     -13.3929                                         !
 ! D268  D(101,100,102,106)     52.3731                                         !
 ! D269  D(101,100,102,122)   -129.1123                                         !
 ! D270  D(103,100,102,106)    -67.9528                                         !
 ! D271  D(103,100,102,122)    110.5618                                         !
 ! D272  D(98,100,103,104)     159.5991                                         !
 ! D273  D(98,100,103,105)      44.0768                                         !
 ! D274  D(98,100,103,107)     -78.4661                                         !
 ! D275  D(101,100,103,104)    -81.1067                                         !
 ! D276  D(101,100,103,105)    163.371                                          !
 ! D277  D(101,100,103,107)     40.8281                                         !
 ! D278  D(102,100,103,104)     38.3375                                         !
 ! D279  D(102,100,103,105)    -77.1848                                         !
 ! D280  D(102,100,103,107)    160.2724                                         !
 ! D281  D(100,103,107,108)    165.9005                                         !
 ! D282  D(100,103,107,109)     49.3665                                         !
 ! D283  D(100,103,107,110)    -74.8237                                         !
 ! D284  D(104,103,107,108)    -72.1715                                         !
 ! D285  D(104,103,107,109)    171.2945                                         !
 ! D286  D(104,103,107,110)     47.1043                                         !
 ! D287  D(105,103,107,108)     44.9431                                         !
 ! D288  D(105,103,107,109)    -71.5909                                         !
 ! D289  D(105,103,107,110)    164.2189                                         !
 ! D290  D(103,107,110,111)    -52.6752                                         !
 ! D291  D(103,107,110,112)   -170.3801                                         !
 ! D292  D(103,107,110,113)     68.6625                                         !
 ! D293  D(108,107,110,111)     67.6178                                         !
 ! D294  D(108,107,110,112)    -50.0871                                         !
 ! D295  D(108,107,110,113)   -171.0445                                         !
 ! D296  D(109,107,110,111)   -177.1563                                         !
 ! D297  D(109,107,110,112)     65.1387                                         !
 ! D298  D(109,107,110,113)    -55.8186                                         !
 ! D299  D(107,110,113,114)     52.2419                                         !
 ! D300  D(107,110,113,121)   -103.816                                          !
 ! D301  D(111,110,113,114)    175.4385                                         !
 ! D302  D(111,110,113,121)     19.3806                                         !
 ! D303  D(112,110,113,114)    -69.3662                                         !
 ! D304  D(112,110,113,121)    134.5759                                         !
 ! D305  D(110,113,121,115)     14.8781                                         !
 ! D306  D(110,113,121,118)   -167.8076                                         !
 ! D307  D(114,113,121,115)   -141.2934                                         !
 ! D308  D(114,113,121,118)     36.0208                                         !
 ! D309  D(116,115,121,113)   -167.2543                                         !
 ! D310  D(116,115,121,118)     15.7758                                         !
 ! D311  D(117,115,121,113)     74.4269                                         !
 ! D312  D(117,115,121,118)   -102.5431                                         !
 ! D313  D(119,118,121,113)    177.4076                                         !
 ! D314  D(119,118,121,115)     -5.368                                          !
 ! D315  D(120,118,121,113)     38.2643                                         !
 ! D316  D(120,118,121,115)   -144.5113                                         !
 --------------------------------------------------------------------------------
 Symmetry turned off by external request.
 Stoichiometry    C41H61N10O11(1+)
 Framework group  C1[X(C41H61N10O11)]
 Deg. of freedom   363
 Full point group                 C1      NOp   1
                          Input orientation:                          
 ---------------------------------------------------------------------
 Center     Atomic      Atomic             Coordinates (Angstroms)
 Number     Number       Type             X           Y           Z
 ---------------------------------------------------------------------
      1          7           0      -10.450154    4.448318    3.117506
      2          1           0      -10.906247    3.618125    3.593066
      3          1           0      -11.038057    4.840983    2.380313
      4          1           0      -10.260229    5.167809    3.835977
      5          6           0       -9.142777    3.869655    2.628324
      6          1           0       -9.247574    3.680943    1.556158
      7          6           0       -9.082559    2.507541    3.372331
      8          6           0       -7.984042    4.849456    2.901958
      9          1           0       -8.108674    5.715006    2.241144
     10          1           0       -7.051149    4.366999    2.598196
     11          8           0      -10.096735    2.143310    3.987006
     12          6           0       -7.961171    5.293253    4.347814
     13          6           0       -8.567215    6.508271    4.707650
     14          1           0       -8.941495    7.174590    3.931209
     15          6           0       -7.418324    4.479190    5.353331
     16          1           0       -6.936818    3.537232    5.105728
     17          6           0       -8.637595    6.902684    6.046825
     18          1           0       -9.097849    7.850670    6.307818
     19          6           0       -7.485191    4.879830    6.686927
     20          1           0       -7.052131    4.246574    7.455178
     21          6           0       -8.098559    6.084911    7.038385
     22          1           0       -8.145907    6.388760    8.079402
     23          7           0       -7.955719    1.812409    3.273819
     24          1           0       -7.138217    2.213227    2.804913
     25          6           0       -7.778237    0.544332    3.989191
     26          1           0       -8.381537    0.618000    4.901318
     27          6           0       -6.304869    0.477540    4.441960
     28          6           0       -8.283690   -0.638118    3.157386
     29          1           0       -8.310145   -1.555021    3.754168
     30          1           0       -7.653846   -0.806209    2.278811
     31          1           0       -9.307032   -0.437895    2.830267
     32          8           0       -5.700743    1.512810    4.765363
     33          7           0       -5.776478   -0.751883    4.502393
     34          1           0       -6.229428   -1.521453    4.015417
     35          6           0       -4.363733   -1.019079    4.743589
     36          1           0       -3.824131   -0.077429    4.614136
     37          6           0       -3.950310   -2.009346    3.634113
     38          6           0       -4.114459   -1.582619    6.147362
     39          1           0       -3.048720   -1.781077    6.298771
     40          1           0       -4.662375   -2.519617    6.287581
     41          1           0       -4.445483   -0.863956    6.902288
     42          8           0       -4.801345   -2.663085    3.030545
     43          7           0       -2.628488   -2.064171    3.378600
     44          1           0       -1.994915   -1.427788    3.857288
     45          6           0       -2.075406   -2.542019    2.120993
     46          1           0       -2.115602   -3.635661    2.077353
     47          6           0       -0.601492   -2.097213    2.124609
     48          6           0       -2.819533   -1.983861    0.859606
     49          1           0       -2.139807   -1.987032    0.001379
     50          1           0       -3.631909   -2.670748    0.617777
     51          8           0       -0.189275   -1.273179    2.947409
     52          6           0       -3.412650   -0.608445    1.065535
     53          6           0       -4.740978   -0.368512    0.697023
     54          1           0       -5.289333   -1.139997    0.165745
     55          6           0       -2.719392    0.416435    1.728383
     56          1           0       -1.688376    0.269893    2.035182
     57          6           0       -5.394403    0.807004    1.061088
     58          1           0       -6.437953    0.962533    0.804157
     59          6           0       -3.365787    1.592441    2.111425
     60          1           0       -2.838811    2.354257    2.678144
     61          8           0       -5.423815    2.833639    2.360764
     62          1           0       -5.257411    2.787541    3.327252
     63          6           0       -4.717315    1.756402    1.822997
     64          7           0        0.159858   -2.638331    1.154111
     65          1           0       -0.295726   -3.157315    0.407075
     66          6           0        1.413561   -2.032242    0.723126
     67          1           0        1.540815   -1.107360    1.289927
     68          6           0        1.238920   -1.720690   -0.769593
     69          6           0        2.620915   -2.963042    0.937020
     70          1           0        2.467883   -3.862329    0.326100
     71          1           0        3.514288   -2.462442    0.538769
     72          8           0        0.422825   -2.347171   -1.451692
     73          6           0        2.870512   -3.365436    2.399092
     74          1           0        1.954542   -3.843704    2.772633
     75          6           0        4.006023   -4.394584    2.462696
     76          1           0        4.947256   -3.961224    2.101045
     77          1           0        4.170460   -4.732837    3.491485
     78          1           0        3.785498   -5.275448    1.848742
     79          6           0        3.175044   -2.154005    3.289776
     80          1           0        4.038660   -1.594966    2.905087
     81          1           0        2.320439   -1.474758    3.359119
     82          1           0        3.420765   -2.478943    4.306873
     83          7           0        2.039962   -0.759207   -1.257162
     84          1           0        2.734063   -0.298613   -0.676669
     85          6           0        2.129921   -0.427302   -2.664781
     86          1           0        1.995752   -1.347020   -3.245645
     87          6           0        3.548757    0.123274   -2.881179
     88          6           0        1.092581    0.620384   -3.135822
     89          1           0        1.132736    1.481811   -2.462322
     90          1           0        1.408981    0.975465   -4.123368
     91          8           0        4.222264    0.524430   -1.924522
     92          6           0       -0.346219    0.103328   -3.268889
     93          1           0       -0.372774   -0.892395   -3.719329
     94          1           0       -0.892107    0.764298   -3.955770
     95          6           0       -1.215742    0.031497   -2.032151
     96          8           0       -2.268331   -0.567754   -1.985694
     97          8           0       -0.758334    0.769535   -0.990413
     98          7           0        3.961654    0.145853   -4.162144
     99          1           0        3.306905   -0.059676   -4.911398
    100          6           0        5.122978    0.903143   -4.596137
    101          1           0        5.330550    1.638719   -3.824291
    102          6           0        4.754894    1.646018   -5.881255
    103          6           0        6.366506    0.015208   -4.819715
    104          1           0        7.070400    0.543672   -5.470863
    105          1           0        6.040325   -0.879045   -5.363415
    106          8           0        5.631380    2.569674   -6.258004
    107          6           0        7.082515   -0.379135   -3.525408
    108          1           0        7.781907   -1.195875   -3.744663
    109          1           0        6.363077   -0.770463   -2.796473
    110          6           0        7.902750    0.752439   -2.889499
    111          1           0        8.587404    1.181782   -3.624741
    112          1           0        8.508309    0.331718   -2.076844
    113          7           0        7.135448    1.862537   -2.332009
    114          1           0        6.399253    1.616936   -1.679011
    115          7           0        7.318690    3.268777   -4.193229
    116          1           0        7.358285    4.265715   -4.407202
    117          1           0        6.336877    2.705171   -5.548535
    118          7           0        6.466340    4.043149   -2.104234
    119          1           0        6.384777    4.975656   -2.485570
    120          1           0        6.761163    4.016056   -1.136328
    121          6           0        7.007825    3.081857   -2.942480
    122          8           0        3.749697    1.380011   -6.511577
    123          1           0       -1.453131    0.724478   -0.302431
 ---------------------------------------------------------------------
 Rotational constants (GHZ):           0.0613794           0.0141522           0.0129422
 Standard basis: 6-31G(d) (6D, 7F)
  1052 basis functions,  1980 primitive gaussians,  1052 cartesian basis functions
   232 alpha electrons      232 beta electrons
       nuclear repulsion energy      9464.8629116572 Hartrees.
 NAtoms=  123 NActive=  123 NUniq=  123 SFac= 1.00D+00 NAtFMM=   60 NAOKFM=T Big=T
 Integral buffers will be    131072 words long.
 Raffenetti 2 integral format.
 Two-electron integral symmetry is turned off.
 Nuclear repulsion after empirical dispersion term =     9464.5701101075 Hartrees.
 One-electron integrals computed using PRISM.
 NBasis=  1052 RedAO= T EigKep=  4.11D-04  NBF=  1052
 NBsUse=  1052 1.00D-06 EigRej= -1.00D+00 NBFU=  1052
 Initial guess from the checkpoint file:  "conf-217.chk"
 B after Tr=     0.000000    0.000000    0.000000
         Rot=    1.000000    0.000000    0.000000    0.000000 Ang=   0.00 deg.
 Requested convergence on RMS density matrix=1.00D-08 within 128 cycles.
 Requested convergence on MAX density matrix=1.00D-06.
 Requested convergence on             energy=1.00D-06.
 No special actions if energy rises.
 SCF Done:  E(RB3LYP) =  -2974.32683721     A.U. after    2 cycles
            NFock=  2  Conv=0.63D-08     -V/T= 2.0093
 Hyperfine terms turned off by default for NAtoms > 100.

 **********************************************************************

            Population analysis using the SCF Density.

 **********************************************************************

 Alpha  occ. eigenvalues --  -19.26909 -19.25935 -19.24855 -19.22004 -19.21449
 Alpha  occ. eigenvalues --  -19.20060 -19.19895 -19.18997 -19.18659 -19.18416
 Alpha  occ. eigenvalues --  -19.17281 -14.58237 -14.48359 -14.45418 -14.43372
 Alpha  occ. eigenvalues --  -14.43250 -14.42440 -14.42293 -14.41272 -14.40420
 Alpha  occ. eigenvalues --  -14.35550 -10.42576 -10.39814 -10.39273 -10.37308
 Alpha  occ. eigenvalues --  -10.36789 -10.36747 -10.35753 -10.35527 -10.35329
 Alpha  occ. eigenvalues --  -10.35128 -10.34313 -10.33093 -10.32620 -10.31739
 Alpha  occ. eigenvalues --  -10.31475 -10.31145 -10.30112 -10.30100 -10.29788
 Alpha  occ. eigenvalues --  -10.29459 -10.29085 -10.29011 -10.28987 -10.28269
 Alpha  occ. eigenvalues --  -10.28047 -10.27495 -10.27479 -10.27301 -10.27037
 Alpha  occ. eigenvalues --  -10.26972 -10.26779 -10.26244 -10.26193 -10.25691
 Alpha  occ. eigenvalues --  -10.25576 -10.24706 -10.24135 -10.24001 -10.23528
 Alpha  occ. eigenvalues --  -10.22133 -10.21868  -1.18389  -1.15601  -1.14667
 Alpha  occ. eigenvalues --   -1.13436  -1.13007  -1.12540  -1.12238  -1.11457
 Alpha  occ. eigenvalues --   -1.10843  -1.09987  -1.06369  -1.05303  -1.05089
 Alpha  occ. eigenvalues --   -1.04045  -1.02163  -1.00524  -1.00178  -0.99309
 Alpha  occ. eigenvalues --   -0.99071  -0.96672  -0.94768  -0.93732  -0.92328
 Alpha  occ. eigenvalues --   -0.90560  -0.88754  -0.87770  -0.86696  -0.86118
 Alpha  occ. eigenvalues --   -0.85494  -0.84849  -0.84706  -0.84076  -0.83186
 Alpha  occ. eigenvalues --   -0.82316  -0.80856  -0.79616  -0.79008  -0.77710
 Alpha  occ. eigenvalues --   -0.76543  -0.74651  -0.73614  -0.73459  -0.73030
 Alpha  occ. eigenvalues --   -0.72651  -0.72043  -0.71796  -0.71029  -0.70344
 Alpha  occ. eigenvalues --   -0.70168  -0.69810  -0.68640  -0.68186  -0.67232
 Alpha  occ. eigenvalues --   -0.66984  -0.66307  -0.65821  -0.65748  -0.65508
 Alpha  occ. eigenvalues --   -0.64772  -0.64412  -0.64237  -0.63595  -0.63219
 Alpha  occ. eigenvalues --   -0.62796  -0.62561  -0.61311  -0.61066  -0.60276
 Alpha  occ. eigenvalues --   -0.59836  -0.59618  -0.58706  -0.58333  -0.57832
 Alpha  occ. eigenvalues --   -0.57423  -0.56667  -0.56438  -0.56190  -0.55995
 Alpha  occ. eigenvalues --   -0.55640  -0.55408  -0.54733  -0.54706  -0.54309
 Alpha  occ. eigenvalues --   -0.54041  -0.53915  -0.53587  -0.53437  -0.53097
 Alpha  occ. eigenvalues --   -0.52999  -0.52693  -0.52445  -0.52277  -0.51944
 Alpha  occ. eigenvalues --   -0.51822  -0.51588  -0.51352  -0.51292  -0.51182
 Alpha  occ. eigenvalues --   -0.50900  -0.50607  -0.50347  -0.50227  -0.49961
 Alpha  occ. eigenvalues --   -0.49766  -0.49511  -0.49243  -0.48926  -0.48736
 Alpha  occ. eigenvalues --   -0.48610  -0.48483  -0.48285  -0.47903  -0.47529
 Alpha  occ. eigenvalues --   -0.47070  -0.46789  -0.46561  -0.46403  -0.46267
 Alpha  occ. eigenvalues --   -0.46057  -0.45945  -0.45631  -0.45364  -0.44741
 Alpha  occ. eigenvalues --   -0.44622  -0.44591  -0.44474  -0.44330  -0.44045
 Alpha  occ. eigenvalues --   -0.43931  -0.43698  -0.43441  -0.43246  -0.43099
 Alpha  occ. eigenvalues --   -0.43022  -0.42379  -0.42273  -0.41819  -0.41636
 Alpha  occ. eigenvalues --   -0.41291  -0.40856  -0.40579  -0.40362  -0.40095
 Alpha  occ. eigenvalues --   -0.39366  -0.39165  -0.38349  -0.38193  -0.37698
 Alpha  occ. eigenvalues --   -0.37687  -0.36747  -0.36122  -0.36045  -0.35727
 Alpha  occ. eigenvalues --   -0.35299  -0.34587  -0.34583  -0.34086  -0.33694
 Alpha  occ. eigenvalues --   -0.33625  -0.33523  -0.33309  -0.32784  -0.32508
 Alpha  occ. eigenvalues --   -0.32289  -0.31806  -0.31564  -0.31439  -0.30981
 Alpha  occ. eigenvalues --   -0.30803  -0.28845
 Alpha virt. eigenvalues --   -0.12129  -0.11374  -0.11064  -0.09625  -0.08666
 Alpha virt. eigenvalues --   -0.07936  -0.07780  -0.05867  -0.05412  -0.05019
 Alpha virt. eigenvalues --   -0.04211  -0.03439  -0.03376  -0.02505  -0.02183
 Alpha virt. eigenvalues --   -0.01690  -0.00791   0.00013   0.00301   0.01015
 Alpha virt. eigenvalues --    0.01126   0.01652   0.01959   0.02340   0.02625
 Alpha virt. eigenvalues --    0.02836   0.03005   0.03534   0.04165   0.04444
 Alpha virt. eigenvalues --    0.04756   0.05083   0.05454   0.05561   0.05853
 Alpha virt. eigenvalues --    0.05966   0.06014   0.06319   0.06444   0.06583
 Alpha virt. eigenvalues --    0.06795   0.07067   0.07258   0.07453   0.07570
[...]
 Alpha virt. eigenvalues --    0.94108   0.94319   0.94373   0.94922   0.95233
 Alpha virt. eigenvalues --    0.96108   0.96417   0.96664   0.96933   0.97658
 Alpha virt. eigenvalues --    0.98342   0.98478   0.99293   0.99880   1.00003
 Alpha virt. eigenvalues --    1.00155   1.01525   1.01731   1.02269   1.02312
 Alpha virt. eigenvalues --    1.02999   1.03116   1.03336   1.03885   1.04184
 Alpha virt. eigenvalues --    1.04562   1.04954   1.05283   1.05715   1.05827
 Alpha virt. eigenvalues --    1.06131   1.07058   1.07446   1.08157   1.08363
 Alpha virt. eigenvalues --    1.08952   1.09135   1.09555   1.10090   1.10299
 Alpha virt. eigenvalues --    1.10821   1.12088   1.12393   1.13253   1.13355
 Alpha virt. eigenvalues --    1.13513   1.13695   1.14253   1.14797   1.15082
 Alpha virt. eigenvalues --    1.16017   1.16456   1.16734   1.17298   1.17944
 Alpha virt. eigenvalues --    1.18078   1.19120   1.20040   1.20251   1.20801
 Alpha virt. eigenvalues --    1.21198   1.21869   1.22919   1.23121   1.23259
 Alpha virt. eigenvalues --    1.24048   1.25006   1.25237   1.25665   1.26914
 Alpha virt. eigenvalues --    1.27737   1.27872   1.28521   1.29011   1.29578
 Alpha virt. eigenvalues --    1.30478   1.30770   1.31258   1.31440   1.31583
 Alpha virt. eigenvalues --    1.31879   1.33386   1.33928   1.34342   1.34506
 Alpha virt. eigenvalues --    1.35475   1.35690   1.35967   1.36273   1.36585
 Alpha virt. eigenvalues --    1.36866   1.37483   1.37793   1.38235   1.38471
 Alpha virt. eigenvalues --    1.39033   1.39161   1.39719   1.40032   1.40634
 Alpha virt. eigenvalues --    1.41178   1.41237   1.41529   1.41700   1.41953
 Alpha virt. eigenvalues --    1.42364   1.42856   1.43118   1.43531   1.44089
 Alpha virt. eigenvalues --    1.44618   1.45062   1.45720   1.46115   1.46594
 Alpha virt. eigenvalues --    1.47774   1.48403   1.49089   1.49613   1.49773
 Alpha virt. eigenvalues --    1.50332   1.51176   1.53417   1.54071   1.54592
 Alpha virt. eigenvalues --    1.54829   1.55376   1.56478   1.56901   1.57483
 Alpha virt. eigenvalues --    1.58500   1.58728   1.59490   1.60233   1.60587
 Alpha virt. eigenvalues --    1.61129   1.61342   1.62601   1.62983   1.63834
 Alpha virt. eigenvalues --    1.63999   1.64370   1.64676   1.65296   1.65831
 Alpha virt. eigenvalues --    1.66102   1.66946   1.67230   1.67928   1.68206
 Alpha virt. eigenvalues --    1.68660   1.68888   1.69080   1.69431   1.69913
 Alpha virt. eigenvalues --    1.70478   1.70682   1.70697   1.71220   1.71490
 Alpha virt. eigenvalues --    1.71764   1.71883   1.72282   1.72724   1.72837
 Alpha virt. eigenvalues --    1.73030   1.73527   1.73841   1.74143   1.74297
 Alpha virt. eigenvalues --    1.74450   1.75198   1.75254   1.75558   1.75869
 Alpha virt. eigenvalues --    1.76149   1.76382   1.76683   1.77066   1.77523
 Alpha virt. eigenvalues --    1.77775   1.78001   1.78236   1.78520   1.78800
 Alpha virt. eigenvalues --    1.79700   1.79858   1.80147   1.80733   1.80970
 Alpha virt. eigenvalues --    1.81192   1.81668   1.82014   1.82211   1.82355
 Alpha virt. eigenvalues --    1.82741   1.83146   1.83795   1.83961   1.84392
 Alpha virt. eigenvalues --    1.84432   1.84676   1.84913   1.85273   1.85644
 Alpha virt. eigenvalues --    1.86108   1.86461   1.86865   1.87099   1.87467
 Alpha virt. eigenvalues --    1.87977   1.88138   1.88445   1.88872   1.89151
 Alpha virt. eigenvalues --    1.89454   1.90155   1.90411   1.90816   1.91344
 Alpha virt. eigenvalues --    1.91428   1.91754   1.92023   1.92663   1.93131
 Alpha virt. eigenvalues --    1.93290   1.93529   1.93749   1.94455   1.94587
 Alpha virt. eigenvalues --    1.94772   1.95102   1.95593   1.95981   1.96380
 Alpha virt. eigenvalues --    1.96545   1.97201   1.97470   1.98375   1.98608
 Alpha virt. eigenvalues --    1.99026   1.99628   2.00124   2.00148   2.00644
 Alpha virt. eigenvalues --    2.01428   2.01616   2.01719   2.01869   2.02593
 Alpha virt. eigenvalues --    2.04055   2.04132   2.04372   2.04535   2.04969
 Alpha virt. eigenvalues --    2.05274   2.05646   2.06253   2.06337   2.06639
 Alpha virt. eigenvalues --    2.07047   2.07470   2.08208   2.08730   2.09301
 Alpha virt. eigenvalues --    2.10392   2.10828   2.11329   2.11885   2.12109
 Alpha virt. eigenvalues --    2.12590   2.13538   2.14281   2.14673   2.15902
 Alpha virt. eigenvalues --    2.16348   2.17525   2.17631   2.17841   2.18020
 Alpha virt. eigenvalues --    2.18367   2.19030   2.19337   2.19639   2.20186
 Alpha virt. eigenvalues --    2.20918   2.21371   2.21996   2.22276   2.22456
 Alpha virt. eigenvalues --    2.23137   2.23982   2.24235   2.24725   2.24950
 Alpha virt. eigenvalues --    2.25253   2.25897   2.26439   2.26943   2.27243
 Alpha virt. eigenvalues --    2.27625   2.28037   2.28453   2.28711   2.29286
 Alpha virt. eigenvalues --    2.29460   2.30252   2.31264   2.31414   2.31801
 Alpha virt. eigenvalues --    2.32568   2.33230   2.33895   2.34311   2.34911
 Alpha virt. eigenvalues --    2.35196   2.35700   2.36392   2.37226   2.37859
 Alpha virt. eigenvalues --    2.38274   2.38535   2.39078   2.39564   2.40111
 Alpha virt. eigenvalues --    2.40528   2.41608   2.41801   2.43245   2.43422
 Alpha virt. eigenvalues --    2.43612   2.44182   2.44937   2.45618   2.46650
 Alpha virt. eigenvalues --    2.46788   2.46854   2.46899   2.47775   2.48230
 Alpha virt. eigenvalues --    2.48618   2.48920   2.49241   2.50073   2.50762
 Alpha virt. eigenvalues --    2.51093   2.52496   2.52953   2.54443   2.54630
 Alpha virt. eigenvalues --    2.54872   2.55197   2.55274   2.56062   2.56825
 Alpha virt. eigenvalues --    2.57701   2.58768   2.58931   2.59648   2.60283
 Alpha virt. eigenvalues --    2.60901   2.60995   2.61100   2.61432   2.62189
 Alpha virt. eigenvalues --    2.62544   2.63416   2.63809   2.64047   2.64663
 Alpha virt. eigenvalues --    2.65306   2.65954   2.66183   2.67022   2.67380
 Alpha virt. eigenvalues --    2.67924   2.68967   2.69166   2.69567   2.70409
 Alpha virt. eigenvalues --    2.70493   2.72064   2.72451   2.74233   2.76255
 Alpha virt. eigenvalues --    2.76630   2.78318   2.79213   2.79955   2.80258
 Alpha virt. eigenvalues --    2.81233   2.81714   2.81884   2.83200   2.84142
 Alpha virt. eigenvalues --    2.85450   2.85786   2.87361   2.88678   2.89012
 Alpha virt. eigenvalues --    2.90038   2.92001   2.93176   2.93391   2.93797
 Alpha virt. eigenvalues --    2.94432   2.94979   2.95755   2.96466   2.97358
 Alpha virt. eigenvalues --    2.99466   3.03114   3.03333   3.04090   3.05510
 Alpha virt. eigenvalues --    3.06186   3.06470   3.08830   3.13913   3.14490
 Alpha virt. eigenvalues --    3.16351   3.30272   3.33922   3.70026   3.74869
 Alpha virt. eigenvalues --    3.88734   3.90755   3.91736   3.93691   3.94942
 Alpha virt. eigenvalues --    3.95418   3.95947   3.97325   3.99131   3.99804
 Alpha virt. eigenvalues --    4.01194   4.02446   4.03193   4.04102   4.05182
 Alpha virt. eigenvalues --    4.05642   4.08023   4.09559   4.09714   4.11680
 Alpha virt. eigenvalues --    4.11920   4.12503   4.12723   4.13041   4.14719
 Alpha virt. eigenvalues --    4.16485   4.17897   4.19652   4.21608   4.21697
 Alpha virt. eigenvalues --    4.24696   4.25186   4.27547   4.27612   4.28191
 Alpha virt. eigenvalues --    4.29969   4.30577   4.32223   4.32408   4.33615
 Alpha virt. eigenvalues --    4.36276   4.37159   4.37650   4.37864   4.38890
 Alpha virt. eigenvalues --    4.40480   4.44499   4.48600   4.50286   4.50666
 Alpha virt. eigenvalues --    4.52023   4.53561   4.54624   4.58105   4.58915
 Alpha virt. eigenvalues --    4.61379   4.63128   4.63945   4.66363   4.70879
          Condensed to atoms (all electrons):
 Mulliken charges:
               1
     1  N   -0.757621
     2  H    0.432003
     3  H    0.407340
     4  H    0.403754
     5  C   -0.114565
     6  H    0.222834
     7  C    0.654600
     8  C   -0.411768
     9  H    0.180741
    10  H    0.237022
    11  O   -0.546016
    12  C    0.126174
    13  C   -0.235947
    14  H    0.142014
    15  C   -0.192938
    16  H    0.180648
    17  C   -0.118575
    18  H    0.161963
    19  C   -0.133305
    20  H    0.163979
    21  C   -0.122938
    22  H    0.164136
    23  N   -0.631473
    24  H    0.400420
    25  C   -0.048377
    26  H    0.215385
    27  C    0.614295
    28  C   -0.487264
    29  H    0.179849
    30  H    0.181653
    31  H    0.182350
    32  O   -0.569534
    33  N   -0.594031
    34  H    0.373611
    35  C   -0.070266
    36  H    0.186066
    37  C    0.636054
    38  C   -0.442054
    39  H    0.169025
    40  H    0.170661
    41  H    0.173776
    42  O   -0.543897
    43  N   -0.620048
    44  H    0.359202
    45  C   -0.029284
    46  H    0.191008
    47  C    0.606611
    48  C   -0.395731
    49  H    0.208702
    50  H    0.186714
    51  O   -0.541131
    52  C    0.175716
    53  C   -0.159335
    54  H    0.155468
    55  C   -0.274727
    56  H    0.180194
    57  C   -0.180481
    58  H    0.127703
    59  C   -0.171235
    60  H    0.151633
    61  O   -0.711257
    62  H    0.451059
    63  C    0.341825
    64  N   -0.583099
    65  H    0.358986
    66  C   -0.096635
    67  H    0.185381
    68  C    0.640077
    69  C   -0.255176
    70  H    0.148369
    71  H    0.141042
    72  O   -0.555739
    73  C   -0.067042
    74  H    0.134186
    75  C   -0.444336
    76  H    0.142276
    77  H    0.150042
    78  H    0.144904
    79  C   -0.469605
    80  H    0.132452
    81  H    0.173531
    82  H    0.148119
    83  N   -0.604182
    84  H    0.355227
    85  C   -0.051435
    86  H    0.182607
    87  C    0.619117
    88  C   -0.274635
    89  H    0.175000
    90  H    0.164208
    91  O   -0.561512
    92  C   -0.360710
    93  H    0.200191
    94  H    0.186149
    95  C    0.606772
    96  O   -0.479913
    97  O   -0.592110
    98  N   -0.594135
    99  H    0.353855
   100  C   -0.099066
   101  H    0.195513
   102  C    0.607112
   103  C   -0.263669
   104  H    0.167079
   105  H    0.153042
   106  O   -0.604563
   107  C   -0.279432
   108  H    0.147498
   109  H    0.154571
   110  C   -0.129949
   111  H    0.186078
   112  H    0.150802
   113  N   -0.598245
   114  H    0.352380
   115  N   -0.721422
   116  H    0.291449
   117  H    0.466746
   118  N   -0.748668
   119  H    0.334401
   120  H    0.337858
   121  C    0.622074
   122  O   -0.483571
   123  H    0.417369
 Sum of Mulliken charges =   1.00000
 Mulliken charges with hydrogens summed into heavy atoms:
               1
     1  N    0.485475
     5  C    0.108269
     7  C    0.654600
     8  C    0.005995
    11  O   -0.546016
    12  C    0.126174
    13  C   -0.093933
    15  C   -0.012291
    17  C    0.043388
    19  C    0.030674
    21  C    0.041197
    23  N   -0.231053
    25  C    0.167008
    27  C    0.614295
    28  C    0.056588
    32  O   -0.569534
    33  N   -0.220421
    35  C    0.115800
    37  C    0.636054
    38  C    0.071407
    42  O   -0.543897
    43  N   -0.260846
    45  C    0.161724
    47  C    0.606611
    48  C   -0.000315
    51  O   -0.541131
    52  C    0.175716
    53  C   -0.003867
    55  C   -0.094533
    57  C   -0.052778
    59  C   -0.019601
    61  O   -0.260199
    63  C    0.341825
    64  N   -0.224114
    66  C    0.088746
    68  C    0.640077
    69  C    0.034235
    72  O   -0.555739
    73  C    0.067144
    75  C   -0.007114
    79  C   -0.015503
    83  N   -0.248955
    85  C    0.131172
    87  C    0.619117
    88  C    0.064573
    91  O   -0.561512
    92  C    0.025629
    95  C    0.606772
    96  O   -0.479913
    97  O   -0.174741
    98  N   -0.240281
   100  C    0.096447
   102  C    0.607112
   103  C    0.056452
   106  O   -0.137817
   107  C    0.022636
   110  C    0.206931
   113  N   -0.245865
   115  N   -0.429972
   118  N   -0.076408
   121  C    0.622074
   122  O   -0.483571
 Electronic spatial extent (au):  <R**2>=          85877.7396
 Charge=              1.0000 electrons
 Dipole moment (field-independent basis, Debye):
    X=            -27.8359    Y=             16.0920    Z=             15.9461  Tot=             35.8897
 Quadrupole moment (field-independent basis, Debye-Ang):
   XX=             22.8570   YY=           -254.2835   ZZ=           -331.8445
   XY=           -144.2920   XZ=           -112.3608   YZ=             54.3404
 Traceless Quadrupole moment (field-independent basis, Debye-Ang):
   XX=            210.6140   YY=            -66.5265   ZZ=           -144.0875
   XY=           -144.2920   XZ=           -112.3608   YZ=             54.3404
 Octapole moment (field-independent basis, Debye-Ang**2):
  XXX=          -1444.4830  YYY=           -112.3172  ZZZ=           -270.8879  XYY=           -177.5225
  XXY=           1501.1567  XXZ=            676.5096  XZZ=            -59.2824  YZZ=            -87.3997
  YYZ=             13.5246  XYZ=           -496.6397
 Hexadecapole moment (field-independent basis, Debye-Ang**3):
 XXXX=         -31669.7017 YYYY=         -12762.4866 ZZZZ=         -28243.2320 XXXY=          -9259.6088
 XXXZ=           7667.5855 YYYX=           2421.5109 YYYZ=           -168.0248 ZZZX=          15937.1538
 ZZZY=            407.0668 XXYY=          -4279.1529 XXZZ=         -12579.1472 YYZZ=          -5786.1958
 XXYZ=           4558.6576 YYXZ=           2376.4290 ZZXY=           -582.5867
 N-N= 9.464570110107D+03 E-N=-2.582368651483D+04  KE= 2.946880953508D+03
 Unable to Open any file for archive entry.
 1\1\GINC-SKL-133\SP\RB3LYP\6-31G(d)\C41H61N10O11(1+)\KENGMITH\24-Jul-2
 022\0\\# B3LYP/6-31G* empiricaldispersion=gd3bj guess=read geom=check 
 nosymm integral(ultrafinegrid)\\Candidate Structure: Conf:217 Charge c
 alc in gas phase\\1,1\N,0,-10.4501536721,4.4483180748,3.117506296\H,0,
 -10.9062467304,3.6181246504,3.5930663607\H,0,-11.0380567474,4.84098277
 14,2.3803126291\H,0,-10.2602293465,5.1678086161,3.8359773543\C,0,-9.14
 27769989,3.8696552936,2.6283243601\H,0,-9.2475736201,3.680943103,1.556
 158397\C,0,-9.082558747,2.5075411247,3.3723305226\C,0,-7.9840420725,4.
 8494563293,2.9019575522\H,0,-8.1086736644,5.7150058357,2.2411443242\H,
 0,-7.0511485566,4.3669989194,2.5981957854\O,0,-10.0967345966,2.1433099
 819,3.9870059065\C,0,-7.9611711988,5.2932525842,4.3478138354\C,0,-8.56
 72147778,6.5082713118,4.7076503118\H,0,-8.9414945579,7.1745895123,3.93
 12090607\C,0,-7.4183236047,4.4791896294,5.3533311344\H,0,-6.9368184633
 ,3.5372324031,5.1057276238\C,0,-8.6375954967,6.9026836416,6.0468250213
 \H,0,-9.0978485623,7.8506696393,6.3078182289\C,0,-7.4851910869,4.87982
 99042,6.6869270761\H,0,-7.0521312632,4.2465740041,7.4551777842\C,0,-8.
 0985592684,6.0849113641,7.038385492\H,0,-8.1459070287,6.3887604952,8.0
 79402391\N,0,-7.9557190113,1.8124091713,3.2738194247\H,0,-7.1382172654
 ,2.2132272083,2.8049128006\C,0,-7.7782369326,0.5443324994,3.9891905006
 \H,0,-8.3815365814,0.6179997522,4.9013180139\C,0,-6.3048687174,0.47753
 97204,4.4419600432\C,0,-8.2836900735,-0.638117839,3.1573863253\H,0,-8.
 3101454875,-1.5550213265,3.7541678006\H,0,-7.653846013,-0.8062089244,2
 .2788106338\H,0,-9.3070320048,-0.4378952715,2.8302669955\O,0,-5.700743
 3061,1.5128104278,4.7653634761\N,0,-5.7764778132,-0.7518834908,4.50239
 34794\H,0,-6.2294281892,-1.5214529182,4.0154167391\C,0,-4.3637329306,-
 1.0190789102,4.7435885196\H,0,-3.8241308754,-0.077429147,4.6141358573\
 C,0,-3.9503096919,-2.0093457271,3.6341128811\C,0,-4.1144594427,-1.5826
 194836,6.1473616882\H,0,-3.0487202329,-1.7810765367,6.2987711199\H,0,-
 4.6623750332,-2.5196171195,6.2875811215\H,0,-4.4454834998,-0.863955632
 ,6.9022880914\O,0,-4.8013451307,-2.663084934,3.0305453688\N,0,-2.62848
 81105,-2.0641706908,3.3786001396\H,0,-1.994914816,-1.4277883214,3.8572
 878389\C,0,-2.0754061386,-2.542018533,2.1209934466\H,0,-2.1156015006,-
 3.6356614067,2.0773526407\C,0,-0.6014920825,-2.0972129526,2.1246093462
 \C,0,-2.8195334542,-1.9838609949,0.8596062637\H,0,-2.1398069203,-1.987
 0316144,0.0013789865\H,0,-3.6319093612,-2.6707483015,0.6177766639\O,0,
 -0.1892745828,-1.2731794926,2.9474094783\C,0,-3.4126504559,-0.60844542
 99,1.0655351275\C,0,-4.7409783478,-0.3685122043,0.6970227539\H,0,-5.28
 93330307,-1.1399968211,0.1657446803\C,0,-2.7193916983,0.4164347152,1.7
 283827818\H,0,-1.6883757312,0.269893373,2.0351821102\C,0,-5.3944026028
 ,0.807004197,1.0610879104\H,0,-6.4379526377,0.9625329743,0.8041571276\
 C,0,-3.3657874925,1.5924414299,2.1114251756\H,0,-2.8388109407,2.354257
 1869,2.6781439771\O,0,-5.4238145365,2.8336386756,2.3607636582\H,0,-5.2
 574111848,2.7875406227,3.3272517453\C,0,-4.7173152435,1.7564020573,1.8
 229970055\N,0,0.159857993,-2.6383313422,1.1541105607\H,0,-0.295725965,
 -3.1573147319,0.4070747796\C,0,1.4135613335,-2.0322417709,0.723125748\
 H,0,1.5408152669,-1.107360213,1.289926682\C,0,1.2389199553,-1.72069012
 91,-0.7695925791\C,0,2.6209150965,-2.9630420636,0.9370201841\H,0,2.467
 8827814,-3.8623293553,0.3261002032\H,0,3.5142882807,-2.4624422443,0.53
 87691571\O,0,0.4228254004,-2.3471713197,-1.4516916955\C,0,2.8705123988
 ,-3.3654362189,2.3990915259\H,0,1.954542318,-3.8437036421,2.772632777\
 C,0,4.0060225152,-4.3945844467,2.4626958057\H,0,4.9472558832,-3.961223
 7042,2.1010449594\H,0,4.170459642,-4.7328367107,3.491485151\H,0,3.7854
 980821,-5.2754482839,1.8487416195\C,0,3.1750440666,-2.1540047842,3.289
 7763558\H,0,4.0386602436,-1.5949663516,2.9050865702\H,0,2.3204390185,-
 1.4747578818,3.3591187548\H,0,3.4207651529,-2.47894349,4.3068727158\N,
 0,2.0399617821,-0.7592068068,-1.257162121\H,0,2.7340629427,-0.29861272
 18,-0.6766687751\C,0,2.1299208519,-0.4273015331,-2.6647813615\H,0,1.99
 57516343,-1.3470200491,-3.2456447968\C,0,3.5487569805,0.1232735342,-2.
 8811785184\C,0,1.0925807987,0.6203838656,-3.135821898\H,0,1.13273612,1
 .4818108904,-2.462321727\H,0,1.4089806859,0.9754653489,-4.1233679156\O
 ,0,4.2222643711,0.5244302382,-1.9245223385\C,0,-0.3462193818,0.1033278
 051,-3.2688888182\H,0,-0.3727741749,-0.8923947048,-3.7193290573\H,0,-0
 .8921071344,0.7642977123,-3.9557697797\C,0,-1.2157420721,0.0314965793,
 -2.0321506903\O,0,-2.2683314139,-0.5677540848,-1.9856943023\O,0,-0.758
 333829,0.7695354943,-0.9904134994\N,0,3.9616544552,0.145852793,-4.1621
 435092\H,0,3.3069047993,-0.0596756725,-4.9113976236\C,0,5.1229779679,0
 .903143142,-4.5961369602\H,0,5.3305502903,1.638719241,-3.8242907616\C,
 0,4.7548939933,1.6460183306,-5.881255099\C,0,6.3665061244,0.0152080515
 ,-4.8197148624\H,0,7.0703996239,0.5436719172,-5.4708628615\H,0,6.04032
 47892,-0.8790451369,-5.3634149296\O,0,5.6313797603,2.5696738061,-6.258
 0036369\C,0,7.0825152411,-0.3791351441,-3.5254081099\H,0,7.7819065195,
 -1.1958745032,-3.7446626798\H,0,6.363077454,-0.7704631241,-2.796473267
 \C,0,7.9027500168,0.752439379,-2.8894994524\H,0,8.5874037595,1.1817819
 886,-3.6247405428\H,0,8.5083089073,0.3317182019,-2.0768437952\N,0,7.13
 54481815,1.8625368152,-2.3320093452\H,0,6.3992525132,1.6169355547,-1.6
 79011171\N,0,7.3186900345,3.2687770965,-4.1932292559\H,0,7.3582854692,
 4.2657153419,-4.407201944\H,0,6.3368765861,2.7051714648,-5.5485348259\
 N,0,6.4663402279,4.0431493911,-2.1042343756\H,0,6.3847772151,4.9756564
 205,-2.4855697876\H,0,6.7611627165,4.0160556008,-1.1363275829\C,0,7.00
 78253561,3.0818574718,-2.94248022\O,0,3.749696948,1.3800107215,-6.5115
 774108\H,0,-1.4531313718,0.7244777701,-0.3024310319\\Version=ES64L-G16
 RevC.01\HF=-2974.3268372\RMSD=6.262e-09\Dipole=-8.2293701,5.0973168,4.
 7388057\Quadrupole=156.5863278,-49.4608122,-107.1255156,-107.2775924,-
 83.5375102,40.4007451\PG=C01 [X(C41H61N10O11)]\\@
 The archive entry for this job was punched.


 NOTHING RESEMBLES A NEW PHENOMENON AS MUCH AS A MISTAKE.

                               -- ENRICO FERMI (?)
 Job cpu time:       0 days  0 hours  6 minutes  2.2 seconds.
 Elapsed time:       0 days  0 hours  1 minutes 31.9 seconds.
 File lengths (MBytes):  RWF=    816 Int=      0 D2E=      0 Chk=    112 Scr=     32
 Normal termination of Gaussian 16 at Sun Jul 24 01:49:25 2022.
