 Entering Gaussian System, Link 0=/opt/software/Gaussian/g16-AVX-C.01/g16/g16
 Input=charge-conf-474.com
 Output=charge-conf-474.log
 Initial command:
 /opt/software/Gaussian/g16-AVX-C.01/g16/l1.exe "/mnt/gs18/scratch/users/kengmith/Gau-31931.inp" -scrdir="/mnt/gs18/scratch/users/kengmith/"
 Entering Link 1 = /opt/software/Gaussian/g16-AVX-C.01/g16/l1.exe PID=     31945.
  
 Copyright (c) 1988-2019, Gaussian, Inc.  All Rights Reserved.
  
 This is part of the Gaussian(R) 16 program.  It is based on
 the Gaussian(R) 09 system (copyright 2009, Gaussian, Inc.),
 the Gaussian(R) 03 system (copyright 2003, Gaussian, Inc.),
 the Gaussian(R) 98 system (copyright 1998, Gaussian, Inc.),
 the Gaussian(R) 94 system (copyright 1995, Gaussian, Inc.),
 the Gaussian 92(TM) system (copyright 1992, Gaussian, Inc.),
 the Gaussian 90(TM) system (copyright 1990, Gaussian, Inc.),
 the Gaussian 88(TM) system (copyright 1988, Gaussian, Inc.),
 the Gaussian 86(TM) system (copyright 1986, Carnegie Mellon
 University), and the Gaussian 82(TM) system (copyright 1983,
 Carnegie Mellon University). Gaussian is a federally registered
 trademark of Gaussian, Inc.
  
 This software contains proprietary and confidential information,
 including trade secrets, belonging to Gaussian, Inc.
  
 This software is provided under written license and may be
 used, copied, transmitted, or stored only in accord with that
 written license.
  
 The following legend is applicable only to US Government
 contracts under FAR:
  
                    RESTRICTED RIGHTS LEGEND
  
 Use, reproduction and disclosure by the US Government is
 subject to restrictions as set forth in subparagraphs (a)
 and (c) of the Commercial Computer Software - Restricted
 Rights clause in FAR 52.227-19.
  
 Gaussian, Inc.
 340 Quinnipiac St., Bldg. 40, Wallingford CT 06492
  
  
 ---------------------------------------------------------------
 Warning -- This program may not be used in any manner that
 competes with the business of Gaussian, Inc. or will provide
 assistance to any competitor of Gaussian, Inc.  The licensee
 of this program is prohibited from giving any competitor of
 Gaussian, Inc. access to this program.  By using this program,
 the user acknowledges that Gaussian, Inc. is engaged in the
 business of creating and licensing software in the field of
 computational chemistry and represents and warrants to the
 licensee that it is not a competitor of Gaussian, Inc. and that
 it will not use this program in any manner prohibited above.
 ---------------------------------------------------------------
  

 Cite this work as:
 Gaussian 16, Revision C.01,
 M. J. Frisch, G. W. Trucks, H. B. Schlegel, G. E. Scuseria, 
 M. A. Robb, J. R. Cheeseman, G. Scalmani, V. Barone, 
 G. A. Petersson, H. Nakatsuji, X. Li, M. Caricato, A. V. Marenich, 
 J. Bloino, B. G. Janesko, R. Gomperts, B. Mennucci, H. P. Hratchian, 
 J. V. Ortiz, A. F. Izmaylov, J. L. Sonnenberg, D. Williams-Young, 
 F. Ding, F. Lipparini, F. Egidi, J. Goings, B. Peng, A. Petrone, 
 T. Henderson, D. Ranasinghe, V. G. Zakrzewski, J. Gao, N. Rega, 
 G. Zheng, W. Liang, M. Hada, M. Ehara, K. Toyota, R. Fukuda, 
 J. Hasegawa, M. Ishida, T. Nakajima, Y. Honda, O. Kitao, H. Nakai, 
 T. Vreven, K. Throssell, J. A. Montgomery, Jr., J. E. Peralta, 
 F. Ogliaro, M. J. Bearpark, J. J. Heyd, E. N. Brothers, K. N. Kudin, 
 V. N. Staroverov, T. A. Keith, R. Kobayashi, J. Normand, 
 K. Raghavachari, A. P. Rendell, J. C. Burant, S. S. Iyengar, 
 J. Tomasi, M. Cossi, J. M. Millam, M. Klene, C. Adamo, R. Cammi, 
 J. W. Ochterski, R. L. Martin, K. Morokuma, O. Farkas, 
 J. B. Foresman, and D. J. Fox, Gaussian, Inc., Wallingford CT, 2019.
 
 ******************************************
 Gaussian 16:  ES64L-G16RevC.01  3-Jul-2019
                26-May-2022 
 ******************************************
 %mem=8gb
 %nproc=4
 Will use up to    4 processors via shared memory.
 %chk=conf-474.chk
 -------------------------------------------------------------------
 # B3LYP/6-31G* guess=read geom=check nosymm integral(ultrafinegrid)
 -------------------------------------------------------------------
 1/29=2,38=1,172=1/1;
 2/12=2,15=1,40=1/2;
 3/5=1,6=6,7=1,11=2,14=-4,25=1,30=1,74=-5,75=-5,116=-2/1,2,3;
 4/5=1/1;
 5/5=2,38=6/2;
 6/7=2,8=2,9=2,10=2,28=1/1;
 99/5=1,9=1/99;
 ------------------------------------------------------
 Candidate Structure: Conf:474 Charge calc in gas phase
 ------------------------------------------------------
 Structure from the checkpoint file:  "conf-474.chk"
 Charge =  1 Multiplicity = 1
 Redundant internal coordinates found in file.  (old form).
 N,0,-5.3821991389,-0.5771724977,-5.4021235158
 H,0,-5.0850489375,-1.3081270786,-6.0472082219
 H,0,-5.8902281346,-1.0747406809,-4.6707070005
 C,0,-4.2027082845,0.0308935753,-4.8038777988
 H,0,-3.5718251175,0.4070618341,-5.6216614299
 C,0,-3.3522789865,-0.989419817,-4.0121001074
 C,0,-4.6058408217,1.2681971776,-3.9516084708
 H,0,-3.7036323474,1.8094334295,-3.6394772508
 H,0,-5.1523629401,1.9330895266,-4.6282941117
 O,0,-3.6934325933,-2.1561379302,-3.8716225007
 C,0,-5.4537171734,0.9573390999,-2.7351367801
 C,0,-6.836317344,0.7521993725,-2.8602846264
 H,0,-7.297928397,0.8339326297,-3.8406973548
 C,0,-4.8786983971,0.869831391,-1.4593979863
 H,0,-3.8119946294,1.0493020472,-1.3399704167
 C,0,-7.6179047083,0.4527169208,-1.743878661
 H,0,-8.6873479522,0.2993374813,-1.8607363379
 C,0,-5.6598027516,0.5745972684,-0.3409384343
 H,0,-5.1981437704,0.5201385709,0.641947934
 C,0,-7.0318903964,0.3613962006,-0.4800392984
 H,0,-7.6418112916,0.1354340889,0.3903420212
 N,0,-2.1549450995,-0.5244324334,-3.5139541157
 H,0,-1.9800931441,0.471967259,-3.4682885566
 C,0,-1.3637725609,-1.3413502649,-2.6183616316
 H,0,-2.0056462051,-2.1483152415,-2.2510431869
 C,0,-0.8871775829,-0.4920640596,-1.4429028723
 C,0,-0.1666922515,-1.9864801865,-3.3699203653
 H,0,0.3574425067,-1.2078287448,-3.9356081705
 H,0,-0.5810638693,-2.7082483761,-4.0806305605
 O,0,-0.8506926165,0.7459469978,-1.489634913
 O,0,0.720558668,-2.660858834,-2.4838775144
 H,0,1.5272059126,-2.1217721833,-2.4316913978
 N,0,-0.4986509658,-1.1899283022,-0.3430953526
 H,0,-0.2813110693,-2.1716368278,-0.489127033
 C,0,-0.1088364936,-0.5495345202,0.9073594312
 H,0,-0.7334176998,0.3429962712,1.0244411819
 C,0,1.3607422903,-0.0773693496,0.8747158603
 C,0,-0.3753619068,-1.4956168367,2.0886346765
 H,0,0.2005053257,-2.4267753068,1.9497699231
 H,0,-1.435405675,-1.7597406056,2.0936923211
 O,0,2.2181856826,-0.4750124147,1.7021481022
 O,0,-0.0932430013,-0.880330186,3.3280261723
 H,0,0.8430471773,-0.6284381057,3.2860167354
 N,0,1.6604984852,0.7691485775,-0.1106426432
 H,0,0.8834061967,1.086243653,-0.6981714955
 C,0,3.025712217,1.1760809068,-0.399389818
 H,0,3.6508706079,0.2769660462,-0.366560306
 C,0,3.5212479071,2.1861585044,0.6579761472
 C,0,3.1084685856,1.7915411404,-1.8009294372
 H,0,2.3978217191,2.6203413849,-1.9068173325
 H,0,4.1010486382,2.2282273386,-1.9638756534
 O,0,2.784238059,3.0350761322,1.1375984446
 C,0,2.8577793072,0.7730074021,-2.8984718367
 O,0,2.6339086435,-0.4093025655,-2.7193402579
 O,0,2.9289068891,1.3391577437,-4.1096202056
 N,0,4.8330903453,2.0338760885,0.9993264536
 H,0,5.3917476071,1.3515501088,0.5041588559
 C,0,5.5419416021,2.9703341505,1.8642736576
 H,0,4.9467235884,3.8915945643,1.8833813632
 C,0,6.9136382461,3.3522483712,1.3030073802
 C,0,5.6850008826,2.4301200075,3.3039070945
 H,0,6.4415979224,3.0269511288,3.8203716502
 H,0,6.0784291384,1.4067878991,3.2373639412
 O,0,7.7372446776,3.9744865229,1.9276350917
 C,0,4.3540350378,2.4502704275,4.0909780828
 H,0,3.4981905062,2.5658185828,3.4159606907
 H,0,4.3283960748,3.3255182656,4.7485163597
 C,0,4.1323432039,1.212605714,4.9642527301
 H,0,5.0485427655,0.9864605392,5.525091198
 H,0,3.324402248,1.3957874564,5.6839151341
 N,0,3.7859839471,0.0516309869,4.1267587508
 H,0,3.4168021378,0.2257885535,3.1909250359
 N,0,4.097639126,-1.5441315877,5.7933916388
 H,0,4.1190814413,-2.5068508705,6.0958635629
 H,0,4.4113556686,-0.8471987122,6.4511088051
 N,0,3.3355884596,-2.1721147732,3.6890678101
 H,0,2.898515607,-1.8818417216,2.8129241198
 H,0,3.1383662448,-3.1033578409,4.0263952482
 C,0,3.732795579,-1.2143873442,4.5434885621
 O,0,7.104676478,2.9224111442,0.0328975405
 H,0,7.9941815159,3.2285066154,-0.2321525355
 H,0,2.7788518745,0.6437127903,-4.7791187327
 Recover connectivity data from disk.
                           ----------------------------
                           !    Current Parameters    !
                           ! (Angstroms and Degrees)  !
 --------------------------                            --------------------------
 ! Name  Definition              Value                                          !
 --------------------------------------------------------------------------------
 ! R1    R(1,2)                  1.0192                                         !
 ! R2    R(1,3)                  1.0201                                         !
 ! R3    R(1,4)                  1.4556                                         !
 ! R4    R(4,5)                  1.0992                                         !
 ! R5    R(4,6)                  1.5463                                         !
 ! R6    R(4,7)                  1.5556                                         !
 ! R7    R(6,10)                 1.2237                                         !
 ! R8    R(6,22)                 1.3777                                         !
 ! R9    R(7,8)                  1.0974                                         !
 ! R10   R(7,9)                  1.0948                                         !
 ! R11   R(7,11)                 1.515                                          !
 ! R12   R(11,12)                1.4033                                         !
 ! R13   R(11,14)                1.4021                                         !
 ! R14   R(12,13)                1.0867                                         !
 ! R15   R(12,16)                1.3953                                         !
 ! R16   R(14,15)                1.0883                                         !
 ! R17   R(14,18)                1.3958                                         !
 ! R18   R(16,17)                1.0867                                         !
 ! R19   R(16,20)                1.3961                                         !
 ! R20   R(18,19)                1.0873                                         !
 ! R21   R(18,20)                1.3955                                         !
 ! R22   R(20,21)                1.0866                                         !
 ! R23   R(22,23)                1.0127                                         !
 ! R24   R(22,24)                1.4475                                         !
 ! R25   R(24,25)                1.0946                                         !
 ! R26   R(24,26)                1.5265                                         !
 ! R27   R(24,27)                1.5537                                         !
 ! R28   R(26,30)                1.2394                                         !
 ! R29   R(26,33)                1.3592                                         !
 ! R30   R(27,28)                1.0959                                         !
 ! R31   R(27,29)                1.0944                                         !
 ! R32   R(27,31)                1.4238                                         !
 ! R33   R(31,32)                0.9716                                         !
 ! R34   R(33,34)                1.016                                          !
 ! R35   R(33,35)                1.458                                          !
 ! R36   R(35,36)                1.0956                                         !
 ! R37   R(35,37)                1.5439                                         !
 ! R38   R(35,38)                1.5367                                         !
 ! R39   R(37,41)                1.2562                                         !
 ! R40   R(37,44)                1.3332                                         !
 ! R41   R(38,39)                1.1036                                         !
 ! R42   R(38,40)                1.0925                                         !
 ! R43   R(38,42)                1.4122                                         !
 ! R44   R(42,43)                0.9705                                         !
 ! R45   R(44,45)                1.0245                                         !
 ! R46   R(44,46)                1.4535                                         !
 ! R47   R(46,47)                1.0956                                         !
 ! R48   R(46,48)                1.544                                          !
 ! R49   R(46,49)                1.533                                          !
 ! R50   R(48,52)                1.2222                                         !
 ! R51   R(48,56)                1.3641                                         !
 ! R52   R(49,50)                1.0969                                         !
 ! R53   R(49,51)                1.0966                                         !
 ! R54   R(49,53)                1.5182                                         !
 ! R55   R(53,54)                1.2166                                         !
 ! R56   R(53,55)                1.3388                                         !
 ! R57   R(55,82)                0.9769                                         !
 ! R58   R(56,57)                1.0114                                         !
 ! R59   R(56,58)                1.4586                                         !
 ! R60   R(58,59)                1.097                                          !
 ! R61   R(58,60)                1.5305                                         !
 ! R62   R(58,61)                1.5443                                         !
 ! R63   R(60,64)                1.2065                                         !
 ! R64   R(60,80)                1.3544                                         !
 ! R65   R(61,62)                1.0933                                         !
 ! R66   R(61,63)                1.0984                                         !
 ! R67   R(61,65)                1.5464                                         !
 ! R68   R(65,66)                1.0961                                         !
 ! R69   R(65,67)                1.095                                          !
 ! R70   R(65,68)                1.5309                                         !
 ! R71   R(68,69)                1.0978                                         !
 ! R72   R(68,70)                1.0974                                         !
 ! R73   R(68,71)                1.4728                                         !
 ! R74   R(71,72)                1.021                                          !
 ! R75   R(71,79)                1.3339                                         !
 ! R76   R(73,74)                1.0093                                         !
 ! R77   R(73,75)                1.0083                                         !
 ! R78   R(73,79)                1.3432                                         !
 ! R79   R(76,77)                1.0212                                         !
 ! R80   R(76,78)                1.0099                                         !
 ! R81   R(76,79)                1.3435                                         !
 ! R82   R(80,81)                0.9773                                         !
 ! A1    A(2,1,3)              104.4301                                         !
 ! A2    A(2,1,4)              108.8737                                         !
 ! A3    A(3,1,4)              108.2169                                         !
 ! A4    A(1,4,5)              107.593                                          !
 ! A5    A(1,4,6)              112.361                                          !
 ! A6    A(1,4,7)              110.3314                                         !
 ! A7    A(5,4,6)              106.9234                                         !
 ! A8    A(5,4,7)              106.5079                                         !
 ! A9    A(6,4,7)              112.7565                                         !
 ! A10   A(4,6,10)             122.3148                                         !
 ! A11   A(4,6,22)             116.1303                                         !
 ! A12   A(10,6,22)            121.507                                          !
 ! A13   A(4,7,8)              109.576                                          !
 ! A14   A(4,7,9)              105.8894                                         !
 ! A15   A(4,7,11)             114.9447                                         !
 ! A16   A(8,7,9)              106.6583                                         !
 ! A17   A(8,7,11)             109.4455                                         !
 ! A18   A(9,7,11)             109.969                                          !
 ! A19   A(7,11,12)            120.6481                                         !
 ! A20   A(7,11,14)            120.9219                                         !
 ! A21   A(12,11,14)           118.4299                                         !
 ! A22   A(11,12,13)           119.2065                                         !
 ! A23   A(11,12,16)           120.7902                                         !
 ! A24   A(13,12,16)           120.0026                                         !
 ! A25   A(11,14,15)           119.4427                                         !
 ! A26   A(11,14,18)           120.8503                                         !
 ! A27   A(15,14,18)           119.7007                                         !
 ! A28   A(12,16,17)           119.7036                                         !
 ! A29   A(12,16,20)           120.2139                                         !
 ! A30   A(17,16,20)           120.0803                                         !
 ! A31   A(14,18,19)           119.8253                                         !
 ! A32   A(14,18,20)           120.1765                                         !
 ! A33   A(19,18,20)           119.9957                                         !
 ! A34   A(16,20,18)           119.5351                                         !
 ! A35   A(16,20,21)           120.2082                                         !
 ! A36   A(18,20,21)           120.2541                                         !
 ! A37   A(6,22,23)            119.8988                                         !
 ! A38   A(6,22,24)            120.5475                                         !
 ! A39   A(23,22,24)           115.659                                          !
 ! A40   A(22,24,25)           107.648                                          !
 ! A41   A(22,24,26)           109.4562                                         !
 ! A42   A(22,24,27)           110.8644                                         !
 ! A43   A(25,24,26)           109.5635                                         !
 ! A44   A(25,24,27)           107.9398                                         !
 ! A45   A(26,24,27)           111.2812                                         !
 ! A46   A(24,26,30)           122.4043                                         !
 ! A47   A(24,26,33)           115.2559                                         !
 ! A48   A(30,26,33)           122.3389                                         !
 ! A49   A(24,27,28)           108.8539                                         !
 ! A50   A(24,27,29)           107.2321                                         !
 ! A51   A(24,27,31)           112.0723                                         !
 ! A52   A(28,27,29)           108.3278                                         !
 ! A53   A(28,27,31)           111.0837                                         !
 ! A54   A(29,27,31)           109.1295                                         !
 ! A55   A(27,31,32)           106.7379                                         !
 ! A56   A(26,33,34)           116.1631                                         !
 ! A57   A(26,33,35)           123.0162                                         !
 ! A58   A(34,33,35)           119.3718                                         !
 ! A59   A(33,35,36)           107.2803                                         !
 ! A60   A(33,35,37)           111.7581                                         !
 ! A61   A(33,35,38)           110.0292                                         !
 ! A62   A(36,35,37)           107.2022                                         !
 ! A63   A(36,35,38)           108.6936                                         !
 ! A64   A(37,35,38)           111.6922                                         !
 ! A65   A(35,37,41)           122.6145                                         !
 ! A66   A(35,37,44)           115.0766                                         !
 ! A67   A(41,37,44)           122.3008                                         !
 ! A68   A(35,38,39)           109.4037                                         !
 ! A69   A(35,38,40)           108.7049                                         !
 ! A70   A(35,38,42)           111.8239                                         !
 ! A71   A(39,38,40)           107.6324                                         !
 ! A72   A(39,38,42)           111.9504                                         !
 ! A73   A(40,38,42)           107.1648                                         !
 ! A74   A(38,42,43)           105.5352                                         !
 ! A75   A(37,44,45)           116.7334                                         !
 ! A76   A(37,44,46)           122.3959                                         !
 ! A77   A(45,44,46)           120.7866                                         !
 ! A78   A(44,46,47)           107.4717                                         !
 ! A79   A(44,46,48)           110.399                                          !
 ! A80   A(44,46,49)           110.165                                          !
 ! A81   A(47,46,48)           109.4649                                         !
 ! A82   A(47,46,49)           109.031                                          !
 ! A83   A(48,46,49)           110.2517                                         !
 ! A84   A(46,48,52)           121.9778                                         !
 ! A85   A(46,48,56)           114.017                                          !
 ! A86   A(52,48,56)           124.0044                                         !
 ! A87   A(46,49,50)           110.8944                                         !
 ! A88   A(46,49,51)           110.1578                                         !
 ! A89   A(46,49,53)           112.5005                                         !
 ! A90   A(50,49,51)           105.7354                                         !
 ! A91   A(50,49,53)           109.2782                                         !
 ! A92   A(51,49,53)           108.0117                                         !
 ! A93   A(49,53,54)           125.1651                                         !
 ! A94   A(49,53,55)           111.1934                                         !
 ! A95   A(54,53,55)           123.6373                                         !
 ! A96   A(53,55,82)           108.1054                                         !
 ! A97   A(48,56,57)           118.9492                                         !
 ! A98   A(48,56,58)           122.9628                                         !
 ! A99   A(57,56,58)           117.067                                          !
 ! A100  A(56,58,59)           106.6077                                         !
 ! A101  A(56,58,60)           112.2281                                         !
 ! A102  A(56,58,61)           111.9154                                         !
 ! A103  A(59,58,60)           106.4466                                         !
 ! A104  A(59,58,61)           109.1356                                         !
 ! A105  A(60,58,61)           110.251                                          !
 ! A106  A(58,60,64)           123.4111                                         !
 ! A107  A(58,60,80)           113.0239                                         !
 ! A108  A(64,60,80)           123.5647                                         !
 ! A109  A(58,61,62)           108.2709                                         !
 ! A110  A(58,61,63)           107.6149                                         !
 ! A111  A(58,61,65)           112.9661                                         !
 ! A112  A(62,61,63)           106.818                                          !
 ! A113  A(62,61,65)           110.369                                          !
 ! A114  A(63,61,65)           110.5648                                         !
 ! A115  A(61,65,66)           111.0976                                         !
 ! A116  A(61,65,67)           109.6451                                         !
 ! A117  A(61,65,68)           113.8562                                         !
 ! A118  A(66,65,67)           105.5008                                         !
 ! A119  A(66,65,68)           108.8716                                         !
 ! A120  A(67,65,68)           107.4743                                         !
 ! A121  A(65,68,69)           109.7014                                         !
 ! A122  A(65,68,70)           110.2282                                         !
 ! A123  A(65,68,71)           110.3022                                         !
 ! A124  A(69,68,70)           108.2894                                         !
 ! A125  A(69,68,71)           108.9287                                         !
 ! A126  A(70,68,71)           109.3507                                         !
 ! A127  A(68,71,72)           118.1499                                         !
 ! A128  A(68,71,79)           125.4418                                         !
 ! A129  A(72,71,79)           115.7113                                         !
 ! A130  A(74,73,75)           117.2045                                         !
 ! A131  A(74,73,79)           121.2512                                         !
 ! A132  A(75,73,79)           121.4545                                         !
 ! A133  A(77,76,78)           117.7156                                         !
 ! A134  A(77,76,79)           118.003                                          !
 ! A135  A(78,76,79)           120.1749                                         !
 ! A136  A(71,79,73)           120.8568                                         !
 ! A137  A(71,79,76)           119.3194                                         !
 ! A138  A(73,79,76)           119.8084                                         !
 ! A139  A(60,80,81)           106.4571                                         !
 ! D1    D(2,1,4,5)             57.052                                          !
 ! D2    D(2,1,4,6)            -60.3767                                         !
 ! D3    D(2,1,4,7)            172.8618                                         !
 ! D4    D(3,1,4,5)            169.9919                                         !
 ! D5    D(3,1,4,6)             52.5631                                         !
 ! D6    D(3,1,4,7)            -74.1984                                         !
 ! D7    D(1,4,6,10)            -3.1471                                         !
 ! D8    D(1,4,6,22)           174.3712                                         !
 ! D9    D(5,4,6,10)          -120.9733                                         !
 ! D10   D(5,4,6,22)            56.545                                          !
 ! D11   D(7,4,6,10)           122.3015                                         !
 ! D12   D(7,4,6,22)           -60.1802                                         !
 ! D13   D(1,4,7,8)           -171.0159                                         !
 ! D14   D(1,4,7,9)            -56.335                                          !
 ! D15   D(1,4,7,11)            65.267                                          !
 ! D16   D(5,4,7,8)            -54.5282                                         !
 ! D17   D(5,4,7,9)             60.1527                                         !
 ! D18   D(5,4,7,11)          -178.2454                                         !
 ! D19   D(6,4,7,8)             62.4435                                         !
 ! D20   D(6,4,7,9)            177.1244                                         !
 ! D21   D(6,4,7,11)           -61.2737                                         !
 ! D22   D(4,6,22,23)           15.3015                                         !
 ! D23   D(4,6,22,24)          172.1302                                         !
 ! D24   D(10,6,22,23)        -167.1585                                         !
 ! D25   D(10,6,22,24)         -10.3298                                         !
 ! D26   D(4,7,11,12)          -80.7941                                         !
 ! D27   D(4,7,11,14)           99.3122                                         !
 ! D28   D(8,7,11,12)          155.4195                                         !
 ! D29   D(8,7,11,14)          -24.4742                                         !
 ! D30   D(9,7,11,12)           38.5645                                         !
 ! D31   D(9,7,11,14)         -141.3292                                         !
 ! D32   D(7,11,12,13)          -0.9393                                         !
 ! D33   D(7,11,12,16)         179.3628                                         !
 ! D34   D(14,11,12,13)        178.957                                          !
 ! D35   D(14,11,12,16)         -0.7409                                         !
 ! D36   D(7,11,14,15)           1.3404                                         !
 ! D37   D(7,11,14,18)        -179.5714                                         !
 ! D38   D(12,11,14,15)       -178.5556                                         !
 ! D39   D(12,11,14,18)          0.5326                                         !
 ! D40   D(11,12,16,17)        179.8699                                         !
 ! D41   D(11,12,16,20)          0.4126                                         !
 ! D42   D(13,12,16,17)          0.1744                                         !
 ! D43   D(13,12,16,20)       -179.283                                          !
 ! D44   D(11,14,18,19)       -179.4195                                         !
 ! D45   D(11,14,18,20)          0.0056                                         !
 ! D46   D(15,14,18,19)         -0.3337                                         !
 ! D47   D(15,14,18,20)        179.0914                                         !
 ! D48   D(12,16,20,18)          0.1395                                         !
 ! D49   D(12,16,20,21)        179.5465                                         !
 ! D50   D(17,16,20,18)       -179.3158                                         !
 ! D51   D(17,16,20,21)          0.0912                                         !
 ! D52   D(14,18,20,16)         -0.3467                                         !
 ! D53   D(14,18,20,21)       -179.7534                                         !
 ! D54   D(19,18,20,16)        179.0774                                         !
 ! D55   D(19,18,20,21)         -0.3293                                         !
 ! D56   D(6,22,24,25)         -15.397                                          !
 ! D57   D(6,22,24,26)        -134.4131                                         !
 ! D58   D(6,22,24,27)         102.4539                                         !
 ! D59   D(23,22,24,25)        142.3666                                         !
 ! D60   D(23,22,24,26)         23.3504                                         !
 ! D61   D(23,22,24,27)        -99.7825                                         !
 ! D62   D(22,24,26,30)        -19.7098                                         !
 ! D63   D(22,24,26,33)        160.6242                                         !
 ! D64   D(25,24,26,30)       -137.5343                                         !
 ! D65   D(25,24,26,33)         42.7998                                         !
 ! D66   D(27,24,26,30)        103.1759                                         !
 ! D67   D(27,24,26,33)        -76.4901                                         !
 ! D68   D(22,24,27,28)         49.5235                                         !
 ! D69   D(22,24,27,29)        -67.4651                                         !
 ! D70   D(22,24,27,31)        172.7984                                         !
 ! D71   D(25,24,27,28)        167.1965                                         !
 ! D72   D(25,24,27,29)         50.2079                                         !
 ! D73   D(25,24,27,31)        -69.5286                                         !
 ! D74   D(26,24,27,28)        -72.55                                           !
 ! D75   D(26,24,27,29)        170.4614                                         !
 ! D76   D(26,24,27,31)         50.7249                                         !
 ! D77   D(24,26,33,34)         18.5456                                         !
 ! D78   D(24,26,33,35)       -175.3034                                         !
 ! D79   D(30,26,33,34)       -161.1206                                         !
 ! D80   D(30,26,33,35)          5.0304                                         !
 ! D81   D(24,27,31,32)       -108.0567                                         !
 ! D82   D(28,27,31,32)         13.9532                                         !
 ! D83   D(29,27,31,32)        133.3228                                         !
 ! D84   D(26,33,35,36)         34.9114                                         !
 ! D85   D(26,33,35,37)        -82.3238                                         !
 ! D86   D(26,33,35,38)        152.9893                                         !
 ! D87   D(34,33,35,36)       -159.3608                                         !
 ! D88   D(34,33,35,37)         83.404                                          !
 ! D89   D(34,33,35,38)        -41.2829                                         !
 ! D90   D(33,35,37,41)       -121.4869                                         !
 ! D91   D(33,35,37,44)         57.4988                                         !
 ! D92   D(36,35,37,41)        121.2308                                         !
 ! D93   D(36,35,37,44)        -59.7834                                         !
 ! D94   D(38,35,37,41)          2.2682                                         !
 ! D95   D(38,35,37,44)       -178.7461                                         !
 ! D96   D(33,35,38,39)         59.2723                                         !
 ! D97   D(33,35,38,40)        -58.0062                                         !
 ! D98   D(33,35,38,42)       -176.1195                                         !
 ! D99   D(36,35,38,39)        176.4739                                         !
 ! D100  D(36,35,38,40)         59.1955                                         !
 ! D101  D(36,35,38,42)        -58.9179                                         !
 ! D102  D(37,35,38,39)        -65.4525                                         !
 ! D103  D(37,35,38,40)        177.2691                                         !
 ! D104  D(37,35,38,42)         59.1557                                         !
 ! D105  D(35,37,44,45)          4.9906                                         !
 ! D106  D(35,37,44,46)       -171.6949                                         !
 ! D107  D(41,37,44,45)       -176.0201                                         !
 ! D108  D(41,37,44,46)          7.2944                                         !
 ! D109  D(35,38,42,43)        -59.0522                                         !
 ! D110  D(39,38,42,43)         64.1252                                         !
 ! D111  D(40,38,42,43)       -178.0809                                         !
 ! D112  D(37,44,46,47)         44.3642                                         !
 ! D113  D(37,44,46,48)        -74.9613                                         !
 ! D114  D(37,44,46,49)        163.0341                                         !
 ! D115  D(45,44,46,47)       -132.1899                                         !
 ! D116  D(45,44,46,48)        108.4845                                         !
 ! D117  D(45,44,46,49)        -13.52                                           !
 ! D118  D(44,46,48,52)        -37.0609                                         !
 ! D119  D(44,46,48,56)        142.6354                                         !
 ! D120  D(47,46,48,52)       -155.1713                                         !
 ! D121  D(47,46,48,56)         24.5249                                         !
 ! D122  D(49,46,48,52)         84.8925                                         !
 ! D123  D(49,46,48,56)        -95.4112                                         !
 ! D124  D(44,46,49,50)         55.1807                                         !
 ! D125  D(44,46,49,51)        171.8836                                         !
 ! D126  D(44,46,49,53)        -67.5468                                         !
 ! D127  D(47,46,49,50)        172.8911                                         !
 ! D128  D(47,46,49,51)        -70.406                                          !
 ! D129  D(47,46,49,53)         50.1636                                         !
 ! D130  D(48,46,49,50)        -66.911                                          !
 ! D131  D(48,46,49,51)         49.7919                                         !
 ! D132  D(48,46,49,53)        170.3615                                         !
 ! D133  D(46,48,56,57)          4.8868                                         !
 ! D134  D(46,48,56,58)        172.9803                                         !
 ! D135  D(52,48,56,57)       -175.4239                                         !
 ! D136  D(52,48,56,58)         -7.3305                                         !
 ! D137  D(46,49,53,54)         -1.0571                                         !
 ! D138  D(46,49,53,55)        179.6589                                         !
 ! D139  D(50,49,53,54)       -124.6885                                         !
 ! D140  D(50,49,53,55)         56.0275                                         !
 ! D141  D(51,49,53,54)        120.7395                                         !
 ! D142  D(51,49,53,55)        -58.5445                                         !
 ! D143  D(49,53,55,82)        178.9055                                         !
 ! D144  D(54,53,55,82)         -0.3914                                         !
 ! D145  D(48,56,58,59)        -17.5178                                         !
 ! D146  D(48,56,58,60)       -133.6888                                         !
 ! D147  D(48,56,58,61)        101.7382                                         !
 ! D148  D(57,56,58,59)        150.7848                                         !
 ! D149  D(57,56,58,60)         34.6138                                         !
 ! D150  D(57,56,58,61)        -89.9592                                         !
 ! D151  D(56,58,60,64)       -170.2515                                         !
 ! D152  D(56,58,60,80)          9.9061                                         !
 ! D153  D(59,58,60,64)         73.4804                                         !
 ! D154  D(59,58,60,80)       -106.362                                          !
 ! D155  D(61,58,60,64)        -44.763                                          !
 ! D156  D(61,58,60,80)        135.3945                                         !
 ! D157  D(56,58,61,62)        164.731                                          !
 ! D158  D(56,58,61,63)         49.6114                                         !
 ! D159  D(56,58,61,65)        -72.7207                                         !
 ! D160  D(59,58,61,62)        -77.5141                                         !
 ! D161  D(59,58,61,63)        167.3662                                         !
 ! D162  D(59,58,61,65)         45.0342                                         !
 ! D163  D(60,58,61,62)         39.0653                                         !
 ! D164  D(60,58,61,63)        -76.0544                                         !
 ! D165  D(60,58,61,65)        161.6136                                         !
 ! D166  D(58,60,80,81)        179.0386                                         !
 ! D167  D(64,60,80,81)         -0.8036                                         !
 ! D168  D(58,61,65,66)         16.4753                                         !
 ! D169  D(58,61,65,67)        -99.7488                                         !
 ! D170  D(58,61,65,68)        139.8213                                         !
 ! D171  D(62,61,65,66)        137.8445                                         !
 ! D172  D(62,61,65,67)         21.6204                                         !
 ! D173  D(62,61,65,68)        -98.8095                                         !
 ! D174  D(63,61,65,66)       -104.1905                                         !
 ! D175  D(63,61,65,67)        139.5854                                         !
 ! D176  D(63,61,65,68)         19.1555                                         !
 ! D177  D(61,65,68,69)         46.0729                                         !
 ! D178  D(61,65,68,70)        165.2288                                         !
 ! D179  D(61,65,68,71)        -73.9176                                         !
 ! D180  D(66,65,68,69)        170.6216                                         !
 ! D181  D(66,65,68,70)        -70.2225                                         !
 ! D182  D(66,65,68,71)         50.6311                                         !
 ! D183  D(67,65,68,69)        -75.5684                                         !
 ! D184  D(67,65,68,70)         43.5876                                         !
 ! D185  D(67,65,68,71)        164.4411                                         !
 ! D186  D(65,68,71,72)        -20.9828                                         !
 ! D187  D(65,68,71,79)        169.0241                                         !
 ! D188  D(69,68,71,72)       -141.4383                                         !
 ! D189  D(69,68,71,79)         48.5686                                         !
 ! D190  D(70,68,71,72)        100.3938                                         !
 ! D191  D(70,68,71,79)        -69.5993                                         !
 ! D192  D(68,71,79,73)         -4.8096                                         !
 ! D193  D(68,71,79,76)        176.6205                                         !
 ! D194  D(72,71,79,73)       -175.0189                                         !
 ! D195  D(72,71,79,76)          6.4112                                         !
 ! D196  D(74,73,79,71)       -175.8371                                         !
 ! D197  D(74,73,79,76)          2.7258                                         !
 ! D198  D(75,73,79,71)          0.6199                                         !
 ! D199  D(75,73,79,76)        179.1828                                         !
 ! D200  D(77,76,79,71)        -12.8154                                         !
 ! D201  D(77,76,79,73)        168.5995                                         !
 ! D202  D(78,76,79,71)       -169.5245                                         !
 ! D203  D(78,76,79,73)         11.8904                                         !
 --------------------------------------------------------------------------------
 Symmetry turned off by external request.
 Stoichiometry    C25H39N8O10(1+)
 Framework group  C1[X(C25H39N8O10)]
 Deg. of freedom   240
 Full point group                 C1      NOp   1
                          Input orientation:                          
 ---------------------------------------------------------------------
 Center     Atomic      Atomic             Coordinates (Angstroms)
 Number     Number       Type             X           Y           Z
 ---------------------------------------------------------------------
      1          7           0       -5.382199   -0.577172   -5.402124
      2          1           0       -5.085049   -1.308127   -6.047208
      3          1           0       -5.890228   -1.074741   -4.670707
      4          6           0       -4.202708    0.030894   -4.803878
      5          1           0       -3.571825    0.407062   -5.621661
      6          6           0       -3.352279   -0.989420   -4.012100
      7          6           0       -4.605841    1.268197   -3.951608
      8          1           0       -3.703632    1.809433   -3.639477
      9          1           0       -5.152363    1.933090   -4.628294
     10          8           0       -3.693433   -2.156138   -3.871623
     11          6           0       -5.453717    0.957339   -2.735137
     12          6           0       -6.836317    0.752199   -2.860285
     13          1           0       -7.297928    0.833933   -3.840697
     14          6           0       -4.878698    0.869831   -1.459398
     15          1           0       -3.811995    1.049302   -1.339970
     16          6           0       -7.617905    0.452717   -1.743879
     17          1           0       -8.687348    0.299337   -1.860736
     18          6           0       -5.659803    0.574597   -0.340938
     19          1           0       -5.198144    0.520139    0.641948
     20          6           0       -7.031890    0.361396   -0.480039
     21          1           0       -7.641811    0.135434    0.390342
     22          7           0       -2.154945   -0.524432   -3.513954
     23          1           0       -1.980093    0.471967   -3.468289
     24          6           0       -1.363773   -1.341350   -2.618362
     25          1           0       -2.005646   -2.148315   -2.251043
     26          6           0       -0.887178   -0.492064   -1.442903
     27          6           0       -0.166692   -1.986480   -3.369920
     28          1           0        0.357443   -1.207829   -3.935608
     29          1           0       -0.581064   -2.708248   -4.080631
     30          8           0       -0.850693    0.745947   -1.489635
     31          8           0        0.720559   -2.660859   -2.483878
     32          1           0        1.527206   -2.121772   -2.431691
     33          7           0       -0.498651   -1.189928   -0.343095
     34          1           0       -0.281311   -2.171637   -0.489127
     35          6           0       -0.108836   -0.549535    0.907359
     36          1           0       -0.733418    0.342996    1.024441
     37          6           0        1.360742   -0.077369    0.874716
     38          6           0       -0.375362   -1.495617    2.088635
     39          1           0        0.200505   -2.426775    1.949770
     40          1           0       -1.435406   -1.759741    2.093692
     41          8           0        2.218186   -0.475012    1.702148
     42          8           0       -0.093243   -0.880330    3.328026
     43          1           0        0.843047   -0.628438    3.286017
     44          7           0        1.660498    0.769149   -0.110643
     45          1           0        0.883406    1.086244   -0.698171
     46          6           0        3.025712    1.176081   -0.399390
     47          1           0        3.650871    0.276966   -0.366560
     48          6           0        3.521248    2.186159    0.657976
     49          6           0        3.108469    1.791541   -1.800929
     50          1           0        2.397822    2.620341   -1.906817
     51          1           0        4.101049    2.228227   -1.963876
     52          8           0        2.784238    3.035076    1.137598
     53          6           0        2.857779    0.773007   -2.898472
     54          8           0        2.633909   -0.409303   -2.719340
     55          8           0        2.928907    1.339158   -4.109620
     56          7           0        4.833090    2.033876    0.999326
     57          1           0        5.391748    1.351550    0.504159
     58          6           0        5.541942    2.970334    1.864274
     59          1           0        4.946724    3.891595    1.883381
     60          6           0        6.913638    3.352248    1.303007
     61          6           0        5.685001    2.430120    3.303907
     62          1           0        6.441598    3.026951    3.820372
     63          1           0        6.078429    1.406788    3.237364
     64          8           0        7.737245    3.974487    1.927635
     65          6           0        4.354035    2.450270    4.090978
     66          1           0        3.498191    2.565819    3.415961
     67          1           0        4.328396    3.325518    4.748516
     68          6           0        4.132343    1.212606    4.964253
     69          1           0        5.048543    0.986461    5.525091
     70          1           0        3.324402    1.395787    5.683915
     71          7           0        3.785984    0.051631    4.126759
     72          1           0        3.416802    0.225789    3.190925
     73          7           0        4.097639   -1.544132    5.793392
     74          1           0        4.119081   -2.506851    6.095864
     75          1           0        4.411356   -0.847199    6.451109
     76          7           0        3.335588   -2.172115    3.689068
     77          1           0        2.898516   -1.881842    2.812924
     78          1           0        3.138366   -3.103358    4.026395
     79          6           0        3.732796   -1.214387    4.543489
     80          8           0        7.104676    2.922411    0.032898
     81          1           0        7.994182    3.228507   -0.232153
     82          1           0        2.778852    0.643713   -4.779119
 ---------------------------------------------------------------------
 Rotational constants (GHZ):           0.1201154           0.0349686           0.0314849
 Standard basis: 6-31G(d) (6D, 7F)
   723 basis functions,  1360 primitive gaussians,   723 cartesian basis functions
   162 alpha electrons      162 beta electrons
       nuclear repulsion energy      5481.8965578978 Hartrees.
 NAtoms=   82 NActive=   82 NUniq=   82 SFac= 1.00D+00 NAtFMM=   60 NAOKFM=T Big=T
 Integral buffers will be    131072 words long.
 Raffenetti 2 integral format.
 Two-electron integral symmetry is turned off.
 One-electron integrals computed using PRISM.
 NBasis=   723 RedAO= T EigKep=  4.64D-04  NBF=   723
 NBsUse=   723 1.00D-06 EigRej= -1.00D+00 NBFU=   723
 Initial guess from the checkpoint file:  "conf-474.chk"
 B after Tr=     0.000000    0.000000    0.000000
         Rot=    1.000000    0.000000    0.000000    0.000000 Ang=   0.00 deg.
 Requested convergence on RMS density matrix=1.00D-08 within 128 cycles.
 Requested convergence on MAX density matrix=1.00D-06.
 Requested convergence on             energy=1.00D-06.
 No special actions if energy rises.
 SCF Done:  E(RB3LYP) =  -2166.29340197     A.U. after    1 cycles
            NFock=  1  Conv=0.98D-08     -V/T= 2.0092

 **********************************************************************

            Population analysis using the SCF Density.

 **********************************************************************

 Alpha  occ. eigenvalues --  -19.31232 -19.30634 -19.26371 -19.26345 -19.24424
 Alpha  occ. eigenvalues --  -19.24338 -19.23097 -19.23063 -19.23037 -19.17766
 Alpha  occ. eigenvalues --  -14.52876 -14.51750 -14.51268 -14.48470 -14.48089
 Alpha  occ. eigenvalues --  -14.46957 -14.42639 -14.36040 -10.48551 -10.44577
 Alpha  occ. eigenvalues --  -10.42860 -10.42089 -10.40480 -10.39486 -10.36609
 Alpha  occ. eigenvalues --  -10.36222 -10.35316 -10.34688 -10.34428 -10.34012
 Alpha  occ. eigenvalues --  -10.32882 -10.31651 -10.31241 -10.30899 -10.30445
 Alpha  occ. eigenvalues --  -10.28031 -10.24687 -10.24408 -10.23717 -10.23623
 Alpha  occ. eigenvalues --  -10.23446 -10.23389 -10.23182  -1.22521  -1.21312
 Alpha  occ. eigenvalues --   -1.17395  -1.16877  -1.15113  -1.14581  -1.13613
 Alpha  occ. eigenvalues --   -1.12317  -1.12038  -1.10262  -1.09643  -1.06282
 Alpha  occ. eigenvalues --   -1.05601  -1.05094  -1.04494  -1.03260  -0.99160
 Alpha  occ. eigenvalues --   -0.93935  -0.92763  -0.91541  -0.89861  -0.87729
 Alpha  occ. eigenvalues --   -0.87494  -0.83569  -0.82308  -0.81935  -0.80799
 Alpha  occ. eigenvalues --   -0.78919  -0.78865  -0.76552  -0.75836  -0.74840
 Alpha  occ. eigenvalues --   -0.73715  -0.73449  -0.72821  -0.71200  -0.71070
 Alpha  occ. eigenvalues --   -0.70461  -0.69914  -0.69766  -0.67941  -0.65669
 Alpha  occ. eigenvalues --   -0.65517  -0.65241  -0.65112  -0.65023  -0.64431
 Alpha  occ. eigenvalues --   -0.63271  -0.62660  -0.61995  -0.61640  -0.61045
 Alpha  occ. eigenvalues --   -0.60627  -0.60457  -0.59932  -0.58927  -0.58729
 Alpha  occ. eigenvalues --   -0.58575  -0.58218  -0.57702  -0.57103  -0.56593
 Alpha  occ. eigenvalues --   -0.56191  -0.55460  -0.55234  -0.54940  -0.54770
 Alpha  occ. eigenvalues --   -0.54478  -0.53873  -0.53246  -0.52660  -0.52456
 Alpha  occ. eigenvalues --   -0.52165  -0.51834  -0.51370  -0.51135  -0.50493
 Alpha  occ. eigenvalues --   -0.50436  -0.50167  -0.49968  -0.49626  -0.48888
 Alpha  occ. eigenvalues --   -0.48369  -0.48209  -0.47867  -0.47607  -0.47011
 Alpha  occ. eigenvalues --   -0.46504  -0.46492  -0.46159  -0.46106  -0.45528
 Alpha  occ. eigenvalues --   -0.44431  -0.43813  -0.43691  -0.43408  -0.42625
 Alpha  occ. eigenvalues --   -0.42331  -0.42201  -0.41400  -0.41087  -0.40749
 Alpha  occ. eigenvalues --   -0.40209  -0.39834  -0.39339  -0.39078  -0.38494
 Alpha  occ. eigenvalues --   -0.37918  -0.37770  -0.37110  -0.36820  -0.36648
 Alpha  occ. eigenvalues --   -0.36161  -0.35354  -0.31976  -0.31531  -0.29571
 Alpha  occ. eigenvalues --   -0.29512  -0.28498
 Alpha virt. eigenvalues --   -0.12295  -0.12036  -0.11108  -0.09819  -0.09512
 Alpha virt. eigenvalues --   -0.08734  -0.08261  -0.04993  -0.04931  -0.04897
 Alpha virt. eigenvalues --   -0.04245  -0.03570  -0.03259  -0.02898  -0.02593
 Alpha virt. eigenvalues --   -0.01370  -0.00756  -0.00447   0.00160   0.01059
 Alpha virt. eigenvalues --    0.01301   0.01709   0.02221   0.02703   0.03037
 Alpha virt. eigenvalues --    0.03118   0.03735   0.04130   0.04620   0.04810
 Alpha virt. eigenvalues --    0.05098   0.05574   0.05851   0.06259   0.06727
 Alpha virt. eigenvalues --    0.07010   0.07396   0.07743   0.08512   0.08612
 Alpha virt. eigenvalues --    0.08734   0.09193   0.09476   0.09634   0.10244
 Alpha virt. eigenvalues --    0.10405   0.10769   0.11031   0.11467   0.11640
 Alpha virt. eigenvalues --    0.11884   0.12054   0.12836   0.13115   0.13362
 Alpha virt. eigenvalues --    0.13481   0.13889   0.14311   0.14586   0.15036
 Alpha virt. eigenvalues --    0.15365   0.15695   0.16358   0.16501   0.16753
 Alpha virt. eigenvalues --    0.17059   0.17764   0.18466   0.19152   0.19401
 Alpha virt. eigenvalues --    0.20008   0.21121   0.21435   0.22984   0.23757
 Alpha virt. eigenvalues --    0.24460   0.24735   0.25429   0.26513   0.26924
 Alpha virt. eigenvalues --    0.27475   0.27780   0.28587   0.28619   0.29379
 Alpha virt. eigenvalues --    0.30424   0.30889   0.31154   0.33177   0.36604
 Alpha virt. eigenvalues --    0.36788   0.37493   0.38442   0.38758   0.39395
 Alpha virt. eigenvalues --    0.40179   0.40497   0.40808   0.41694   0.42611
 Alpha virt. eigenvalues --    0.42935   0.43680   0.44167   0.44798   0.44964
 Alpha virt. eigenvalues --    0.45314   0.45997   0.46062   0.46892   0.47164
 Alpha virt. eigenvalues --    0.47460   0.47830   0.48262   0.48498   0.48725
 Alpha virt. eigenvalues --    0.49350   0.49478   0.49686   0.50025   0.51040
 Alpha virt. eigenvalues --    0.51411   0.51838   0.52051   0.52116   0.52738
 Alpha virt. eigenvalues --    0.53050   0.53192   0.53509   0.54024   0.54348
 Alpha virt. eigenvalues --    0.54984   0.55059   0.55189   0.55759   0.55994
 Alpha virt. eigenvalues --    0.56285   0.56651   0.57029   0.57164   0.57500
 Alpha virt. eigenvalues --    0.57651   0.57792   0.58352   0.59066   0.59421
 Alpha virt. eigenvalues --    0.59712   0.59948   0.60417   0.61308   0.61769
 Alpha virt. eigenvalues --    0.61855   0.62502   0.62600   0.63389   0.64620
 Alpha virt. eigenvalues --    0.65533   0.66044   0.66655   0.67167   0.67441
 Alpha virt. eigenvalues --    0.67966   0.68225   0.68469   0.68858   0.69464
 Alpha virt. eigenvalues --    0.70130   0.70535   0.70713   0.71136   0.71562
 Alpha virt. eigenvalues --    0.71883   0.72063   0.72301   0.72927   0.73145
 Alpha virt. eigenvalues --    0.73576   0.73746   0.74286   0.74651   0.75133
 Alpha virt. eigenvalues --    0.75609   0.75926   0.76342   0.76551   0.77248
 Alpha virt. eigenvalues --    0.77386   0.77854   0.77944   0.78636   0.78767
 Alpha virt. eigenvalues --    0.78777   0.79120   0.79556   0.79841   0.79993
 Alpha virt. eigenvalues --    0.80140   0.80530   0.81089   0.81382   0.81655
 Alpha virt. eigenvalues --    0.81872   0.82442   0.82906   0.83217   0.83598
 Alpha virt. eigenvalues --    0.83939   0.84327   0.84797   0.84908   0.85325
 Alpha virt. eigenvalues --    0.85458   0.85924   0.86314   0.86626   0.86851
 Alpha virt. eigenvalues --    0.87282   0.87384   0.88528   0.88976   0.89344
 Alpha virt. eigenvalues --    0.89772   0.90166   0.90646   0.91170   0.92062
 Alpha virt. eigenvalues --    0.92399   0.92845   0.93606   0.94086   0.94731
 Alpha virt. eigenvalues --    0.95445   0.95786   0.95871   0.96940   0.97425
 Alpha virt. eigenvalues --    0.98108   0.98198   0.98530   0.99736   1.00379
 Alpha virt. eigenvalues --    1.01187   1.01509   1.02300   1.02891   1.03312
 Alpha virt. eigenvalues --    1.04075   1.04249   1.04859   1.05116   1.05419
 Alpha virt. eigenvalues --    1.07035   1.07821   1.08149   1.09082   1.09626
 Alpha virt. eigenvalues --    1.10181   1.11590   1.11996   1.12854   1.13546
 Alpha virt. eigenvalues --    1.13849   1.14124   1.15271   1.15545   1.16645
 Alpha virt. eigenvalues --    1.17338   1.17978   1.19043   1.19420   1.19853
 Alpha virt. eigenvalues --    1.20549   1.21831   1.22620   1.23265   1.23887
 Alpha virt. eigenvalues --    1.24446   1.25119   1.25827   1.26863   1.28067
 Alpha virt. eigenvalues --    1.28926   1.30238   1.31630   1.32072   1.32479
 Alpha virt. eigenvalues --    1.33871   1.34370   1.35086   1.36143   1.36419
 Alpha virt. eigenvalues --    1.37332   1.38624   1.39023   1.39326   1.39758
 Alpha virt. eigenvalues --    1.40446   1.42105   1.42330   1.43516   1.43637
 Alpha virt. eigenvalues --    1.44315   1.44772   1.45093   1.45695   1.46552
 Alpha virt. eigenvalues --    1.46715   1.46899   1.47581   1.47893   1.48450
 Alpha virt. eigenvalues --    1.49350   1.50725   1.50924   1.51975   1.52146
 Alpha virt. eigenvalues --    1.52934   1.54085   1.55158   1.55598   1.56402
 Alpha virt. eigenvalues --    1.57312   1.57955   1.58778   1.59418   1.59908
 Alpha virt. eigenvalues --    1.60560   1.60950   1.61325   1.62068   1.62911
 Alpha virt. eigenvalues --    1.63674   1.64211   1.64943   1.65225   1.66081
 Alpha virt. eigenvalues --    1.66608   1.67337   1.67839   1.68949   1.69272
 Alpha virt. eigenvalues --    1.69498   1.70354   1.70900   1.71063   1.71751
 Alpha virt. eigenvalues --    1.71841   1.72511   1.73240   1.73450   1.74635
 Alpha virt. eigenvalues --    1.75332   1.75436   1.75543   1.75950   1.76442
 Alpha virt. eigenvalues --    1.78139   1.78170   1.78640   1.79559   1.79745
 Alpha virt. eigenvalues --    1.80321   1.80651   1.81032   1.81294   1.81740
 Alpha virt. eigenvalues --    1.82134   1.82522   1.82809   1.83828   1.84092
 Alpha virt. eigenvalues --    1.84688   1.84911   1.85429   1.85821   1.86202
 Alpha virt. eigenvalues --    1.86860   1.87349   1.88229   1.88794   1.89006
 Alpha virt. eigenvalues --    1.89764   1.90604   1.90961   1.91537   1.92255
 Alpha virt. eigenvalues --    1.93134   1.93673   1.93966   1.94679   1.95072
 Alpha virt. eigenvalues --    1.95534   1.95881   1.97282   1.97438   1.98841
 Alpha virt. eigenvalues --    1.99191   2.00512   2.00636   2.00976   2.01358
 Alpha virt. eigenvalues --    2.01726   2.02029   2.03369   2.03968   2.05160
 Alpha virt. eigenvalues --    2.06842   2.07251   2.07502   2.08539   2.09083
 Alpha virt. eigenvalues --    2.09917   2.10049   2.10161   2.10914   2.12250
 Alpha virt. eigenvalues --    2.12689   2.13250   2.13573   2.15360   2.15600
 Alpha virt. eigenvalues --    2.16492   2.17542   2.18402   2.19592   2.20094
 Alpha virt. eigenvalues --    2.20535   2.21476   2.22031   2.22777   2.24019
 Alpha virt. eigenvalues --    2.24440   2.24586   2.26511   2.26752   2.27049
 Alpha virt. eigenvalues --    2.28160   2.29561   2.30047   2.31020   2.31400
 Alpha virt. eigenvalues --    2.32027   2.32263   2.33045   2.33380   2.33817
 Alpha virt. eigenvalues --    2.34173   2.34818   2.35532   2.36339   2.36689
 Alpha virt. eigenvalues --    2.37240   2.38186   2.39015   2.39453   2.40280
 Alpha virt. eigenvalues --    2.42002   2.43808   2.44270   2.44845   2.46289
 Alpha virt. eigenvalues --    2.46630   2.47906   2.48231   2.49170   2.50179
 Alpha virt. eigenvalues --    2.50941   2.52329   2.52529   2.53477   2.53985
 Alpha virt. eigenvalues --    2.54697   2.54956   2.55745   2.57118   2.57843
 Alpha virt. eigenvalues --    2.58370   2.58854   2.59386   2.60811   2.61599
 Alpha virt. eigenvalues --    2.62250   2.62712   2.63313   2.63788   2.67154
 Alpha virt. eigenvalues --    2.67424   2.68152   2.69809   2.69947   2.70828
 Alpha virt. eigenvalues --    2.72570   2.73274   2.75181   2.75858   2.77850
 Alpha virt. eigenvalues --    2.78711   2.81071   2.81840   2.82219   2.85623
 Alpha virt. eigenvalues --    2.88158   2.88405   2.90043   2.90679   2.91573
 Alpha virt. eigenvalues --    2.92234   2.93751   2.94170   2.96208   2.98437
 Alpha virt. eigenvalues --    2.99540   3.00649   3.01830   3.04601   3.05711
 Alpha virt. eigenvalues --    3.07988   3.10443   3.36263   3.65547   3.72025
 Alpha virt. eigenvalues --    3.73302   3.75501   3.75753   3.76554   3.79993
 Alpha virt. eigenvalues --    3.86815   3.91500   3.92684   3.97001   3.98857
 Alpha virt. eigenvalues --    4.00579   4.01246   4.02905   4.04316   4.05182
 Alpha virt. eigenvalues --    4.07867   4.08068   4.08699   4.11541   4.13252
 Alpha virt. eigenvalues --    4.14392   4.16132   4.20652   4.22186   4.22858
 Alpha virt. eigenvalues --    4.26930   4.30265   4.30829   4.32592   4.36839
 Alpha virt. eigenvalues --    4.37733   4.38819   4.41943   4.43467   4.43919
 Alpha virt. eigenvalues --    4.50285   4.53394   4.54661   4.59269   4.59983
 Alpha virt. eigenvalues --    4.67295
          Condensed to atoms (all electrons):
 Mulliken charges:
               1
     1  N   -0.692981
     2  H    0.309587
     3  H    0.316820
     4  C   -0.085116
     5  H    0.153780
     6  C    0.588060
     7  C   -0.354451
     8  H    0.133588
     9  H    0.177483
    10  O   -0.508530
    11  C    0.160188
    12  C   -0.189855
    13  H    0.153246
    14  C   -0.194210
    15  H    0.120038
    16  C   -0.126582
    17  H    0.140124
    18  C   -0.127061
    19  H    0.120647
    20  C   -0.127579
    21  H    0.134754
    22  N   -0.618708
    23  H    0.344938
    24  C   -0.064200
    25  H    0.206394
    26  C    0.619427
    27  C   -0.039764
    28  H    0.130446
    29  H    0.185196
    30  O   -0.564797
    31  O   -0.651940
    32  H    0.431959
    33  N   -0.593005
    34  H    0.361892
    35  C   -0.098742
    36  H    0.222208
    37  C    0.650270
    38  C   -0.041718
    39  H    0.118335
    40  H    0.187471
    41  O   -0.619392
    42  O   -0.619212
    43  H    0.393037
    44  N   -0.584272
    45  H    0.398818
    46  C   -0.046055
    47  H    0.175767
    48  C    0.621360
    49  C   -0.404108
    50  H    0.229622
    51  H    0.217188
    52  O   -0.505404
    53  C    0.606704
    54  O   -0.480535
    55  O   -0.541226
    56  N   -0.607756
    57  H    0.345420
    58  C   -0.070086
    59  H    0.229343
    60  C    0.589607
    61  C   -0.273471
    62  H    0.201456
    63  H    0.144304
    64  O   -0.434360
    65  C   -0.329861
    66  H    0.202238
    67  H    0.187063
    68  C   -0.160965
    69  H    0.171262
    70  H    0.193247
    71  N   -0.632161
    72  H    0.401495
    73  N   -0.765878
    74  H    0.382792
    75  H    0.390089
    76  N   -0.784535
    77  H    0.413656
    78  H    0.370295
    79  C    0.822497
    80  O   -0.578801
    81  H    0.431785
    82  H    0.431426
 Sum of Mulliken charges =   1.00000
 Mulliken charges with hydrogens summed into heavy atoms:
               1
     1  N   -0.066574
     4  C    0.068664
     6  C    0.588060
     7  C   -0.043381
    10  O   -0.508530
    11  C    0.160188
    12  C   -0.036609
    14  C   -0.074173
    16  C    0.013541
    18  C   -0.006414
    20  C    0.007175
    22  N   -0.273770
    24  C    0.142194
    26  C    0.619427
    27  C    0.275879
    30  O   -0.564797
    31  O   -0.219981
    33  N   -0.231113
    35  C    0.123466
    37  C    0.650270
    38  C    0.264088
    41  O   -0.619392
    42  O   -0.226175
    44  N   -0.185454
    46  C    0.129712
    48  C    0.621360
    49  C    0.042703
    52  O   -0.505404
    53  C    0.606704
    54  O   -0.480535
    55  O   -0.109800
    56  N   -0.262336
    58  C    0.159257
    60  C    0.589607
    61  C    0.072288
    64  O   -0.434360
    65  C    0.059440
    68  C    0.203544
    71  N   -0.230666
    73  N    0.007002
    76  N   -0.000584
    79  C    0.822497
    80  O   -0.147016
 Electronic spatial extent (au):  <R**2>=          34496.6028
 Charge=              1.0000 electrons
 Dipole moment (field-independent basis, Debye):
    X=             20.2923    Y=             -2.0870    Z=             11.3354  Tot=             23.3372
 Quadrupole moment (field-independent basis, Debye-Ang):
   XX=           -158.9066   YY=           -242.0312   ZZ=           -138.9597
   XY=             -5.2977   XZ=             46.5491   YZ=            -32.8740
 Traceless Quadrupole moment (field-independent basis, Debye-Ang):
   XX=             21.0593   YY=            -62.0654   ZZ=             41.0061
   XY=             -5.2977   XZ=             46.5491   YZ=            -32.8740
 Octapole moment (field-independent basis, Debye-Ang**2):
  XXX=            -26.8993  YYY=           -345.7852  ZZZ=            601.8965  XYY=            -50.5253
  XXY=            -96.6969  XXZ=            267.6233  XZZ=            334.8439  YZZ=           -187.9822
  YYZ=            153.9374  XYZ=           -107.9482
 Hexadecapole moment (field-independent basis, Debye-Ang**3):
 XXXX=         -23109.7306 YYYY=          -4569.1000 ZZZZ=          -9600.5409 XXXY=          -2050.6834
 XXXZ=          -5405.5403 YYYX=          -2459.3256 YYYZ=           -929.8095 ZZZX=          -3381.6085
 ZZZY=          -1023.8861 XXYY=          -5201.6230 XXZZ=          -5120.7645 YYZZ=          -2599.5242
 XXYZ=           -848.5194 YYXZ=          -1718.2981 ZZXY=          -1177.9025
 N-N= 5.481896557898D+03 E-N=-1.598799581394D+04  KE= 2.146459144225D+03
 Unable to Open any file for archive entry.
 1\1\GINC-QML-000\SP\RB3LYP\6-31G(d)\C25H39N8O10(1+)\KENGMITH\26-May-20
 22\0\\# B3LYP/6-31G* guess=read geom=check nosymm integral(ultrafinegr
 id)\\Candidate Structure: Conf:474 Charge calc in gas phase\\1,1\N,0,-
 5.3821991389,-0.5771724977,-5.4021235158\H,0,-5.0850489375,-1.30812707
 86,-6.0472082219\H,0,-5.8902281346,-1.0747406809,-4.6707070005\C,0,-4.
 2027082845,0.0308935753,-4.8038777988\H,0,-3.5718251175,0.4070618341,-
 5.6216614299\C,0,-3.3522789865,-0.989419817,-4.0121001074\C,0,-4.60584
 08217,1.2681971776,-3.9516084708\H,0,-3.7036323474,1.8094334295,-3.639
 4772508\H,0,-5.1523629401,1.9330895266,-4.6282941117\O,0,-3.6934325933
 ,-2.1561379302,-3.8716225007\C,0,-5.4537171734,0.9573390999,-2.7351367
 801\C,0,-6.836317344,0.7521993725,-2.8602846264\H,0,-7.297928397,0.833
 9326297,-3.8406973548\C,0,-4.8786983971,0.869831391,-1.4593979863\H,0,
 -3.8119946294,1.0493020472,-1.3399704167\C,0,-7.6179047083,0.452716920
 8,-1.743878661\H,0,-8.6873479522,0.2993374813,-1.8607363379\C,0,-5.659
 8027516,0.5745972684,-0.3409384343\H,0,-5.1981437704,0.5201385709,0.64
 1947934\C,0,-7.0318903964,0.3613962006,-0.4800392984\H,0,-7.6418112916
 ,0.1354340889,0.3903420212\N,0,-2.1549450995,-0.5244324334,-3.51395411
 57\H,0,-1.9800931441,0.471967259,-3.4682885566\C,0,-1.3637725609,-1.34
 13502649,-2.6183616316\H,0,-2.0056462051,-2.1483152415,-2.2510431869\C
 ,0,-0.8871775829,-0.4920640596,-1.4429028723\C,0,-0.1666922515,-1.9864
 801865,-3.3699203653\H,0,0.3574425067,-1.2078287448,-3.9356081705\H,0,
 -0.5810638693,-2.7082483761,-4.0806305605\O,0,-0.8506926165,0.74594699
 78,-1.489634913\O,0,0.720558668,-2.660858834,-2.4838775144\H,0,1.52720
 59126,-2.1217721833,-2.4316913978\N,0,-0.4986509658,-1.1899283022,-0.3
 430953526\H,0,-0.2813110693,-2.1716368278,-0.489127033\C,0,-0.10883649
 36,-0.5495345202,0.9073594312\H,0,-0.7334176998,0.3429962712,1.0244411
 819\C,0,1.3607422903,-0.0773693496,0.8747158603\C,0,-0.3753619068,-1.4
 956168367,2.0886346765\H,0,0.2005053257,-2.4267753068,1.9497699231\H,0
 ,-1.435405675,-1.7597406056,2.0936923211\O,0,2.2181856826,-0.475012414
 7,1.7021481022\O,0,-0.0932430013,-0.880330186,3.3280261723\H,0,0.84304
 71773,-0.6284381057,3.2860167354\N,0,1.6604984852,0.7691485775,-0.1106
 426432\H,0,0.8834061967,1.086243653,-0.6981714955\C,0,3.025712217,1.17
 60809068,-0.399389818\H,0,3.6508706079,0.2769660462,-0.366560306\C,0,3
 .5212479071,2.1861585044,0.6579761472\C,0,3.1084685856,1.7915411404,-1
 .8009294372\H,0,2.3978217191,2.6203413849,-1.9068173325\H,0,4.10104863
 82,2.2282273386,-1.9638756534\O,0,2.784238059,3.0350761322,1.137598444
 6\C,0,2.8577793072,0.7730074021,-2.8984718367\O,0,2.6339086435,-0.4093
 025655,-2.7193402579\O,0,2.9289068891,1.3391577437,-4.1096202056\N,0,4
 .8330903453,2.0338760885,0.9993264536\H,0,5.3917476071,1.3515501088,0.
 5041588559\C,0,5.5419416021,2.9703341505,1.8642736576\H,0,4.9467235884
 ,3.8915945643,1.8833813632\C,0,6.9136382461,3.3522483712,1.3030073802\
 C,0,5.6850008826,2.4301200075,3.3039070945\H,0,6.4415979224,3.02695112
 88,3.8203716502\H,0,6.0784291384,1.4067878991,3.2373639412\O,0,7.73724
 46776,3.9744865229,1.9276350917\C,0,4.3540350378,2.4502704275,4.090978
 0828\H,0,3.4981905062,2.5658185828,3.4159606907\H,0,4.3283960748,3.325
 5182656,4.7485163597\C,0,4.1323432039,1.212605714,4.9642527301\H,0,5.0
 485427655,0.9864605392,5.525091198\H,0,3.324402248,1.3957874564,5.6839
 151341\N,0,3.7859839471,0.0516309869,4.1267587508\H,0,3.4168021378,0.2
 257885535,3.1909250359\N,0,4.097639126,-1.5441315877,5.7933916388\H,0,
 4.1190814413,-2.5068508705,6.0958635629\H,0,4.4113556686,-0.8471987122
 ,6.4511088051\N,0,3.3355884596,-2.1721147732,3.6890678101\H,0,2.898515
 607,-1.8818417216,2.8129241198\H,0,3.1383662448,-3.1033578409,4.026395
 2482\C,0,3.732795579,-1.2143873442,4.5434885621\O,0,7.104676478,2.9224
 111442,0.0328975405\H,0,7.9941815159,3.2285066154,-0.2321525355\H,0,2.
 7788518745,0.6437127903,-4.7791187327\\Version=ES64L-G16RevC.01\HF=-21
 66.293402\RMSD=9.782e-09\Dipole=6.7710647,-1.5441788,4.8962387\Quadrup
 ole=15.6570456,-46.1440983,30.4870528,-3.9387367,34.6080979,-24.441002
 1\PG=C01 [X(C25H39N8O10)]\\@
 The archive entry for this job was punched.


 KNOWLEDGE IS OF TWO KINDS:  WE KNOW A SUBJECT OURSELVES OR WE KNOW 
 WHERE WE CAN FIND INFORMATION UPON IT.

                                    -- SAMUEL JOHNSON
 Job cpu time:       0 days  0 hours  3 minutes  5.8 seconds.
 Elapsed time:       0 days  0 hours  0 minutes 47.1 seconds.
 File lengths (MBytes):  RWF=    384 Int=      0 D2E=      0 Chk=     56 Scr=     16
 Normal termination of Gaussian 16 at Thu May 26 20:50:43 2022.
