 Entering Gaussian System, Link 0=/opt/software/Gaussian/g16-AVX2-C.01/g16/g16
 Input=charge-conf-797.com
 Output=charge-conf-797.log
 Initial command:
 /opt/software/Gaussian/g16-AVX2-C.01/g16/l1.exe "/mnt/gs18/scratch/users/kengmith/Gau-37295.inp" -scrdir="/mnt/gs18/scratch/users/kengmith/"
 Entering Link 1 = /opt/software/Gaussian/g16-AVX2-C.01/g16/l1.exe PID=     37305.
  
 Copyright (c) 1988-2019, Gaussian, Inc.  All Rights Reserved.
  
 This is part of the Gaussian(R) 16 program.  It is based on
 the Gaussian(R) 09 system (copyright 2009, Gaussian, Inc.),
 the Gaussian(R) 03 system (copyright 2003, Gaussian, Inc.),
 the Gaussian(R) 98 system (copyright 1998, Gaussian, Inc.),
 the Gaussian(R) 94 system (copyright 1995, Gaussian, Inc.),
 the Gaussian 92(TM) system (copyright 1992, Gaussian, Inc.),
 the Gaussian 90(TM) system (copyright 1990, Gaussian, Inc.),
 the Gaussian 88(TM) system (copyright 1988, Gaussian, Inc.),
 the Gaussian 86(TM) system (copyright 1986, Carnegie Mellon
 University), and the Gaussian 82(TM) system (copyright 1983,
 Carnegie Mellon University). Gaussian is a federally registered
 trademark of Gaussian, Inc.
  
 This software contains proprietary and confidential information,
 including trade secrets, belonging to Gaussian, Inc.
  
 This software is provided under written license and may be
 used, copied, transmitted, or stored only in accord with that
 written license.
  
 The following legend is applicable only to US Government
 contracts under FAR:
  
                    RESTRICTED RIGHTS LEGEND
  
 Use, reproduction and disclosure by the US Government is
 subject to restrictions as set forth in subparagraphs (a)
 and (c) of the Commercial Computer Software - Restricted
 Rights clause in FAR 52.227-19.
  
 Gaussian, Inc.
 340 Quinnipiac St., Bldg. 40, Wallingford CT 06492
  
  
 ---------------------------------------------------------------
 Warning -- This program may not be used in any manner that
 competes with the business of Gaussian, Inc. or will provide
 assistance to any competitor of Gaussian, Inc.  The licensee
 of this program is prohibited from giving any competitor of
 Gaussian, Inc. access to this program.  By using this program,
 the user acknowledges that Gaussian, Inc. is engaged in the
 business of creating and licensing software in the field of
 computational chemistry and represents and warrants to the
 licensee that it is not a competitor of Gaussian, Inc. and that
 it will not use this program in any manner prohibited above.
 ---------------------------------------------------------------
  

 Cite this work as:
 Gaussian 16, Revision C.01,
 M. J. Frisch, G. W. Trucks, H. B. Schlegel, G. E. Scuseria, 
 M. A. Robb, J. R. Cheeseman, G. Scalmani, V. Barone, 
 G. A. Petersson, H. Nakatsuji, X. Li, M. Caricato, A. V. Marenich, 
 J. Bloino, B. G. Janesko, R. Gomperts, B. Mennucci, H. P. Hratchian, 
 J. V. Ortiz, A. F. Izmaylov, J. L. Sonnenberg, D. Williams-Young, 
 F. Ding, F. Lipparini, F. Egidi, J. Goings, B. Peng, A. Petrone, 
 T. Henderson, D. Ranasinghe, V. G. Zakrzewski, J. Gao, N. Rega, 
 G. Zheng, W. Liang, M. Hada, M. Ehara, K. Toyota, R. Fukuda, 
 J. Hasegawa, M. Ishida, T. Nakajima, Y. Honda, O. Kitao, H. Nakai, 
 T. Vreven, K. Throssell, J. A. Montgomery, Jr., J. E. Peralta, 
 F. Ogliaro, M. J. Bearpark, J. J. Heyd, E. N. Brothers, K. N. Kudin, 
 V. N. Staroverov, T. A. Keith, R. Kobayashi, J. Normand, 
 K. Raghavachari, A. P. Rendell, J. C. Burant, S. S. Iyengar, 
 J. Tomasi, M. Cossi, J. M. Millam, M. Klene, C. Adamo, R. Cammi, 
 J. W. Ochterski, R. L. Martin, K. Morokuma, O. Farkas, 
 J. B. Foresman, and D. J. Fox, Gaussian, Inc., Wallingford CT, 2019.
 
 ******************************************
 Gaussian 16:  ES64L-G16RevC.01  3-Jul-2019
                26-May-2022 
 ******************************************
 %mem=8gb
 %nproc=4
 Will use up to    4 processors via shared memory.
 %chk=conf-797.chk
 -------------------------------------------------------------------
 # B3LYP/6-31G* guess=read geom=check nosymm integral(ultrafinegrid)
 -------------------------------------------------------------------
 1/29=2,38=1,172=1/1;
 2/12=2,15=1,40=1/2;
 3/5=1,6=6,7=1,11=2,14=-4,25=1,30=1,74=-5,75=-5,116=-2/1,2,3;
 4/5=1/1;
 5/5=2,38=6/2;
 6/7=2,8=2,9=2,10=2,28=1/1;
 99/5=1,9=1/99;
 ------------------------------------------------------
 Candidate Structure: Conf:797 Charge calc in gas phase
 ------------------------------------------------------
 Structure from the checkpoint file:  "conf-797.chk"
 Charge =  1 Multiplicity = 1
 Redundant internal coordinates found in file.  (old form).
 N,0,-3.8411357355,-0.8755409354,-5.2089325173
 H,0,-2.8952877473,-1.2514312779,-5.2647681363
 H,0,-4.4857629318,-1.6293549471,-5.4404814096
 C,0,-4.0867510536,-0.419957016,-3.845150669
 H,0,-5.0621964131,0.0834590049,-3.8297741637
 C,0,-2.9815386898,0.5824533416,-3.515364389
 C,0,-4.0958031725,-1.5255949417,-2.7415977151
 H,0,-3.1009586592,-1.9854434958,-2.7234459284
 H,0,-4.2481773596,-1.0456416131,-1.7651244447
 O,0,-1.7927764815,0.2621456161,-3.6199333803
 C,0,-5.1653382109,-2.567287099,-2.975759767
 C,0,-6.4781371365,-2.3589433861,-2.5277969297
 H,0,-6.7159630531,-1.4550704401,-1.9700263833
 C,0,-4.8827057437,-3.744749643,-3.6830684863
 H,0,-3.8670405104,-3.9324650534,-4.0242563726
 C,0,-7.4791299113,-3.2969878267,-2.7784836111
 H,0,-8.488810538,-3.1192784576,-2.4180582027
 C,0,-5.8824680003,-4.6863358943,-3.9372204163
 H,0,-5.6416949627,-5.5949565976,-4.4824574667
 C,0,-7.1839977346,-4.4643160188,-3.4865053936
 H,0,-7.9622085156,-5.1971200932,-3.680331455
 N,0,-3.3734231496,1.8034674484,-3.0538336537
 H,0,-4.3242184816,2.0828978138,-3.2729756245
 C,0,-2.4456983873,2.9404526755,-2.9934901169
 H,0,-1.8054367967,2.9109218905,-3.8859488234
 C,0,-1.5268508271,2.9107868866,-1.7547757013
 C,0,-3.2633244667,4.2361354718,-2.9910171809
 H,0,-2.5813338569,5.0860308094,-3.1152469626
 H,0,-3.7672772332,4.3504595289,-2.0221153792
 O,0,-1.531258648,3.8498804983,-0.9381397993
 O,0,-4.1951954976,4.131889845,-4.0599670631
 H,0,-4.7539669389,4.9234859803,-4.0570238956
 N,0,-0.7053045886,1.8506792069,-1.6421446632
 H,0,-0.8026726977,1.0794017096,-2.3160347975
 C,0,0.2730169907,1.7903485517,-0.5737604864
 H,0,0.9232649478,2.6737718879,-0.6420772946
 C,0,1.1188028856,0.5172319625,-0.6905958974
 C,0,-0.3691021594,1.8238514381,0.8480235374
 H,0,0.2126277061,1.2136903804,1.5448495152
 H,0,-1.3810818066,1.4072866655,0.7946524733
 O,0,0.6405139534,-0.5710030235,-0.9710689814
 O,0,-0.3774959102,3.1476405263,1.3878169534
 H,0,-0.8199105495,3.6909799496,0.6839186155
 N,0,2.4278804315,0.7082233778,-0.3485610014
 H,0,2.7553669494,1.6289572392,-0.0837289408
 C,0,3.3046595636,-0.3768878416,0.0512953074
 H,0,2.6794184084,-1.2152401702,0.376323229
 C,0,4.1155525716,0.1506170196,1.2599951393
 C,0,4.1779968672,-0.8752955805,-1.1243851073
 H,0,3.553456034,-0.9002851493,-2.0234786517
 H,0,5.0048450162,-0.188190335,-1.3417388201
 O,0,4.0997826567,1.3648913524,1.5408062124
 C,0,4.7307054766,-2.2690966209,-0.9081928546
 O,0,4.6441983281,-2.9051612707,0.1277215381
 O,0,5.3225085313,-2.7444087454,-2.0099971423
 N,0,4.7990998858,-0.7487447781,1.9797937006
 H,0,4.8621014079,-1.7077801452,1.626720277
 C,0,5.6309306037,-0.3571469565,3.1100657796
 H,0,5.8663369071,0.7047970916,2.995142239
 C,0,6.9405093122,-1.1409238482,3.0333817618
 C,0,4.9393508586,-0.5977076561,4.4790276566
 H,0,5.6384905447,-0.2982571725,5.267966464
 H,0,4.7791946245,-1.6762987677,4.5948798693
 O,0,7.1573420398,-2.0434136877,2.2597408421
 C,0,3.586009847,0.1087301078,4.6635623741
 H,0,3.0935651321,-0.3296393952,5.5410904298
 H,0,2.9345970595,-0.1078077869,3.8088127173
 C,0,3.6712785823,1.6313248401,4.8669937442
 H,0,4.2349982463,1.8700447759,5.7744512085
 H,0,4.1836679069,2.1230076323,4.0380569198
 N,0,2.3403687243,2.2419652547,5.0128797368
 H,0,1.8519138622,2.0403333922,5.8758263418
 N,0,2.0736415584,2.8902231171,2.7780070526
 H,0,1.415768233,3.2502311861,2.0820753099
 H,0,2.8961226659,2.3851903781,2.4401535827
 N,0,0.3254732612,3.1240404687,4.2446399215
 H,0,-0.0528601614,3.1895117599,5.177225784
 H,0,-0.2661746077,3.3524472759,3.4462171753
 C,0,1.5914330084,2.7367529453,4.010224766
 O,0,7.8177765991,-0.7030005079,3.9564461549
 H,0,8.6243885564,-1.2476715421,3.8717967499
 H,0,5.65839452,-3.6381044764,-1.8013023232
 Recover connectivity data from disk.
                           ----------------------------
                           !    Current Parameters    !
                           ! (Angstroms and Degrees)  !
 --------------------------                            --------------------------
 ! Name  Definition              Value                                          !
 --------------------------------------------------------------------------------
 ! R1    R(1,2)                  1.0193                                         !
 ! R2    R(1,3)                  1.0185                                         !
 ! R3    R(1,4)                  1.4587                                         !
 ! R4    R(4,5)                  1.0978                                         !
 ! R5    R(4,6)                  1.5281                                         !
 ! R6    R(4,7)                  1.5622                                         !
 ! R7    R(6,10)                 1.2356                                         !
 ! R8    R(6,22)                 1.3629                                         !
 ! R9    R(7,8)                  1.0961                                         !
 ! R10   R(7,9)                  1.0987                                         !
 ! R11   R(7,11)                 1.5112                                         !
 ! R12   R(11,12)                1.4027                                         !
 ! R13   R(11,14)                1.4023                                         !
 ! R14   R(12,13)                1.0884                                         !
 ! R15   R(12,16)                1.3945                                         !
 ! R16   R(14,15)                1.0878                                         !
 ! R17   R(14,18)                1.3967                                         !
 ! R18   R(16,17)                1.0867                                         !
 ! R19   R(16,20)                1.3968                                         !
 ! R20   R(18,19)                1.0867                                         !
 ! R21   R(18,20)                1.3951                                         !
 ! R22   R(20,21)                1.0864                                         !
 ! R23   R(22,23)                1.0149                                         !
 ! R24   R(22,24)                1.4687                                         !
 ! R25   R(24,25)                1.0988                                         !
 ! R26   R(24,26)                1.5426                                         !
 ! R27   R(24,27)                1.5321                                         !
 ! R28   R(26,30)                1.2445                                         !
 ! R29   R(26,33)                1.3459                                         !
 ! R30   R(27,28)                1.0968                                         !
 ! R31   R(27,29)                1.0981                                         !
 ! R32   R(27,31)                1.4219                                         !
 ! R33   R(31,32)                0.9689                                         !
 ! R34   R(33,34)                1.0288                                         !
 ! R35   R(33,35)                1.4499                                         !
 ! R36   R(35,36)                1.0991                                         !
 ! R37   R(35,37)                1.5329                                         !
 ! R38   R(35,38)                1.5604                                         !
 ! R39   R(37,41)                1.2213                                         !
 ! R40   R(37,44)                1.3664                                         !
 ! R41   R(38,39)                1.0937                                         !
 ! R42   R(38,40)                1.0957                                         !
 ! R43   R(38,42)                1.4296                                         !
 ! R44   R(42,43)                0.9932                                         !
 ! R45   R(44,45)                1.0125                                         !
 ! R46   R(44,46)                1.4512                                         !
 ! R47   R(46,47)                1.0952                                         !
 ! R48   R(46,48)                1.5481                                         !
 ! R49   R(46,49)                1.547                                          !
 ! R50   R(48,52)                1.2464                                         !
 ! R51   R(48,56)                1.3395                                         !
 ! R52   R(49,50)                1.095                                          !
 ! R53   R(49,51)                1.0968                                         !
 ! R54   R(49,53)                1.5149                                         !
 ! R55   R(53,54)                1.2187                                         !
 ! R56   R(53,55)                1.338                                          !
 ! R57   R(55,82)                0.9773                                         !
 ! R58   R(56,57)                1.0239                                         !
 ! R59   R(56,58)                1.457                                          !
 ! R60   R(58,59)                1.0938                                         !
 ! R61   R(58,60)                1.5281                                         !
 ! R62   R(58,61)                1.5525                                         !
 ! R63   R(60,64)                1.2083                                         !
 ! R64   R(60,80)                1.3466                                         !
 ! R65   R(61,62)                1.0959                                         !
 ! R66   R(61,63)                1.0966                                         !
 ! R67   R(61,65)                1.5377                                         !
 ! R68   R(65,66)                1.0976                                         !
 ! R69   R(65,67)                1.0963                                         !
 ! R70   R(65,68)                1.5385                                         !
 ! R71   R(68,69)                1.0946                                         !
 ! R72   R(68,70)                1.0915                                         !
 ! R73   R(68,71)                1.4716                                         !
 ! R74   R(71,72)                1.0119                                         !
 ! R75   R(71,79)                1.3457                                         !
 ! R76   R(73,74)                1.0231                                         !
 ! R77   R(73,75)                1.0226                                         !
 ! R78   R(73,79)                1.3321                                         !
 ! R79   R(76,77)                1.0085                                         !
 ! R80   R(76,78)                1.0197                                         !
 ! R81   R(76,79)                1.3445                                         !
 ! R82   R(80,81)                0.977                                          !
 ! A1    A(2,1,3)              107.5719                                         !
 ! A2    A(2,1,4)              108.8219                                         !
 ! A3    A(3,1,4)              109.702                                          !
 ! A4    A(1,4,5)              107.8142                                         !
 ! A5    A(1,4,6)              106.5511                                         !
 ! A6    A(1,4,7)              116.1286                                         !
 ! A7    A(5,4,6)              109.8046                                         !
 ! A8    A(5,4,7)              108.03                                           !
 ! A9    A(6,4,7)              108.4221                                         !
 ! A10   A(4,6,10)             120.4994                                         !
 ! A11   A(4,6,22)             116.9246                                         !
 ! A12   A(10,6,22)            122.517                                          !
 ! A13   A(4,7,8)              107.6595                                         !
 ! A14   A(4,7,9)              108.6312                                         !
 ! A15   A(4,7,11)             112.4885                                         !
 ! A16   A(8,7,9)              107.1229                                         !
 ! A17   A(8,7,11)             110.8373                                         !
 ! A18   A(9,7,11)             109.9182                                         !
 ! A19   A(7,11,12)            120.6972                                         !
 ! A20   A(7,11,14)            120.9488                                         !
 ! A21   A(12,11,14)           118.3215                                         !
 ! A22   A(11,12,13)           119.44                                           !
 ! A23   A(11,12,16)           120.9624                                         !
 ! A24   A(13,12,16)           119.596                                          !
 ! A25   A(11,14,15)           119.4249                                         !
 ! A26   A(11,14,18)           120.9015                                         !
 ! A27   A(15,14,18)           119.6668                                         !
 ! A28   A(12,16,17)           119.821                                          !
 ! A29   A(12,16,20)           120.1061                                         !
 ! A30   A(17,16,20)           120.0725                                         !
 ! A31   A(14,18,19)           119.7623                                         !
 ! A32   A(14,18,20)           120.1135                                         !
 ! A33   A(19,18,20)           120.1233                                         !
 ! A34   A(16,20,18)           119.5949                                         !
 ! A35   A(16,20,21)           120.1861                                         !
 ! A36   A(18,20,21)           120.2182                                         !
 ! A37   A(6,22,23)            116.2893                                         !
 ! A38   A(6,22,24)            121.7252                                         !
 ! A39   A(23,22,24)           112.7977                                         !
 ! A40   A(22,24,25)           108.2944                                         !
 ! A41   A(22,24,26)           113.2261                                         !
 ! A42   A(22,24,27)           108.5215                                         !
 ! A43   A(25,24,26)           107.7356                                         !
 ! A44   A(25,24,27)           109.5733                                         !
 ! A45   A(26,24,27)           109.4417                                         !
 ! A46   A(24,26,30)           120.6842                                         !
 ! A47   A(24,26,33)           116.4833                                         !
 ! A48   A(30,26,33)           122.7929                                         !
 ! A49   A(24,27,28)           108.8635                                         !
 ! A50   A(24,27,29)           109.5353                                         !
 ! A51   A(24,27,31)           106.6501                                         !
 ! A52   A(28,27,29)           107.7367                                         !
 ! A53   A(28,27,31)           112.2826                                         !
 ! A54   A(29,27,31)           111.7267                                         !
 ! A55   A(27,31,32)           108.4062                                         !
 ! A56   A(26,33,34)           118.5482                                         !
 ! A57   A(26,33,35)           120.4185                                         !
 ! A58   A(34,33,35)           121.019                                          !
 ! A59   A(33,35,36)           108.6606                                         !
 ! A60   A(33,35,37)           110.5296                                         !
 ! A61   A(33,35,38)           113.1317                                         !
 ! A62   A(36,35,37)           109.6575                                         !
 ! A63   A(36,35,38)           106.4299                                         !
 ! A64   A(37,35,38)           108.3201                                         !
 ! A65   A(35,37,41)           122.7816                                         !
 ! A66   A(35,37,44)           113.1679                                         !
 ! A67   A(41,37,44)           123.8619                                         !
 ! A68   A(35,38,39)           110.4662                                         !
 ! A69   A(35,38,40)           109.1188                                         !
 ! A70   A(35,38,42)           111.4891                                         !
 ! A71   A(39,38,40)           108.0704                                         !
 ! A72   A(39,38,42)           106.2084                                         !
 ! A73   A(40,38,42)           111.4085                                         !
 ! A74   A(38,42,43)           103.9799                                         !
 ! A75   A(37,44,45)           120.1622                                         !
 ! A76   A(37,44,46)           122.9055                                         !
 ! A77   A(45,44,46)           114.3602                                         !
 ! A78   A(44,46,47)           108.0126                                         !
 ! A79   A(44,46,48)           106.0689                                         !
 ! A80   A(44,46,49)           111.8736                                         !
 ! A81   A(47,46,48)           109.1566                                         !
 ! A82   A(47,46,49)           107.5303                                         !
 ! A83   A(48,46,49)           114.0423                                         !
 ! A84   A(46,48,52)           120.0803                                         !
 ! A85   A(46,48,56)           117.2621                                         !
 ! A86   A(52,48,56)           122.6496                                         !
 ! A87   A(46,49,50)           108.0207                                         !
 ! A88   A(46,49,51)           111.9835                                         !
 ! A89   A(46,49,53)           113.199                                          !
 ! A90   A(50,49,51)           106.3526                                         !
 ! A91   A(50,49,53)           107.7144                                         !
 ! A92   A(51,49,53)           109.245                                          !
 ! A93   A(49,53,54)           125.143                                          !
 ! A94   A(49,53,55)           111.7596                                         !
 ! A95   A(54,53,55)           123.0916                                         !
 ! A96   A(53,55,82)           107.52                                           !
 ! A97   A(48,56,57)           118.3585                                         !
 ! A98   A(48,56,58)           121.8542                                         !
 ! A99   A(57,56,58)           118.9549                                         !
 ! A100  A(56,58,59)           107.5968                                         !
 ! A101  A(56,58,60)           108.2094                                         !
 ! A102  A(56,58,61)           112.8352                                         !
 ! A103  A(59,58,60)           107.9542                                         !
 ! A104  A(59,58,61)           109.8139                                         !
 ! A105  A(60,58,61)           110.2753                                         !
 ! A106  A(58,60,64)           124.6805                                         !
 ! A107  A(58,60,80)           110.9216                                         !
 ! A108  A(64,60,80)           124.3928                                         !
 ! A109  A(58,61,62)           107.9558                                         !
 ! A110  A(58,61,63)           108.0977                                         !
 ! A111  A(58,61,65)           115.2571                                         !
 ! A112  A(62,61,63)           106.6127                                         !
 ! A113  A(62,61,65)           110.46                                           !
 ! A114  A(63,61,65)           108.0988                                         !
 ! A115  A(61,65,66)           107.8977                                         !
 ! A116  A(61,65,67)           109.7943                                         !
 ! A117  A(61,65,68)           114.9448                                         !
 ! A118  A(66,65,67)           106.1334                                         !
 ! A119  A(66,65,68)           108.3254                                         !
 ! A120  A(67,65,68)           109.3604                                         !
 ! A121  A(65,68,69)           110.7313                                         !
 ! A122  A(65,68,70)           111.802                                          !
 ! A123  A(65,68,71)           111.9413                                         !
 ! A124  A(69,68,70)           106.8331                                         !
 ! A125  A(69,68,71)           107.0424                                         !
 ! A126  A(70,68,71)           108.2355                                         !
 ! A127  A(68,71,72)           116.0042                                         !
 ! A128  A(68,71,79)           125.5938                                         !
 ! A129  A(72,71,79)           116.1045                                         !
 ! A130  A(74,73,75)           117.7905                                         !
 ! A131  A(74,73,79)           115.9124                                         !
 ! A132  A(75,73,79)           122.6757                                         !
 ! A133  A(77,76,78)           119.4627                                         !
 ! A134  A(77,76,79)           122.2187                                         !
 ! A135  A(78,76,79)           118.3178                                         !
 ! A136  A(71,79,73)           122.0122                                         !
 ! A137  A(71,79,76)           120.0019                                         !
 ! A138  A(73,79,76)           117.9665                                         !
 ! A139  A(60,80,81)           107.2874                                         !
 ! D1    D(2,1,4,5)            173.6758                                         !
 ! D2    D(2,1,4,6)             55.8519                                         !
 ! D3    D(2,1,4,7)            -65.0102                                         !
 ! D4    D(3,1,4,5)            -68.8824                                         !
 ! D5    D(3,1,4,6)            173.2937                                         !
 ! D6    D(3,1,4,7)             52.4316                                         !
 ! D7    D(1,4,6,10)           -55.5964                                         !
 ! D8    D(1,4,6,22)           127.1255                                         !
 ! D9    D(5,4,6,10)          -172.099                                          !
 ! D10   D(5,4,6,22)            10.6229                                         !
 ! D11   D(7,4,6,10)            70.0814                                         !
 ! D12   D(7,4,6,22)          -107.1967                                         !
 ! D13   D(1,4,7,8)             61.9751                                         !
 ! D14   D(1,4,7,9)            177.659                                          !
 ! D15   D(1,4,7,11)           -60.4248                                         !
 ! D16   D(5,4,7,8)           -176.8258                                         !
 ! D17   D(5,4,7,9)            -61.142                                          !
 ! D18   D(5,4,7,11)            60.7742                                         !
 ! D19   D(6,4,7,8)            -57.8805                                         !
 ! D20   D(6,4,7,9)             57.8034                                         !
 ! D21   D(6,4,7,11)           179.7196                                         !
 ! D22   D(4,6,22,23)          -21.4345                                         !
 ! D23   D(4,6,22,24)         -165.8739                                         !
 ! D24   D(10,6,22,23)         161.3469                                         !
 ! D25   D(10,6,22,24)          16.9075                                         !
 ! D26   D(4,7,11,12)          -84.9914                                         !
 ! D27   D(4,7,11,14)           92.8994                                         !
 ! D28   D(8,7,11,12)          154.4201                                         !
 ! D29   D(8,7,11,14)          -27.689                                          !
 ! D30   D(9,7,11,12)           36.1918                                         !
 ! D31   D(9,7,11,14)         -145.9174                                         !
 ! D32   D(7,11,12,13)          -2.5466                                         !
 ! D33   D(7,11,12,16)         177.9187                                         !
 ! D34   D(14,11,12,13)        179.5082                                         !
 ! D35   D(14,11,12,16)         -0.0264                                         !
 ! D36   D(7,11,14,15)           3.0828                                         !
 ! D37   D(7,11,14,18)        -177.8625                                         !
 ! D38   D(12,11,14,15)       -178.9774                                         !
 ! D39   D(12,11,14,18)          0.0773                                         !
 ! D40   D(11,12,16,17)        179.6629                                         !
 ! D41   D(11,12,16,20)         -0.0947                                         !
 ! D42   D(13,12,16,17)          0.129                                          !
 ! D43   D(13,12,16,20)       -179.6286                                         !
 ! D44   D(11,14,18,19)       -179.6694                                         !
 ! D45   D(11,14,18,20)         -0.0071                                         !
 ! D46   D(15,14,18,19)         -0.617                                          !
 ! D47   D(15,14,18,20)        179.0453                                         !
 ! D48   D(12,16,20,18)          0.1651                                         !
 ! D49   D(12,16,20,21)        179.844                                          !
 ! D50   D(17,16,20,18)       -179.5919                                         !
 ! D51   D(17,16,20,21)          0.0871                                         !
 ! D52   D(14,18,20,16)         -0.1147                                         !
 ! D53   D(14,18,20,21)       -179.7936                                         !
 ! D54   D(19,18,20,16)        179.5463                                         !
 ! D55   D(19,18,20,21)         -0.1325                                         !
 ! D56   D(6,22,24,25)          38.5311                                         !
 ! D57   D(6,22,24,26)         -80.8762                                         !
 ! D58   D(6,22,24,27)         157.4047                                         !
 ! D59   D(23,22,24,25)       -107.025                                          !
 ! D60   D(23,22,24,26)        133.5676                                         !
 ! D61   D(23,22,24,27)         11.8486                                         !
 ! D62   D(22,24,26,30)       -121.0516                                         !
 ! D63   D(22,24,26,33)         61.1716                                         !
 ! D64   D(25,24,26,30)        119.2207                                         !
 ! D65   D(25,24,26,33)        -58.5561                                         !
 ! D66   D(27,24,26,30)          0.1501                                         !
 ! D67   D(27,24,26,33)       -177.6267                                         !
 ! D68   D(22,24,27,28)       -170.641                                          !
 ! D69   D(22,24,27,29)         71.7895                                         !
 ! D70   D(22,24,27,31)        -49.2811                                         !
 ! D71   D(25,24,27,28)        -52.5764                                         !
 ! D72   D(25,24,27,29)       -170.1459                                         !
 ! D73   D(25,24,27,31)         68.7835                                         !
 ! D74   D(26,24,27,28)         65.3515                                         !
 ! D75   D(26,24,27,29)        -52.218                                          !
 ! D76   D(26,24,27,31)       -173.2886                                         !
 ! D77   D(24,26,33,34)         -6.5859                                         !
 ! D78   D(24,26,33,35)        174.774                                          !
 ! D79   D(30,26,33,34)        175.6885                                         !
 ! D80   D(30,26,33,35)         -2.9515                                         !
 ! D81   D(24,27,31,32)        177.4944                                         !
 ! D82   D(28,27,31,32)        -63.3458                                         !
 ! D83   D(29,27,31,32)         57.8321                                         !
 ! D84   D(26,33,35,36)        -57.4836                                         !
 ! D85   D(26,33,35,37)       -177.8552                                         !
 ! D86   D(26,33,35,38)         60.4795                                         !
 ! D87   D(34,33,35,36)        123.9103                                         !
 ! D88   D(34,33,35,37)          3.5387                                         !
 ! D89   D(34,33,35,38)       -118.1265                                         !
 ! D90   D(33,35,37,41)        -41.8753                                         !
 ! D91   D(33,35,37,44)        142.9435                                         !
 ! D92   D(36,35,37,41)       -161.6488                                         !
 ! D93   D(36,35,37,44)         23.17                                           !
 ! D94   D(38,35,37,41)         82.5877                                         !
 ! D95   D(38,35,37,44)        -92.5936                                         !
 ! D96   D(33,35,38,39)        145.9919                                         !
 ! D97   D(33,35,38,40)         27.3205                                         !
 ! D98   D(33,35,38,42)        -96.1602                                         !
 ! D99   D(36,35,38,39)        -94.7518                                         !
 ! D100  D(36,35,38,40)        146.5769                                         !
 ! D101  D(36,35,38,42)         23.0961                                         !
 ! D102  D(37,35,38,39)         23.0932                                         !
 ! D103  D(37,35,38,40)        -95.5782                                         !
 ! D104  D(37,35,38,42)        140.9411                                         !
 ! D105  D(35,37,44,45)         -1.9827                                         !
 ! D106  D(35,37,44,46)        158.7959                                         !
 ! D107  D(41,37,44,45)       -177.1038                                         !
 ! D108  D(41,37,44,46)        -16.3251                                         !
 ! D109  D(35,38,42,43)         53.332                                          !
 ! D110  D(39,38,42,43)        173.7145                                         !
 ! D111  D(40,38,42,43)        -68.8382                                         !
 ! D112  D(37,44,46,47)        -20.5447                                         !
 ! D113  D(37,44,46,48)       -137.4653                                         !
 ! D114  D(37,44,46,49)         97.6094                                         !
 ! D115  D(45,44,46,47)        141.2476                                         !
 ! D116  D(45,44,46,48)         24.3269                                         !
 ! D117  D(45,44,46,49)       -100.5983                                         !
 ! D118  D(44,46,48,52)        -12.2018                                         !
 ! D119  D(44,46,48,56)        166.7986                                         !
 ! D120  D(47,46,48,52)       -128.3521                                         !
 ! D121  D(47,46,48,56)         50.6483                                         !
 ! D122  D(49,46,48,52)        111.3742                                         !
 ! D123  D(49,46,48,56)        -69.6255                                         !
 ! D124  D(44,46,49,50)        -40.7035                                         !
 ! D125  D(44,46,49,51)         76.0797                                         !
 ! D126  D(44,46,49,53)       -159.8827                                         !
 ! D127  D(47,46,49,50)         77.7378                                         !
 ! D128  D(47,46,49,51)       -165.479                                          !
 ! D129  D(47,46,49,53)        -41.4414                                         !
 ! D130  D(48,46,49,50)       -161.0812                                         !
 ! D131  D(48,46,49,51)        -44.298                                          !
 ! D132  D(48,46,49,53)         79.7396                                         !
 ! D133  D(46,48,56,57)          8.4693                                         !
 ! D134  D(46,48,56,58)        177.9093                                         !
 ! D135  D(52,48,56,57)       -172.558                                          !
 ! D136  D(52,48,56,58)         -3.1181                                         !
 ! D137  D(46,49,53,54)         -7.7941                                         !
 ! D138  D(46,49,53,55)        171.3467                                         !
 ! D139  D(50,49,53,54)       -127.1495                                         !
 ! D140  D(50,49,53,55)         51.9913                                         !
 ! D141  D(51,49,53,54)        117.727                                          !
 ! D142  D(51,49,53,55)        -63.1322                                         !
 ! D143  D(49,53,55,82)        179.7038                                         !
 ! D144  D(54,53,55,82)         -1.1348                                         !
 ! D145  D(48,56,58,59)        -20.5617                                         !
 ! D146  D(48,56,58,60)       -136.9704                                         !
 ! D147  D(48,56,58,61)        100.7301                                         !
 ! D148  D(57,56,58,59)        148.8173                                         !
 ! D149  D(57,56,58,60)         32.4086                                         !
 ! D150  D(57,56,58,61)        -89.8908                                         !
 ! D151  D(56,58,60,64)         -8.3919                                         !
 ! D152  D(56,58,60,80)        172.4016                                         !
 ! D153  D(59,58,60,64)       -124.5688                                         !
 ! D154  D(59,58,60,80)         56.2248                                         !
 ! D155  D(61,58,60,64)        115.4603                                         !
 ! D156  D(61,58,60,80)        -63.7461                                         !
 ! D157  D(56,58,61,62)        178.7974                                         !
 ! D158  D(56,58,61,63)         63.8309                                         !
 ! D159  D(56,58,61,65)        -57.2035                                         !
 ! D160  D(59,58,61,62)        -61.1773                                         !
 ! D161  D(59,58,61,63)       -176.1437                                         !
 ! D162  D(59,58,61,65)         62.8219                                         !
 ! D163  D(60,58,61,62)         57.6649                                         !
 ! D164  D(60,58,61,63)        -57.3015                                         !
 ! D165  D(60,58,61,65)       -178.3359                                         !
 ! D166  D(58,60,80,81)        178.9829                                         !
 ! D167  D(64,60,80,81)         -0.2262                                         !
 ! D168  D(58,61,65,66)        166.1485                                         !
 ! D169  D(58,61,65,67)         50.8982                                         !
 ! D170  D(58,61,65,68)        -72.8802                                         !
 ! D171  D(62,61,65,66)        -71.1789                                         !
 ! D172  D(62,61,65,67)        173.5708                                         !
 ! D173  D(62,61,65,68)         49.7924                                         !
 ! D174  D(63,61,65,66)         45.1147                                         !
 ! D175  D(63,61,65,67)        -70.1356                                         !
 ! D176  D(63,61,65,68)        166.086                                          !
 ! D177  D(61,65,68,69)        -61.6371                                         !
 ! D178  D(61,65,68,70)         57.3681                                         !
 ! D179  D(61,65,68,71)        179.0018                                         !
 ! D180  D(66,65,68,69)         59.1001                                         !
 ! D181  D(66,65,68,70)        178.1053                                         !
 ! D182  D(66,65,68,71)        -60.261                                          !
 ! D183  D(67,65,68,69)        174.3548                                         !
 ! D184  D(67,65,68,70)        -66.64                                           !
 ! D185  D(67,65,68,71)         54.9938                                         !
 ! D186  D(65,68,71,72)         70.7378                                         !
 ! D187  D(65,68,71,79)        -91.2935                                         !
 ! D188  D(69,68,71,72)        -50.7718                                         !
 ! D189  D(69,68,71,79)        147.1969                                         !
 ! D190  D(70,68,71,72)       -165.5999                                         !
 ! D191  D(70,68,71,79)         32.3688                                         !
 ! D192  D(68,71,79,73)         -9.6117                                         !
 ! D193  D(68,71,79,76)        172.0233                                         !
 ! D194  D(72,71,79,73)       -171.6271                                         !
 ! D195  D(72,71,79,76)         10.0079                                         !
 ! D196  D(74,73,79,71)        178.3776                                         !
 ! D197  D(74,73,79,76)         -3.2255                                         !
 ! D198  D(75,73,79,71)         20.3407                                         !
 ! D199  D(75,73,79,76)       -161.2624                                         !
 ! D200  D(77,76,79,71)          9.3611                                         !
 ! D201  D(77,76,79,73)       -169.0693                                         !
 ! D202  D(78,76,79,71)       -170.3041                                         !
 ! D203  D(78,76,79,73)         11.2656                                         !
 --------------------------------------------------------------------------------
 Symmetry turned off by external request.
 Stoichiometry    C25H39N8O10(1+)
 Framework group  C1[X(C25H39N8O10)]
 Deg. of freedom   240
 Full point group                 C1      NOp   1
                          Input orientation:                          
 ---------------------------------------------------------------------
 Center     Atomic      Atomic             Coordinates (Angstroms)
 Number     Number       Type             X           Y           Z
 ---------------------------------------------------------------------
      1          7           0       -3.841136   -0.875541   -5.208933
      2          1           0       -2.895288   -1.251431   -5.264768
      3          1           0       -4.485763   -1.629355   -5.440481
      4          6           0       -4.086751   -0.419957   -3.845151
      5          1           0       -5.062196    0.083459   -3.829774
      6          6           0       -2.981539    0.582453   -3.515364
      7          6           0       -4.095803   -1.525595   -2.741598
      8          1           0       -3.100959   -1.985443   -2.723446
      9          1           0       -4.248177   -1.045642   -1.765124
     10          8           0       -1.792776    0.262146   -3.619933
     11          6           0       -5.165338   -2.567287   -2.975760
     12          6           0       -6.478137   -2.358943   -2.527797
     13          1           0       -6.715963   -1.455070   -1.970026
     14          6           0       -4.882706   -3.744750   -3.683068
     15          1           0       -3.867041   -3.932465   -4.024256
     16          6           0       -7.479130   -3.296988   -2.778484
     17          1           0       -8.488811   -3.119278   -2.418058
     18          6           0       -5.882468   -4.686336   -3.937220
     19          1           0       -5.641695   -5.594957   -4.482457
     20          6           0       -7.183998   -4.464316   -3.486505
     21          1           0       -7.962209   -5.197120   -3.680331
     22          7           0       -3.373423    1.803467   -3.053834
     23          1           0       -4.324218    2.082898   -3.272976
     24          6           0       -2.445698    2.940453   -2.993490
     25          1           0       -1.805437    2.910922   -3.885949
     26          6           0       -1.526851    2.910787   -1.754776
     27          6           0       -3.263324    4.236135   -2.991017
     28          1           0       -2.581334    5.086031   -3.115247
     29          1           0       -3.767277    4.350460   -2.022115
     30          8           0       -1.531259    3.849880   -0.938140
     31          8           0       -4.195195    4.131890   -4.059967
     32          1           0       -4.753967    4.923486   -4.057024
     33          7           0       -0.705305    1.850679   -1.642145
     34          1           0       -0.802673    1.079402   -2.316035
     35          6           0        0.273017    1.790349   -0.573760
     36          1           0        0.923265    2.673772   -0.642077
     37          6           0        1.118803    0.517232   -0.690596
     38          6           0       -0.369102    1.823851    0.848024
     39          1           0        0.212628    1.213690    1.544850
     40          1           0       -1.381082    1.407287    0.794652
     41          8           0        0.640514   -0.571003   -0.971069
     42          8           0       -0.377496    3.147641    1.387817
     43          1           0       -0.819911    3.690980    0.683919
     44          7           0        2.427880    0.708223   -0.348561
     45          1           0        2.755367    1.628957   -0.083729
     46          6           0        3.304660   -0.376888    0.051295
     47          1           0        2.679418   -1.215240    0.376323
     48          6           0        4.115553    0.150617    1.259995
     49          6           0        4.177997   -0.875296   -1.124385
     50          1           0        3.553456   -0.900285   -2.023479
     51          1           0        5.004845   -0.188190   -1.341739
     52          8           0        4.099783    1.364891    1.540806
     53          6           0        4.730705   -2.269097   -0.908193
     54          8           0        4.644198   -2.905161    0.127722
     55          8           0        5.322509   -2.744409   -2.009997
     56          7           0        4.799100   -0.748745    1.979794
     57          1           0        4.862101   -1.707780    1.626720
     58          6           0        5.630931   -0.357147    3.110066
     59          1           0        5.866337    0.704797    2.995142
     60          6           0        6.940509   -1.140924    3.033382
     61          6           0        4.939351   -0.597708    4.479028
     62          1           0        5.638491   -0.298257    5.267966
     63          1           0        4.779195   -1.676299    4.594880
     64          8           0        7.157342   -2.043414    2.259741
     65          6           0        3.586010    0.108730    4.663562
     66          1           0        3.093565   -0.329639    5.541090
     67          1           0        2.934597   -0.107808    3.808813
     68          6           0        3.671279    1.631325    4.866994
     69          1           0        4.234998    1.870045    5.774451
     70          1           0        4.183668    2.123008    4.038057
     71          7           0        2.340369    2.241965    5.012880
     72          1           0        1.851914    2.040333    5.875826
     73          7           0        2.073642    2.890223    2.778007
     74          1           0        1.415768    3.250231    2.082075
     75          1           0        2.896123    2.385190    2.440154
     76          7           0        0.325473    3.124040    4.244640
     77          1           0       -0.052860    3.189512    5.177226
     78          1           0       -0.266175    3.352447    3.446217
     79          6           0        1.591433    2.736753    4.010225
     80          8           0        7.817777   -0.703001    3.956446
     81          1           0        8.624389   -1.247672    3.871797
     82          1           0        5.658395   -3.638104   -1.801302
 ---------------------------------------------------------------------
 Rotational constants (GHZ):           0.0965387           0.0317689           0.0279518
 Standard basis: 6-31G(d) (6D, 7F)
   723 basis functions,  1360 primitive gaussians,   723 cartesian basis functions
   162 alpha electrons      162 beta electrons
       nuclear repulsion energy      5307.1184504075 Hartrees.
 NAtoms=   82 NActive=   82 NUniq=   82 SFac= 1.00D+00 NAtFMM=   60 NAOKFM=T Big=T
 Integral buffers will be    131072 words long.
 Raffenetti 2 integral format.
 Two-electron integral symmetry is turned off.
 One-electron integrals computed using PRISM.
 NBasis=   723 RedAO= T EigKep=  4.68D-04  NBF=   723
 NBsUse=   723 1.00D-06 EigRej= -1.00D+00 NBFU=   723
 Initial guess from the checkpoint file:  "conf-797.chk"
 B after Tr=     0.000000    0.000000    0.000000
         Rot=    1.000000    0.000000    0.000000    0.000000 Ang=   0.00 deg.
 Requested convergence on RMS density matrix=1.00D-08 within 128 cycles.
 Requested convergence on MAX density matrix=1.00D-06.
 Requested convergence on             energy=1.00D-06.
 No special actions if energy rises.
 SCF Done:  E(RB3LYP) =  -2166.31623184     A.U. after    1 cycles
            NFock=  1  Conv=0.44D-08     -V/T= 2.0093

 **********************************************************************

            Population analysis using the SCF Density.

 **********************************************************************

 Alpha  occ. eigenvalues --  -19.29804 -19.29296 -19.26289 -19.24578 -19.24333
 Alpha  occ. eigenvalues --  -19.24250 -19.22996 -19.22022 -19.21736 -19.19917
 Alpha  occ. eigenvalues --  -14.51078 -14.49677 -14.48238 -14.47521 -14.46299
 Alpha  occ. eigenvalues --  -14.44745 -14.44065 -14.36910 -10.46443 -10.42530
 Alpha  occ. eigenvalues --  -10.42412 -10.41347 -10.39136 -10.38496 -10.36331
 Alpha  occ. eigenvalues --  -10.35382 -10.35037 -10.34971 -10.34552 -10.33810
 Alpha  occ. eigenvalues --  -10.32009 -10.31663 -10.30946 -10.30787 -10.30684
 Alpha  occ. eigenvalues --  -10.28825 -10.24978 -10.24866 -10.24091 -10.24050
 Alpha  occ. eigenvalues --  -10.24017 -10.23986 -10.23822  -1.20814  -1.20615
 Alpha  occ. eigenvalues --   -1.16194  -1.14967  -1.14310  -1.13487  -1.12371
 Alpha  occ. eigenvalues --   -1.12020  -1.11630  -1.11494  -1.10278  -1.04815
 Alpha  occ. eigenvalues --   -1.04313  -1.03103  -1.02146  -1.01750  -1.00186
 Alpha  occ. eigenvalues --   -0.94728  -0.92168  -0.90405  -0.89900  -0.86964
 Alpha  occ. eigenvalues --   -0.86416  -0.84156  -0.82792  -0.81511  -0.79731
 Alpha  occ. eigenvalues --   -0.79406  -0.77323  -0.76559  -0.76170  -0.73347
 Alpha  occ. eigenvalues --   -0.72643  -0.72390  -0.71984  -0.71059  -0.69860
 Alpha  occ. eigenvalues --   -0.69627  -0.68458  -0.68349  -0.67008  -0.66134
 Alpha  occ. eigenvalues --   -0.65511  -0.64916  -0.64122  -0.63244  -0.63091
 Alpha  occ. eigenvalues --   -0.61826  -0.61297  -0.60871  -0.60406  -0.59909
 Alpha  occ. eigenvalues --   -0.59625  -0.59512  -0.58816  -0.58327  -0.57887
 Alpha  occ. eigenvalues --   -0.57778  -0.57646  -0.57341  -0.57108  -0.56321
 Alpha  occ. eigenvalues --   -0.55980  -0.55738  -0.55198  -0.54897  -0.54344
 Alpha  occ. eigenvalues --   -0.53221  -0.52909  -0.52679  -0.52258  -0.51830
 Alpha  occ. eigenvalues --   -0.51476  -0.51405  -0.51165  -0.50402  -0.50378
 Alpha  occ. eigenvalues --   -0.49916  -0.49655  -0.49341  -0.49064  -0.48496
 Alpha  occ. eigenvalues --   -0.48152  -0.47883  -0.47639  -0.47609  -0.47191
 Alpha  occ. eigenvalues --   -0.46902  -0.46718  -0.46596  -0.46482  -0.45729
 Alpha  occ. eigenvalues --   -0.45409  -0.44768  -0.44255  -0.42019  -0.41919
 Alpha  occ. eigenvalues --   -0.41912  -0.41760  -0.40642  -0.40601  -0.39559
 Alpha  occ. eigenvalues --   -0.39460  -0.39048  -0.38936  -0.38790  -0.38231
 Alpha  occ. eigenvalues --   -0.37952  -0.37551  -0.36762  -0.35901  -0.35799
 Alpha  occ. eigenvalues --   -0.35340  -0.34567  -0.34085  -0.33146  -0.30357
 Alpha  occ. eigenvalues --   -0.29919  -0.28548
 Alpha virt. eigenvalues --   -0.10722  -0.10088  -0.09166  -0.09156  -0.08565
 Alpha virt. eigenvalues --   -0.07255  -0.06487  -0.06364  -0.05232  -0.04666
 Alpha virt. eigenvalues --   -0.03129  -0.02186  -0.01746  -0.01297  -0.00737
 Alpha virt. eigenvalues --   -0.00385  -0.00298   0.00576   0.01157   0.02200
 Alpha virt. eigenvalues --    0.02462   0.03065   0.03513   0.03687   0.04045
 Alpha virt. eigenvalues --    0.04149   0.04483   0.04678   0.04873   0.05543
 Alpha virt. eigenvalues --    0.05726   0.06323   0.06912   0.07090   0.07415
 Alpha virt. eigenvalues --    0.07784   0.07964   0.08055   0.09164   0.09273
 Alpha virt. eigenvalues --    0.09759   0.10161   0.10484   0.10628   0.10923
 Alpha virt. eigenvalues --    0.11189   0.11427   0.11686   0.11874   0.11984
 Alpha virt. eigenvalues --    0.12155   0.12439   0.12830   0.13172   0.13453
 Alpha virt. eigenvalues --    0.13607   0.13943   0.14209   0.14622   0.14660
 Alpha virt. eigenvalues --    0.14763   0.15273   0.15371   0.15655   0.16503
 Alpha virt. eigenvalues --    0.16777   0.18423   0.18783   0.19352   0.21051
 Alpha virt. eigenvalues --    0.21606   0.22241   0.22422   0.22580   0.24556
 Alpha virt. eigenvalues --    0.25013   0.25658   0.25987   0.26390   0.27433
 Alpha virt. eigenvalues --    0.27668   0.27881   0.28790   0.29120   0.29451
 Alpha virt. eigenvalues --    0.31287   0.31779   0.33717   0.35422   0.35979
 Alpha virt. eigenvalues --    0.37501   0.38143   0.39229   0.40054   0.40785
 Alpha virt. eigenvalues --    0.40801   0.41455   0.42545   0.42927   0.43672
 Alpha virt. eigenvalues --    0.44332   0.44665   0.44859   0.45305   0.45470
 Alpha virt. eigenvalues --    0.45880   0.46453   0.46535   0.46947   0.47425
 Alpha virt. eigenvalues --    0.47699   0.48392   0.48523   0.49133   0.49429
 Alpha virt. eigenvalues --    0.49583   0.49929   0.50445   0.50572   0.51034
 Alpha virt. eigenvalues --    0.51696   0.52007   0.52175   0.52588   0.52927
 Alpha virt. eigenvalues --    0.53314   0.53998   0.54235   0.54499   0.54606
 Alpha virt. eigenvalues --    0.54896   0.55056   0.55241   0.55455   0.55763
 Alpha virt. eigenvalues --    0.55964   0.56432   0.56988   0.57262   0.57559
 Alpha virt. eigenvalues --    0.57708   0.58306   0.58962   0.59249   0.59315
 Alpha virt. eigenvalues --    0.60441   0.60770   0.61055   0.61209   0.61950
 Alpha virt. eigenvalues --    0.62343   0.62759   0.63709   0.63959   0.64222
 Alpha virt. eigenvalues --    0.64904   0.65707   0.66220   0.67227   0.68063
 Alpha virt. eigenvalues --    0.68360   0.68666   0.69120   0.69235   0.69531
 Alpha virt. eigenvalues --    0.69929   0.70716   0.71004   0.71917   0.72207
 Alpha virt. eigenvalues --    0.72465   0.72967   0.73055   0.73669   0.74425
 Alpha virt. eigenvalues --    0.74438   0.74728   0.75097   0.75334   0.75600
 Alpha virt. eigenvalues --    0.75818   0.76246   0.76708   0.77065   0.77415
 Alpha virt. eigenvalues --    0.77869   0.78081   0.78576   0.78957   0.79200
 Alpha virt. eigenvalues --    0.79371   0.79733   0.79878   0.80136   0.80721
 Alpha virt. eigenvalues --    0.81010   0.81124   0.81611   0.82397   0.82562
 Alpha virt. eigenvalues --    0.82874   0.83382   0.83558   0.83959   0.84726
 Alpha virt. eigenvalues --    0.84796   0.85171   0.85260   0.85641   0.85874
 Alpha virt. eigenvalues --    0.86418   0.86945   0.87114   0.87970   0.88148
 Alpha virt. eigenvalues --    0.88235   0.88897   0.89231   0.89686   0.89866
 Alpha virt. eigenvalues --    0.90043   0.90560   0.90909   0.91762   0.92438
 Alpha virt. eigenvalues --    0.92657   0.93504   0.94202   0.94388   0.94662
 Alpha virt. eigenvalues --    0.95685   0.96604   0.96879   0.97384   0.98015
 Alpha virt. eigenvalues --    0.98353   0.99301   0.99914   1.00301   1.00929
 Alpha virt. eigenvalues --    1.01676   1.02140   1.02968   1.03622   1.04083
 Alpha virt. eigenvalues --    1.04271   1.05282   1.06078   1.06564   1.07253
 Alpha virt. eigenvalues --    1.07996   1.08555   1.08833   1.10372   1.10673
 Alpha virt. eigenvalues --    1.12073   1.12538   1.13466   1.13755   1.14153
 Alpha virt. eigenvalues --    1.15550   1.16365   1.16512   1.17649   1.18477
 Alpha virt. eigenvalues --    1.19253   1.19718   1.20864   1.21031   1.21934
 Alpha virt. eigenvalues --    1.22295   1.22970   1.23816   1.24333   1.25313
 Alpha virt. eigenvalues --    1.25989   1.27293   1.27535   1.27770   1.28420
 Alpha virt. eigenvalues --    1.29620   1.30072   1.30811   1.31667   1.32392
 Alpha virt. eigenvalues --    1.33153   1.34132   1.35360   1.36360   1.36806
 Alpha virt. eigenvalues --    1.37359   1.38066   1.39094   1.39964   1.40487
 Alpha virt. eigenvalues --    1.41161   1.41963   1.42198   1.43205   1.43506
 Alpha virt. eigenvalues --    1.43881   1.44186   1.45337   1.45479   1.46383
 Alpha virt. eigenvalues --    1.46627   1.47328   1.49033   1.49536   1.49844
 Alpha virt. eigenvalues --    1.50789   1.52129   1.52523   1.53298   1.54410
 Alpha virt. eigenvalues --    1.54624   1.55073   1.55326   1.56304   1.57451
 Alpha virt. eigenvalues --    1.58261   1.59142   1.59417   1.59575   1.60384
 Alpha virt. eigenvalues --    1.60580   1.61053   1.62524   1.63047   1.64112
 Alpha virt. eigenvalues --    1.64700   1.65468   1.66006   1.66288   1.66631
 Alpha virt. eigenvalues --    1.67096   1.68074   1.68637   1.68986   1.69452
 Alpha virt. eigenvalues --    1.69723   1.69808   1.70040   1.71183   1.72237
 Alpha virt. eigenvalues --    1.72544   1.72669   1.73487   1.74197   1.74370
 Alpha virt. eigenvalues --    1.74734   1.75101   1.75363   1.75788   1.76001
 Alpha virt. eigenvalues --    1.76598   1.77507   1.77788   1.78733   1.79523
 Alpha virt. eigenvalues --    1.80319   1.80671   1.81030   1.81848   1.82139
 Alpha virt. eigenvalues --    1.82879   1.83153   1.83753   1.83959   1.84296
 Alpha virt. eigenvalues --    1.84940   1.85794   1.86199   1.86712   1.87143
 Alpha virt. eigenvalues --    1.87966   1.87981   1.88634   1.88942   1.89371
 Alpha virt. eigenvalues --    1.89847   1.90908   1.91241   1.91959   1.92548
 Alpha virt. eigenvalues --    1.92686   1.93618   1.93984   1.94570   1.95436
 Alpha virt. eigenvalues --    1.96361   1.97169   1.97529   1.98271   1.98446
 Alpha virt. eigenvalues --    1.98684   1.99250   2.00051   2.00882   2.01151
 Alpha virt. eigenvalues --    2.01469   2.02928   2.03593   2.04296   2.05400
 Alpha virt. eigenvalues --    2.06524   2.07468   2.08610   2.08842   2.09679
 Alpha virt. eigenvalues --    2.10201   2.10863   2.11509   2.12128   2.13076
 Alpha virt. eigenvalues --    2.14618   2.15887   2.16265   2.17087   2.17638
 Alpha virt. eigenvalues --    2.18145   2.19917   2.20289   2.21529   2.21603
 Alpha virt. eigenvalues --    2.22579   2.22995   2.23400   2.23661   2.24144
 Alpha virt. eigenvalues --    2.25070   2.25700   2.26966   2.27839   2.28097
 Alpha virt. eigenvalues --    2.29191   2.29499   2.30006   2.31148   2.31962
 Alpha virt. eigenvalues --    2.32084   2.33539   2.33890   2.34416   2.34684
 Alpha virt. eigenvalues --    2.35288   2.35824   2.35945   2.36693   2.37708
 Alpha virt. eigenvalues --    2.38088   2.39866   2.40465   2.40842   2.41678
 Alpha virt. eigenvalues --    2.42421   2.43445   2.43933   2.44690   2.45934
 Alpha virt. eigenvalues --    2.46808   2.47304   2.47711   2.49522   2.50660
 Alpha virt. eigenvalues --    2.51346   2.52051   2.52398   2.53209   2.54149
 Alpha virt. eigenvalues --    2.54357   2.54958   2.56073   2.56327   2.58134
 Alpha virt. eigenvalues --    2.58935   2.60212   2.61093   2.62184   2.63768
 Alpha virt. eigenvalues --    2.64778   2.66399   2.67020   2.67240   2.67598
 Alpha virt. eigenvalues --    2.67738   2.69519   2.70144   2.70473   2.70500
 Alpha virt. eigenvalues --    2.71440   2.73152   2.75132   2.75166   2.78095
 Alpha virt. eigenvalues --    2.78826   2.80604   2.81502   2.82522   2.85068
 Alpha virt. eigenvalues --    2.87120   2.87652   2.88676   2.90765   2.91036
 Alpha virt. eigenvalues --    2.91094   2.93843   2.95914   2.96848   2.97720
 Alpha virt. eigenvalues --    2.99645   3.00186   3.01262   3.05416   3.07111
 Alpha virt. eigenvalues --    3.09569   3.11202   3.35761   3.70484   3.72505
 Alpha virt. eigenvalues --    3.74973   3.75575   3.75746   3.82755   3.86600
 Alpha virt. eigenvalues --    3.89451   3.89760   3.91406   3.95085   3.97124
 Alpha virt. eigenvalues --    4.00076   4.03768   4.04229   4.04522   4.06960
 Alpha virt. eigenvalues --    4.07132   4.08768   4.09489   4.14875   4.15590
 Alpha virt. eigenvalues --    4.16369   4.17581   4.20014   4.22967   4.24656
 Alpha virt. eigenvalues --    4.25056   4.28641   4.29604   4.31555   4.34444
 Alpha virt. eigenvalues --    4.36777   4.37320   4.39423   4.41417   4.46797
 Alpha virt. eigenvalues --    4.51168   4.53722   4.56959   4.59406   4.61118
 Alpha virt. eigenvalues --    4.65796
          Condensed to atoms (all electrons):
 Mulliken charges:
               1
     1  N   -0.713899
     2  H    0.314681
     3  H    0.315919
     4  C   -0.059210
     5  H    0.142482
     6  C    0.648540
     7  C   -0.365347
     8  H    0.166606
     9  H    0.139524
    10  O   -0.553350
    11  C    0.167650
    12  C   -0.179150
    13  H    0.119690
    14  C   -0.196012
    15  H    0.128096
    16  C   -0.126620
    17  H    0.138209
    18  C   -0.126792
    19  H    0.139939
    20  C   -0.129040
    21  H    0.141067
    22  N   -0.612065
    23  H    0.362858
    24  C   -0.067542
    25  H    0.199879
    26  C    0.648544
    27  C   -0.056718
    28  H    0.161125
    29  H    0.154251
    30  O   -0.579487
    31  O   -0.625102
    32  H    0.414419
    33  N   -0.640904
    34  H    0.414913
    35  C   -0.037046
    36  H    0.164404
    37  C    0.569872
    38  C   -0.048463
    39  H    0.149374
    40  H    0.186327
    41  O   -0.492775
    42  O   -0.677110
    43  H    0.452472
    44  N   -0.614024
    45  H    0.344867
    46  C   -0.057305
    47  H    0.212926
    48  C    0.605639
    49  C   -0.368126
    50  H    0.230239
    51  H    0.204309
    52  O   -0.579109
    53  C    0.614028
    54  O   -0.477059
    55  O   -0.545032
    56  N   -0.604651
    57  H    0.409798
    58  C   -0.062544
    59  H    0.206203
    60  C    0.588440
    61  C   -0.279311
    62  H    0.182015
    63  H    0.173069
    64  O   -0.442528
    65  C   -0.268684
    66  H    0.159721
    67  H    0.154722
    68  C   -0.176772
    69  H    0.188996
    70  H    0.198537
    71  N   -0.601689
    72  H    0.352665
    73  N   -0.820393
    74  H    0.395255
    75  H    0.429269
    76  N   -0.786754
    77  H    0.366555
    78  H    0.407627
    79  C    0.801900
    80  O   -0.561280
    81  H    0.432268
    82  H    0.432006
 Sum of Mulliken charges =   1.00000
 Mulliken charges with hydrogens summed into heavy atoms:
               1
     1  N   -0.083299
     4  C    0.083272
     6  C    0.648540
     7  C   -0.059218
    10  O   -0.553350
    11  C    0.167650
    12  C   -0.059460
    14  C   -0.067916
    16  C    0.011589
    18  C    0.013147
    20  C    0.012027
    22  N   -0.249207
    24  C    0.132337
    26  C    0.648544
    27  C    0.258657
    30  O   -0.579487
    31  O   -0.210683
    33  N   -0.225991
    35  C    0.127359
    37  C    0.569872
    38  C    0.287238
    41  O   -0.492775
    42  O   -0.224638
    44  N   -0.269157
    46  C    0.155622
    48  C    0.605639
    49  C    0.066421
    52  O   -0.579109
    53  C    0.614028
    54  O   -0.477059
    55  O   -0.113025
    56  N   -0.194853
    58  C    0.143658
    60  C    0.588440
    61  C    0.075773
    64  O   -0.442528
    65  C    0.045759
    68  C    0.210761
    71  N   -0.249024
    73  N    0.004131
    76  N   -0.012572
    79  C    0.801900
    80  O   -0.129012
 Electronic spatial extent (au):  <R**2>=          38305.0664
 Charge=              1.0000 electrons
 Dipole moment (field-independent basis, Debye):
    X=              7.6372    Y=              6.6452    Z=             12.6926  Tot=             16.2354
 Quadrupole moment (field-independent basis, Debye-Ang):
   XX=           -138.4914   YY=           -205.2972   ZZ=           -163.1725
   XY=            -14.5357   XZ=             49.1387   YZ=             24.1779
 Traceless Quadrupole moment (field-independent basis, Debye-Ang):
   XX=             30.4957   YY=            -36.3102   ZZ=              5.8145
   XY=            -14.5357   XZ=             49.1387   YZ=             24.1779
 Octapole moment (field-independent basis, Debye-Ang**2):
  XXX=             51.1598  YYY=            -56.9591  ZZZ=            713.2891  XYY=           -174.0420
  XXY=           -107.3201  XXZ=            182.2149  XZZ=            134.9294  YZZ=             64.9472
  YYZ=            -18.4781  XYZ=             17.9212
 Hexadecapole moment (field-independent basis, Debye-Ang**3):
 XXXX=         -20653.8060 YYYY=          -7694.1691 ZZZZ=         -11833.0949 XXXY=          -1197.3049
 XXXZ=          -4649.2089 YYYX=          -1043.1918 YYYZ=          -1202.4827 ZZZX=          -6109.4759
 ZZZY=           -432.7323 XXYY=          -4806.5169 XXZZ=          -5401.2056 YYZZ=          -2817.4162
 XXYZ=           -444.1519 YYXZ=          -1797.9118 ZZXY=           -237.1016
 N-N= 5.307118450407D+03 E-N=-1.564005207244D+04  KE= 2.146451131181D+03
 Unable to Open any file for archive entry.
 1\1\GINC-AMR-177\SP\RB3LYP\6-31G(d)\C25H39N8O10(1+)\KENGMITH\26-May-20
 22\0\\# B3LYP/6-31G* guess=read geom=check nosymm integral(ultrafinegr
 id)\\Candidate Structure: Conf:797 Charge calc in gas phase\\1,1\N,0,-
 3.8411357355,-0.8755409354,-5.2089325173\H,0,-2.8952877473,-1.25143127
 79,-5.2647681363\H,0,-4.4857629318,-1.6293549471,-5.4404814096\C,0,-4.
 0867510536,-0.419957016,-3.845150669\H,0,-5.0621964131,0.0834590049,-3
 .8297741637\C,0,-2.9815386898,0.5824533416,-3.515364389\C,0,-4.0958031
 725,-1.5255949417,-2.7415977151\H,0,-3.1009586592,-1.9854434958,-2.723
 4459284\H,0,-4.2481773596,-1.0456416131,-1.7651244447\O,0,-1.792776481
 5,0.2621456161,-3.6199333803\C,0,-5.1653382109,-2.567287099,-2.9757597
 67\C,0,-6.4781371365,-2.3589433861,-2.5277969297\H,0,-6.7159630531,-1.
 4550704401,-1.9700263833\C,0,-4.8827057437,-3.744749643,-3.6830684863\
 H,0,-3.8670405104,-3.9324650534,-4.0242563726\C,0,-7.4791299113,-3.296
 9878267,-2.7784836111\H,0,-8.488810538,-3.1192784576,-2.4180582027\C,0
 ,-5.8824680003,-4.6863358943,-3.9372204163\H,0,-5.6416949627,-5.594956
 5976,-4.4824574667\C,0,-7.1839977346,-4.4643160188,-3.4865053936\H,0,-
 7.9622085156,-5.1971200932,-3.680331455\N,0,-3.3734231496,1.8034674484
 ,-3.0538336537\H,0,-4.3242184816,2.0828978138,-3.2729756245\C,0,-2.445
 6983873,2.9404526755,-2.9934901169\H,0,-1.8054367967,2.9109218905,-3.8
 859488234\C,0,-1.5268508271,2.9107868866,-1.7547757013\C,0,-3.26332446
 67,4.2361354718,-2.9910171809\H,0,-2.5813338569,5.0860308094,-3.115246
 9626\H,0,-3.7672772332,4.3504595289,-2.0221153792\O,0,-1.531258648,3.8
 498804983,-0.9381397993\O,0,-4.1951954976,4.131889845,-4.0599670631\H,
 0,-4.7539669389,4.9234859803,-4.0570238956\N,0,-0.7053045886,1.8506792
 069,-1.6421446632\H,0,-0.8026726977,1.0794017096,-2.3160347975\C,0,0.2
 730169907,1.7903485517,-0.5737604864\H,0,0.9232649478,2.6737718879,-0.
 6420772946\C,0,1.1188028856,0.5172319625,-0.6905958974\C,0,-0.36910215
 94,1.8238514381,0.8480235374\H,0,0.2126277061,1.2136903804,1.544849515
 2\H,0,-1.3810818066,1.4072866655,0.7946524733\O,0,0.6405139534,-0.5710
 030235,-0.9710689814\O,0,-0.3774959102,3.1476405263,1.3878169534\H,0,-
 0.8199105495,3.6909799496,0.6839186155\N,0,2.4278804315,0.7082233778,-
 0.3485610014\H,0,2.7553669494,1.6289572392,-0.0837289408\C,0,3.3046595
 636,-0.3768878416,0.0512953074\H,0,2.6794184084,-1.2152401702,0.376323
 229\C,0,4.1155525716,0.1506170196,1.2599951393\C,0,4.1779968672,-0.875
 2955805,-1.1243851073\H,0,3.553456034,-0.9002851493,-2.0234786517\H,0,
 5.0048450162,-0.188190335,-1.3417388201\O,0,4.0997826567,1.3648913524,
 1.5408062124\C,0,4.7307054766,-2.2690966209,-0.9081928546\O,0,4.644198
 3281,-2.9051612707,0.1277215381\O,0,5.3225085313,-2.7444087454,-2.0099
 971423\N,0,4.7990998858,-0.7487447781,1.9797937006\H,0,4.8621014079,-1
 .7077801452,1.626720277\C,0,5.6309306037,-0.3571469565,3.1100657796\H,
 0,5.8663369071,0.7047970916,2.995142239\C,0,6.9405093122,-1.1409238482
 ,3.0333817618\C,0,4.9393508586,-0.5977076561,4.4790276566\H,0,5.638490
 5447,-0.2982571725,5.267966464\H,0,4.7791946245,-1.6762987677,4.594879
 8693\O,0,7.1573420398,-2.0434136877,2.2597408421\C,0,3.586009847,0.108
 7301078,4.6635623741\H,0,3.0935651321,-0.3296393952,5.5410904298\H,0,2
 .9345970595,-0.1078077869,3.8088127173\C,0,3.6712785823,1.6313248401,4
 .8669937442\H,0,4.2349982463,1.8700447759,5.7744512085\H,0,4.183667906
 9,2.1230076323,4.0380569198\N,0,2.3403687243,2.2419652547,5.0128797368
 \H,0,1.8519138622,2.0403333922,5.8758263418\N,0,2.0736415584,2.8902231
 171,2.7780070526\H,0,1.415768233,3.2502311861,2.0820753099\H,0,2.89612
 26659,2.3851903781,2.4401535827\N,0,0.3254732612,3.1240404687,4.244639
 9215\H,0,-0.0528601614,3.1895117599,5.177225784\H,0,-0.2661746077,3.35
 24472759,3.4462171753\C,0,1.5914330084,2.7367529453,4.010224766\O,0,7.
 8177765991,-0.7030005079,3.9564461549\H,0,8.6243885564,-1.2476715421,3
 .8717967499\H,0,5.65839452,-3.6381044764,-1.8013023232\\Version=ES64L-
 G16RevC.01\HF=-2166.3162318\RMSD=4.383e-09\Dipole=2.2476927,2.2348062,
 5.4456006\Quadrupole=22.6727701,-26.9957149,4.3229448,-10.8069107,36.5
 334338,17.9756733\PG=C01 [X(C25H39N8O10)]\\@
 The archive entry for this job was punched.


 THE TEST OF A FIRST RATE INTELLIGENCE IS THE ABILITY TO HOLD TWO OPPOSED
 IDEAS IN THE MIND AT THE SAME TIME, AND STILL RETAIN THE ABILITY TO FUNCTION.
 ONE SHOULD, FOR EXAMPLE, BE ABLE TO SEE THAT THINGS ARE HOPELESS AND YET BE
 DETERMINED TO MAKE THEM OTHERWISE.

                                                       -- F. SCOTT FITZGERALD
 Job cpu time:       0 days  0 hours  1 minutes 36.5 seconds.
 Elapsed time:       0 days  0 hours  0 minutes 25.3 seconds.
 File lengths (MBytes):  RWF=    384 Int=      0 D2E=      0 Chk=     56 Scr=     16
 Normal termination of Gaussian 16 at Thu May 26 20:50:27 2022.
