 Entering Gaussian System, Link 0=/opt/software/Gaussian/g16-AVX2-C.01/g16/g16
 Input=charge-conf-156.com
 Output=charge-conf-156.log
 Initial command:
 /opt/software/Gaussian/g16-AVX2-C.01/g16/l1.exe "/mnt/gs18/scratch/users/kengmith/Gau-88667.inp" -scrdir="/mnt/gs18/scratch/users/kengmith/"
 Entering Link 1 = /opt/software/Gaussian/g16-AVX2-C.01/g16/l1.exe PID=     88677.
  
 Copyright (c) 1988-2019, Gaussian, Inc.  All Rights Reserved.
  
 This is part of the Gaussian(R) 16 program.  It is based on
 the Gaussian(R) 09 system (copyright 2009, Gaussian, Inc.),
 the Gaussian(R) 03 system (copyright 2003, Gaussian, Inc.),
 the Gaussian(R) 98 system (copyright 1998, Gaussian, Inc.),
 the Gaussian(R) 94 system (copyright 1995, Gaussian, Inc.),
 the Gaussian 92(TM) system (copyright 1992, Gaussian, Inc.),
 the Gaussian 90(TM) system (copyright 1990, Gaussian, Inc.),
 the Gaussian 88(TM) system (copyright 1988, Gaussian, Inc.),
 the Gaussian 86(TM) system (copyright 1986, Carnegie Mellon
 University), and the Gaussian 82(TM) system (copyright 1983,
 Carnegie Mellon University). Gaussian is a federally registered
 trademark of Gaussian, Inc.
  
 This software contains proprietary and confidential information,
 including trade secrets, belonging to Gaussian, Inc.
  
 This software is provided under written license and may be
 used, copied, transmitted, or stored only in accord with that
 written license.
  
 The following legend is applicable only to US Government
 contracts under FAR:
  
                    RESTRICTED RIGHTS LEGEND
  
 Use, reproduction and disclosure by the US Government is
 subject to restrictions as set forth in subparagraphs (a)
 and (c) of the Commercial Computer Software - Restricted
 Rights clause in FAR 52.227-19.
  
 Gaussian, Inc.
 340 Quinnipiac St., Bldg. 40, Wallingford CT 06492
  
  
 ---------------------------------------------------------------
 Warning -- This program may not be used in any manner that
 competes with the business of Gaussian, Inc. or will provide
 assistance to any competitor of Gaussian, Inc.  The licensee
 of this program is prohibited from giving any competitor of
 Gaussian, Inc. access to this program.  By using this program,
 the user acknowledges that Gaussian, Inc. is engaged in the
 business of creating and licensing software in the field of
 computational chemistry and represents and warrants to the
 licensee that it is not a competitor of Gaussian, Inc. and that
 it will not use this program in any manner prohibited above.
 ---------------------------------------------------------------
  

 Cite this work as:
 Gaussian 16, Revision C.01,
 M. J. Frisch, G. W. Trucks, H. B. Schlegel, G. E. Scuseria, 
 M. A. Robb, J. R. Cheeseman, G. Scalmani, V. Barone, 
 G. A. Petersson, H. Nakatsuji, X. Li, M. Caricato, A. V. Marenich, 
 J. Bloino, B. G. Janesko, R. Gomperts, B. Mennucci, H. P. Hratchian, 
 J. V. Ortiz, A. F. Izmaylov, J. L. Sonnenberg, D. Williams-Young, 
 F. Ding, F. Lipparini, F. Egidi, J. Goings, B. Peng, A. Petrone, 
 T. Henderson, D. Ranasinghe, V. G. Zakrzewski, J. Gao, N. Rega, 
 G. Zheng, W. Liang, M. Hada, M. Ehara, K. Toyota, R. Fukuda, 
 J. Hasegawa, M. Ishida, T. Nakajima, Y. Honda, O. Kitao, H. Nakai, 
 T. Vreven, K. Throssell, J. A. Montgomery, Jr., J. E. Peralta, 
 F. Ogliaro, M. J. Bearpark, J. J. Heyd, E. N. Brothers, K. N. Kudin, 
 V. N. Staroverov, T. A. Keith, R. Kobayashi, J. Normand, 
 K. Raghavachari, A. P. Rendell, J. C. Burant, S. S. Iyengar, 
 J. Tomasi, M. Cossi, J. M. Millam, M. Klene, C. Adamo, R. Cammi, 
 J. W. Ochterski, R. L. Martin, K. Morokuma, O. Farkas, 
 J. B. Foresman, and D. J. Fox, Gaussian, Inc., Wallingford CT, 2019.
 
 ******************************************
 Gaussian 16:  ES64L-G16RevC.01  3-Jul-2019
                26-May-2022 
 ******************************************
 %mem=8gb
 %nproc=4
 Will use up to    4 processors via shared memory.
 %chk=conf-156.chk
 -------------------------------------------------------------------
 # B3LYP/6-31G* guess=read geom=check nosymm integral(ultrafinegrid)
 -------------------------------------------------------------------
 1/29=2,38=1,172=1/1;
 2/12=2,15=1,40=1/2;
 3/5=1,6=6,7=1,11=2,14=-4,25=1,30=1,74=-5,75=-5,116=-2/1,2,3;
 4/5=1/1;
 5/5=2,38=6/2;
 6/7=2,8=2,9=2,10=2,28=1/1;
 99/5=1,9=1/99;
 ------------------------------------------------------
 Candidate Structure: Conf:156 Charge calc in gas phase
 ------------------------------------------------------
 Structure from the checkpoint file:  "conf-156.chk"
 Charge =  1 Multiplicity = 1
 Redundant internal coordinates found in file.  (old form).
 N,0,-2.0571277454,-1.7949386882,-5.5446065358
 H,0,-1.9139164869,-2.7439102004,-5.2001787829
 H,0,-2.7675015388,-1.8358437862,-6.2736693542
 C,0,-2.5374069608,-0.9772932452,-4.4355181056
 H,0,-2.5211840843,0.0732240411,-4.7553545079
 C,0,-1.5572072847,-1.1816691322,-3.2787560455
 C,0,-3.9765130106,-1.3044366944,-3.9219847738
 H,0,-3.9688489592,-2.3347708004,-3.5473312571
 H,0,-4.2020631758,-0.6515867966,-3.067825957
 O,0,-1.226525864,-2.3070866868,-2.9075166185
 C,0,-5.0305600553,-1.1330186977,-4.9914458183
 C,0,-5.5912667071,0.1268752648,-5.2485165859
 H,0,-5.2915881712,0.979405394,-4.6420677254
 C,0,-5.4427614111,-2.2172916754,-5.7794642135
 H,0,-5.0332373607,-3.2058645397,-5.5834510894
 C,0,-6.5340079725,0.299467219,-6.2613929439
 H,0,-6.9611997027,1.2826897167,-6.4397004683
 C,0,-6.3859304281,-2.0486465472,-6.7958519363
 H,0,-6.6967445247,-2.9033862862,-7.3907350367
 C,0,-6.9334307056,-0.7890771318,-7.0404208323
 H,0,-7.670603815,-0.6565014264,-7.8274065044
 N,0,-1.1030260902,-0.0539796607,-2.6648385237
 H,0,-1.3724862953,0.8724183935,-2.9746961343
 C,0,-0.2334074496,-0.1144547933,-1.5123527445
 H,0,-0.5740270166,-0.9172580272,-0.8479854305
 C,0,-0.2871513182,1.2346015275,-0.7939755108
 C,0,1.2274415786,-0.4462176991,-1.9387468422
 H,0,1.5488752826,0.284072857,-2.6927200128
 H,0,1.2115572081,-1.437774487,-2.3950260422
 O,0,-0.6681574041,2.2567650391,-1.3439026117
 O,0,2.1317944517,-0.4834277094,-0.8376891484
 H,0,2.3705077031,0.4439031202,-0.6287255642
 N,0,0.1499553909,1.1873951065,0.5145437938
 H,0,0.627869336,0.3259964202,0.7609296196
 C,0,0.5946879204,2.3910933709,1.2097800273
 H,0,0.2013363243,3.2336470173,0.6286072124
 C,0,2.1336392653,2.4641690874,1.1445349941
 C,0,-0.0292951477,2.4396462996,2.61937431
 H,0,0.2301365218,3.3762561529,3.1235470258
 H,0,0.3665488698,1.60754099,3.2278985985
 O,0,2.7365750845,2.0697213441,0.1288156693
 O,0,-1.4340019797,2.4200942558,2.548152702
 H,0,-1.680481936,1.6598150815,1.9950396333
 N,0,2.7845362883,2.9497487995,2.2185805813
 H,0,2.2651027089,3.4351258442,2.9483310382
 C,0,4.2357684625,3.1929374505,2.2283473387
 H,0,4.5078229899,3.6602862014,1.2747976935
 C,0,5.0040415096,1.8422545336,2.3650655671
 C,0,4.6449375134,4.0944181496,3.4086126183
 H,0,4.6652183648,3.4760387574,4.314103962
 H,0,5.6630436236,4.4525369375,3.2454522121
 O,0,5.4307043366,1.4359752126,3.4384269665
 C,0,3.7199438854,5.261541448,3.6757622703
 O,0,2.5109219867,5.1671468109,3.8097475891
 O,0,4.3753625656,6.4231647043,3.7999418222
 N,0,5.1561051083,1.1731376428,1.1885830439
 H,0,4.5672824507,1.4844573638,0.4178235917
 C,0,5.6697033731,-0.1833651452,1.1690911882
 H,0,6.43668015,-0.2479210515,1.9497367524
 C,0,6.3668642364,-0.4880349268,-0.1491156906
 C,0,4.5496300365,-1.2102372239,1.5163553649
 H,0,3.7503716945,-1.1393117247,0.7681776431
 H,0,4.1365448366,-0.8486512021,2.4620809997
 O,0,6.9623829915,-1.5308810492,-0.3853364243
 C,0,4.997117646,-2.6770946398,1.6973728748
 H,0,4.4669782696,-3.1135074259,2.5519763215
 H,0,6.0635707936,-2.7230339647,1.9460191139
 C,0,4.7091309808,-3.5431953047,0.4600007254
 H,0,3.6318822685,-3.6567100523,0.3125188057
 H,0,5.1023283695,-3.0907972149,-0.4520008036
 N,0,5.2672980995,-4.9031596294,0.5648711073
 H,0,4.7181865761,-5.5927320376,1.0618466254
 N,0,7.4145160516,-4.3315379495,-0.1314704843
 H,0,8.278660675,-4.6216492147,-0.5671033978
 H,0,7.2271885348,-3.3249014972,-0.0996842294
 N,0,6.884653641,-6.5416028203,0.3214089068
 H,0,6.1954479337,-7.277876049,0.3696736941
 H,0,7.8506972095,-6.8201636168,0.2301021782
 C,0,6.5215765074,-5.2451246717,0.2502027742
 O,0,6.2707881621,0.4863598855,-1.0541080235
 H,0,6.7402296641,0.1953930054,-1.8606217282
 H,0,3.7146502686,7.1091459072,4.0206861332
 Recover connectivity data from disk.
                           ----------------------------
                           !    Current Parameters    !
                           ! (Angstroms and Degrees)  !
 --------------------------                            --------------------------
 ! Name  Definition              Value                                          !
 --------------------------------------------------------------------------------
 ! R1    R(1,2)                  1.0197                                         !
 ! R2    R(1,3)                  1.0187                                         !
 ! R3    R(1,4)                  1.4592                                         !
 ! R4    R(4,5)                  1.0982                                         !
 ! R5    R(4,6)                  1.5299                                         !
 ! R6    R(4,7)                  1.5626                                         !
 ! R7    R(6,10)                 1.2303                                         !
 ! R8    R(6,22)                 1.3619                                         !
 ! R9    R(7,8)                  1.0964                                         !
 ! R10   R(7,9)                  1.0985                                         !
 ! R11   R(7,11)                 1.5113                                         !
 ! R12   R(11,12)                1.4028                                         !
 ! R13   R(11,14)                1.4023                                         !
 ! R14   R(12,13)                1.0883                                         !
 ! R15   R(12,16)                1.3944                                         !
 ! R16   R(14,15)                1.0878                                         !
 ! R17   R(14,18)                1.3968                                         !
 ! R18   R(16,17)                1.0867                                         !
 ! R19   R(16,20)                1.3969                                         !
 ! R20   R(18,19)                1.0868                                         !
 ! R21   R(18,20)                1.395                                          !
 ! R22   R(20,21)                1.0864                                         !
 ! R23   R(22,23)                1.0133                                         !
 ! R24   R(22,24)                1.445                                          !
 ! R25   R(24,25)                1.0963                                         !
 ! R26   R(24,26)                1.5293                                         !
 ! R27   R(24,27)                1.5575                                         !
 ! R28   R(26,30)                1.2216                                         !
 ! R29   R(26,33)                1.3804                                         !
 ! R30   R(27,28)                1.0978                                         !
 ! R31   R(27,29)                1.0916                                         !
 ! R32   R(27,31)                1.4253                                         !
 ! R33   R(31,32)                0.9801                                         !
 ! R34   R(33,34)                1.0154                                         !
 ! R35   R(33,35)                1.4595                                         !
 ! R36   R(35,36)                1.0965                                         !
 ! R37   R(35,37)                1.5421                                         !
 ! R38   R(35,38)                1.5423                                         !
 ! R39   R(37,41)                1.2453                                         !
 ! R40   R(37,44)                1.3465                                         !
 ! R41   R(38,39)                1.0949                                         !
 ! R42   R(38,40)                1.1043                                         !
 ! R43   R(38,42)                1.4066                                         !
 ! R44   R(42,43)                0.972                                          !
 ! R45   R(44,45)                1.0188                                         !
 ! R46   R(44,46)                1.4715                                         !
 ! R47   R(46,47)                1.0962                                         !
 ! R48   R(46,48)                1.5599                                         !
 ! R49   R(46,49)                1.5405                                         !
 ! R50   R(48,52)                1.2244                                         !
 ! R51   R(48,56)                1.362                                          !
 ! R52   R(49,50)                1.0967                                         !
 ! R53   R(49,51)                1.0915                                         !
 ! R54   R(49,53)                1.513                                          !
 ! R55   R(53,54)                1.2201                                         !
 ! R56   R(53,55)                1.3395                                         !
 ! R57   R(55,82)                0.9777                                         !
 ! R58   R(56,57)                1.0187                                         !
 ! R59   R(56,58)                1.4506                                         !
 ! R60   R(58,59)                1.0963                                         !
 ! R61   R(58,60)                1.522                                          !
 ! R62   R(58,61)                1.5587                                         !
 ! R63   R(60,64)                1.2239                                         !
 ! R64   R(60,80)                1.3333                                         !
 ! R65   R(61,62)                1.0971                                         !
 ! R66   R(61,63)                1.0935                                         !
 ! R67   R(61,65)                1.5442                                         !
 ! R68   R(65,66)                1.0963                                         !
 ! R69   R(65,67)                1.096                                          !
 ! R70   R(65,68)                1.5376                                         !
 ! R71   R(68,69)                1.0932                                         !
 ! R72   R(68,70)                1.0913                                         !
 ! R73   R(68,71)                1.4738                                         !
 ! R74   R(71,72)                1.0119                                         !
 ! R75   R(71,79)                1.3376                                         !
 ! R76   R(73,74)                1.0103                                         !
 ! R77   R(73,75)                1.0244                                         !
 ! R78   R(73,79)                1.3333                                         !
 ! R79   R(76,77)                1.0097                                         !
 ! R80   R(76,78)                1.0095                                         !
 ! R81   R(76,79)                1.3482                                         !
 ! R82   R(80,81)                0.9775                                         !
 ! A1    A(2,1,3)              107.5962                                         !
 ! A2    A(2,1,4)              108.1183                                         !
 ! A3    A(3,1,4)              109.6898                                         !
 ! A4    A(1,4,5)              108.0455                                         !
 ! A5    A(1,4,6)              106.7951                                         !
 ! A6    A(1,4,7)              115.8233                                         !
 ! A7    A(5,4,6)              109.7861                                         !
 ! A8    A(5,4,7)              108.0333                                         !
 ! A9    A(6,4,7)              108.2763                                         !
 ! A10   A(4,6,10)             121.5024                                         !
 ! A11   A(4,6,22)             116.3512                                         !
 ! A12   A(10,6,22)            122.1238                                         !
 ! A13   A(4,7,8)              107.6146                                         !
 ! A14   A(4,7,9)              108.676                                          !
 ! A15   A(4,7,11)             112.7061                                         !
 ! A16   A(8,7,9)              107.1121                                         !
 ! A17   A(8,7,11)             110.6879                                         !
 ! A18   A(9,7,11)             109.854                                          !
 ! A19   A(7,11,12)            120.6847                                         !
 ! A20   A(7,11,14)            120.9937                                         !
 ! A21   A(12,11,14)           118.2919                                         !
 ! A22   A(11,12,13)           119.4313                                         !
 ! A23   A(11,12,16)           120.9645                                         !
 ! A24   A(13,12,16)           119.602                                          !
 ! A25   A(11,14,15)           119.3884                                         !
 ! A26   A(11,14,18)           120.932                                          !
 ! A27   A(15,14,18)           119.6715                                         !
 ! A28   A(12,16,17)           119.7963                                         !
 ! A29   A(12,16,20)           120.1286                                         !
 ! A30   A(17,16,20)           120.0743                                         !
 ! A31   A(14,18,19)           119.7664                                         !
 ! A32   A(14,18,20)           120.1053                                         !
 ! A33   A(19,18,20)           120.127                                          !
 ! A34   A(16,20,18)           119.5775                                         !
 ! A35   A(16,20,21)           120.1914                                         !
 ! A36   A(18,20,21)           120.2299                                         !
 ! A37   A(6,22,23)            122.0365                                         !
 ! A38   A(6,22,24)            121.7052                                         !
 ! A39   A(23,22,24)           116.2421                                         !
 ! A40   A(22,24,25)           109.086                                          !
 ! A41   A(22,24,26)           108.4554                                         !
 ! A42   A(22,24,27)           110.7943                                         !
 ! A43   A(25,24,26)           110.5103                                         !
 ! A44   A(25,24,27)           107.5374                                         !
 ! A45   A(26,24,27)           110.4534                                         !
 ! A46   A(24,26,30)           122.5194                                         !
 ! A47   A(24,26,33)           113.8268                                         !
 ! A48   A(30,26,33)           123.6477                                         !
 ! A49   A(24,27,28)           108.7203                                         !
 ! A50   A(24,27,29)           107.1131                                         !
 ! A51   A(24,27,31)           112.9034                                         !
 ! A52   A(28,27,29)           108.7505                                         !
 ! A53   A(28,27,31)           111.2322                                         !
 ! A54   A(29,27,31)           107.9634                                         !
 ! A55   A(27,31,32)           107.1297                                         !
 ! A56   A(26,33,34)           114.0821                                         !
 ! A57   A(26,33,35)           121.3218                                         !
 ! A58   A(34,33,35)           116.1446                                         !
 ! A59   A(33,35,36)           105.7795                                         !
 ! A60   A(33,35,37)           108.8467                                         !
 ! A61   A(33,35,38)           109.7585                                         !
 ! A62   A(36,35,37)           107.4073                                         !
 ! A63   A(36,35,38)           108.366                                          !
 ! A64   A(37,35,38)           116.164                                          !
 ! A65   A(35,37,41)           120.1778                                         !
 ! A66   A(35,37,44)           117.7599                                         !
 ! A67   A(41,37,44)           122.0583                                         !
 ! A68   A(35,38,39)           110.6055                                         !
 ! A69   A(35,38,40)           109.5666                                         !
 ! A70   A(35,38,42)           110.9351                                         !
 ! A71   A(39,38,40)           107.8135                                         !
 ! A72   A(39,38,42)           105.7733                                         !
 ! A73   A(40,38,42)           112.0492                                         !
 ! A74   A(38,42,43)           107.0332                                         !
 ! A75   A(37,44,45)           119.7823                                         !
 ! A76   A(37,44,46)           122.7953                                         !
 ! A77   A(45,44,46)           114.7929                                         !
 ! A78   A(44,46,47)           108.0256                                         !
 ! A79   A(44,46,48)           110.0727                                         !
 ! A80   A(44,46,49)           111.3306                                         !
 ! A81   A(47,46,48)           108.8541                                         !
 ! A82   A(47,46,49)           110.5515                                         !
 ! A83   A(48,46,49)           107.9831                                         !
 ! A84   A(46,48,52)           122.3958                                         !
 ! A85   A(46,48,56)           113.8708                                         !
 ! A86   A(52,48,56)           123.7327                                         !
 ! A87   A(46,49,50)           107.9108                                         !
 ! A88   A(46,49,51)           108.9787                                         !
 ! A89   A(46,49,53)           115.1071                                         !
 ! A90   A(50,49,51)           106.928                                          !
 ! A91   A(50,49,53)           107.4865                                         !
 ! A92   A(51,49,53)           110.0934                                         !
 ! A93   A(49,53,54)           124.4393                                         !
 ! A94   A(49,53,55)           112.7169                                         !
 ! A95   A(54,53,55)           122.8038                                         !
 ! A96   A(53,55,82)           107.3811                                         !
 ! A97   A(48,56,57)           116.034                                          !
 ! A98   A(48,56,58)           120.7007                                         !
 ! A99   A(57,56,58)           118.7033                                         !
 ! A100  A(56,58,59)           107.0498                                         !
 ! A101  A(56,58,60)           111.1619                                         !
 ! A102  A(56,58,61)           111.0166                                         !
 ! A103  A(59,58,60)           106.5281                                         !
 ! A104  A(59,58,61)           107.776                                          !
 ! A105  A(60,58,61)           112.9688                                         !
 ! A106  A(58,60,64)           124.0969                                         !
 ! A107  A(58,60,80)           114.1152                                         !
 ! A108  A(64,60,80)           121.7864                                         !
 ! A109  A(58,61,62)           109.207                                          !
 ! A110  A(58,61,63)           104.2581                                         !
 ! A111  A(58,61,65)           116.3378                                         !
 ! A112  A(62,61,63)           107.0503                                         !
 ! A113  A(62,61,65)           110.6378                                         !
 ! A114  A(63,61,65)           108.7949                                         !
 ! A115  A(61,65,66)           109.2313                                         !
 ! A116  A(61,65,67)           110.3876                                         !
 ! A117  A(61,65,68)           112.7339                                         !
 ! A118  A(66,65,67)           106.081                                          !
 ! A119  A(66,65,68)           108.2118                                         !
 ! A120  A(67,65,68)           109.9503                                         !
 ! A121  A(65,68,69)           110.5865                                         !
 ! A122  A(65,68,70)           111.8098                                         !
 ! A123  A(65,68,71)           113.0531                                         !
 ! A124  A(69,68,70)           106.5789                                         !
 ! A125  A(69,68,71)           106.6775                                         !
 ! A126  A(70,68,71)           107.7902                                         !
 ! A127  A(68,71,72)           117.2738                                         !
 ! A128  A(68,71,79)           125.0513                                         !
 ! A129  A(72,71,79)           116.7535                                         !
 ! A130  A(74,73,75)           116.8698                                         !
 ! A131  A(74,73,79)           119.9682                                         !
 ! A132  A(75,73,79)           122.818                                          !
 ! A133  A(77,76,78)           117.1489                                         !
 ! A134  A(77,76,79)           121.3273                                         !
 ! A135  A(78,76,79)           121.2151                                         !
 ! A136  A(71,79,73)           121.3439                                         !
 ! A137  A(71,79,76)           119.074                                          !
 ! A138  A(73,79,76)           119.5821                                         !
 ! A139  A(60,80,81)           107.932                                          !
 ! D1    D(2,1,4,5)            170.0968                                         !
 ! D2    D(2,1,4,6)             52.0483                                         !
 ! D3    D(2,1,4,7)            -68.6136                                         !
 ! D4    D(3,1,4,5)            -72.8432                                         !
 ! D5    D(3,1,4,6)            169.1083                                         !
 ! D6    D(3,1,4,7)             48.4464                                         !
 ! D7    D(1,4,6,10)           -50.1843                                         !
 ! D8    D(1,4,6,22)           131.5103                                         !
 ! D9    D(5,4,6,10)          -167.0857                                         !
 ! D10   D(5,4,6,22)            14.6089                                         !
 ! D11   D(7,4,6,10)            75.186                                          !
 ! D12   D(7,4,6,22)          -103.1194                                         !
 ! D13   D(1,4,7,8)             62.1362                                         !
 ! D14   D(1,4,7,9)            177.8068                                         !
 ! D15   D(1,4,7,11)           -60.184                                          !
 ! D16   D(5,4,7,8)           -176.5676                                         !
 ! D17   D(5,4,7,9)            -60.8971                                         !
 ! D18   D(5,4,7,11)            61.1122                                         !
 ! D19   D(6,4,7,8)            -57.7235                                         !
 ! D20   D(6,4,7,9)             57.9471                                         !
 ! D21   D(6,4,7,11)           179.9563                                         !
 ! D22   D(4,6,22,23)           -2.0265                                         !
 ! D23   D(4,6,22,24)          176.4531                                         !
 ! D24   D(10,6,22,23)         179.6796                                         !
 ! D25   D(10,6,22,24)          -1.8409                                         !
 ! D26   D(4,7,11,12)          -84.4213                                         !
 ! D27   D(4,7,11,14)           93.5625                                         !
 ! D28   D(8,7,11,12)          155.0041                                         !
 ! D29   D(8,7,11,14)          -27.0121                                         !
 ! D30   D(9,7,11,12)           36.9207                                         !
 ! D31   D(9,7,11,14)         -145.0955                                         !
 ! D32   D(7,11,12,13)          -2.5294                                         !
 ! D33   D(7,11,12,16)         178.0088                                         !
 ! D34   D(14,11,12,13)        179.4334                                         !
 ! D35   D(14,11,12,16)         -0.0284                                         !
 ! D36   D(7,11,14,15)           3.0955                                         !
 ! D37   D(7,11,14,18)        -177.9448                                         !
 ! D38   D(12,11,14,15)       -178.8736                                         !
 ! D39   D(12,11,14,18)          0.086                                          !
 ! D40   D(11,12,16,17)        179.5817                                         !
 ! D41   D(11,12,16,20)         -0.0993                                         !
 ! D42   D(13,12,16,17)          0.1207                                         !
 ! D43   D(13,12,16,20)       -179.5603                                         !
 ! D44   D(11,14,18,19)       -179.5916                                         !
 ! D45   D(11,14,18,20)         -0.016                                          !
 ! D46   D(15,14,18,19)         -0.6349                                         !
 ! D47   D(15,14,18,20)        178.9407                                         !
 ! D48   D(12,16,20,18)          0.1696                                         !
 ! D49   D(12,16,20,21)        179.7721                                         !
 ! D50   D(17,16,20,18)       -179.5105                                         !
 ! D51   D(17,16,20,21)          0.092                                          !
 ! D52   D(14,18,20,16)         -0.1126                                         !
 ! D53   D(14,18,20,21)       -179.7149                                         !
 ! D54   D(19,18,20,16)        179.4615                                         !
 ! D55   D(19,18,20,21)         -0.1408                                         !
 ! D56   D(6,22,24,25)         -40.7999                                         !
 ! D57   D(6,22,24,26)        -161.2196                                         !
 ! D58   D(6,22,24,27)          77.3949                                         !
 ! D59   D(23,22,24,25)        137.7631                                         !
 ! D60   D(23,22,24,26)         17.3434                                         !
 ! D61   D(23,22,24,27)       -104.0421                                         !
 ! D62   D(22,24,26,30)        -19.9366                                         !
 ! D63   D(22,24,26,33)        160.9344                                         !
 ! D64   D(25,24,26,30)       -139.4674                                         !
 ! D65   D(25,24,26,33)         41.4036                                         !
 ! D66   D(27,24,26,30)        101.6584                                         !
 ! D67   D(27,24,26,33)        -77.4707                                         !
 ! D68   D(22,24,27,28)         54.5646                                         !
 ! D69   D(22,24,27,29)        -62.7879                                         !
 ! D70   D(22,24,27,31)        178.501                                          !
 ! D71   D(25,24,27,28)        173.6969                                         !
 ! D72   D(25,24,27,29)         56.3444                                         !
 ! D73   D(25,24,27,31)        -62.3667                                         !
 ! D74   D(26,24,27,28)        -65.6367                                         !
 ! D75   D(26,24,27,29)        177.0109                                         !
 ! D76   D(26,24,27,31)         58.2998                                         !
 ! D77   D(24,26,33,34)         12.3895                                         !
 ! D78   D(24,26,33,35)        159.211                                          !
 ! D79   D(30,26,33,34)       -166.7283                                         !
 ! D80   D(30,26,33,35)        -19.9067                                         !
 ! D81   D(24,27,31,32)        -80.4473                                         !
 ! D82   D(28,27,31,32)         42.0958                                         !
 ! D83   D(29,27,31,32)        161.3373                                         !
 ! D84   D(26,33,35,36)         17.5878                                         !
 ! D85   D(26,33,35,37)        -97.5593                                         !
 ! D86   D(26,33,35,38)        134.2938                                         !
 ! D87   D(34,33,35,36)        163.7695                                         !
 ! D88   D(34,33,35,37)         48.6223                                         !
 ! D89   D(34,33,35,38)        -79.5245                                         !
 ! D90   D(33,35,37,41)         35.6709                                         !
 ! D91   D(33,35,37,44)       -143.6211                                         !
 ! D92   D(36,35,37,41)        -78.4177                                         !
 ! D93   D(36,35,37,44)        102.2904                                         !
 ! D94   D(38,35,37,41)        160.1204                                         !
 ! D95   D(38,35,37,44)        -19.1716                                         !
 ! D96   D(33,35,38,39)       -175.4432                                         !
 ! D97   D(33,35,38,40)         65.8392                                         !
 ! D98   D(33,35,38,42)        -58.3927                                         !
 ! D99   D(36,35,38,39)        -60.3742                                         !
 ! D100  D(36,35,38,40)       -179.0918                                         !
 ! D101  D(36,35,38,42)         56.6763                                         !
 ! D102  D(37,35,38,39)         60.577                                          !
 ! D103  D(37,35,38,40)        -58.1407                                         !
 ! D104  D(37,35,38,42)        177.6274                                         !
 ! D105  D(35,37,44,45)        -13.1458                                         !
 ! D106  D(35,37,44,46)       -173.7969                                         !
 ! D107  D(41,37,44,45)        167.5764                                         !
 ! D108  D(41,37,44,46)          6.9253                                         !
 ! D109  D(35,38,42,43)         52.2437                                         !
 ! D110  D(39,38,42,43)        172.218                                          !
 ! D111  D(40,38,42,43)        -70.5637                                         !
 ! D112  D(37,44,46,47)         42.6694                                         !
 ! D113  D(37,44,46,48)        -76.0634                                         !
 ! D114  D(37,44,46,49)        164.2294                                         !
 ! D115  D(45,44,46,47)       -118.8639                                         !
 ! D116  D(45,44,46,48)        122.4033                                         !
 ! D117  D(45,44,46,49)          2.6961                                         !
 ! D118  D(44,46,48,52)        -98.0281                                         !
 ! D119  D(44,46,48,56)         82.2582                                         !
 ! D120  D(47,46,48,52)        143.7483                                         !
 ! D121  D(47,46,48,56)        -35.9654                                         !
 ! D122  D(49,46,48,52)         23.6921                                         !
 ! D123  D(49,46,48,56)       -156.0216                                         !
 ! D124  D(44,46,49,50)         78.1948                                         !
 ! D125  D(44,46,49,51)       -166.0363                                         !
 ! D126  D(44,46,49,53)        -41.8172                                         !
 ! D127  D(47,46,49,50)       -161.7271                                         !
 ! D128  D(47,46,49,51)        -45.9582                                         !
 ! D129  D(47,46,49,53)         78.2609                                         !
 ! D130  D(48,46,49,50)        -42.7446                                         !
 ! D131  D(48,46,49,51)         73.0243                                         !
 ! D132  D(48,46,49,53)       -162.7566                                         !
 ! D133  D(46,48,56,57)        -15.1172                                         !
 ! D134  D(46,48,56,58)       -170.8546                                         !
 ! D135  D(52,48,56,57)        165.1735                                         !
 ! D136  D(52,48,56,58)          9.4361                                         !
 ! D137  D(46,49,53,54)         51.5582                                         !
 ! D138  D(46,49,53,55)       -130.6922                                         !
 ! D139  D(50,49,53,54)        -68.6871                                         !
 ! D140  D(50,49,53,55)        109.0626                                         !
 ! D141  D(51,49,53,54)        175.1892                                         !
 ! D142  D(51,49,53,55)         -7.0611                                         !
 ! D143  D(49,53,55,82)       -176.7838                                         !
 ! D144  D(54,53,55,82)          1.0082                                         !
 ! D145  D(48,56,58,59)        -36.8563                                         !
 ! D146  D(48,56,58,60)       -152.8198                                         !
 ! D147  D(48,56,58,61)         80.5253                                         !
 ! D148  D(57,56,58,59)        168.0384                                         !
 ! D149  D(57,56,58,60)         52.0749                                         !
 ! D150  D(57,56,58,61)        -74.58                                           !
 ! D151  D(56,58,60,64)        174.9678                                         !
 ! D152  D(56,58,60,80)         -5.4739                                         !
 ! D153  D(59,58,60,64)         58.6832                                         !
 ! D154  D(59,58,60,80)       -121.7584                                         !
 ! D155  D(61,58,60,64)        -59.458                                          !
 ! D156  D(61,58,60,80)        120.1003                                         !
 ! D157  D(56,58,61,62)         61.0112                                         !
 ! D158  D(56,58,61,63)        -53.124                                          !
 ! D159  D(56,58,61,65)       -172.9076                                         !
 ! D160  D(59,58,61,62)        177.9489                                         !
 ! D161  D(59,58,61,63)         63.8136                                         !
 ! D162  D(59,58,61,65)        -55.97                                           !
 ! D163  D(60,58,61,62)        -64.6412                                         !
 ! D164  D(60,58,61,63)       -178.7764                                         !
 ! D165  D(60,58,61,65)         61.4399                                         !
 ! D166  D(58,60,80,81)       -179.5915                                         !
 ! D167  D(64,60,80,81)         -0.0217                                         !
 ! D168  D(58,61,65,66)        138.8615                                         !
 ! D169  D(58,61,65,67)         22.5902                                         !
 ! D170  D(58,61,65,68)       -100.8036                                         !
 ! D171  D(62,61,65,66)        -95.7785                                         !
 ! D172  D(62,61,65,67)        147.9502                                         !
 ! D173  D(62,61,65,68)         24.5563                                         !
 ! D174  D(63,61,65,66)         21.5533                                         !
 ! D175  D(63,61,65,67)        -94.718                                          !
 ! D176  D(63,61,65,68)        141.8881                                         !
 ! D177  D(61,65,68,69)        -66.9098                                         !
 ! D178  D(61,65,68,70)         51.6845                                         !
 ! D179  D(61,65,68,71)        173.5515                                         !
 ! D180  D(66,65,68,69)         54.0087                                         !
 ! D181  D(66,65,68,70)        172.6029                                         !
 ! D182  D(66,65,68,71)        -65.5301                                         !
 ! D183  D(67,65,68,69)        169.4538                                         !
 ! D184  D(67,65,68,70)        -71.9519                                         !
 ! D185  D(67,65,68,71)         49.915                                          !
 ! D186  D(65,68,71,72)         83.7395                                         !
 ! D187  D(65,68,71,79)        -84.8819                                         !
 ! D188  D(69,68,71,72)        -38.0239                                         !
 ! D189  D(69,68,71,79)        153.3547                                         !
 ! D190  D(70,68,71,72)       -152.163                                          !
 ! D191  D(70,68,71,79)         39.2155                                         !
 ! D192  D(68,71,79,73)          3.6372                                         !
 ! D193  D(68,71,79,76)       -176.3223                                         !
 ! D194  D(72,71,79,73)       -165.0375                                         !
 ! D195  D(72,71,79,76)         15.003                                          !
 ! D196  D(74,73,79,71)       -165.7398                                         !
 ! D197  D(74,73,79,76)         14.2194                                         !
 ! D198  D(75,73,79,71)          7.3118                                         !
 ! D199  D(75,73,79,76)       -172.729                                          !
 ! D200  D(77,76,79,71)         16.0278                                         !
 ! D201  D(77,76,79,73)       -163.9324                                         !
 ! D202  D(78,76,79,71)       -170.5349                                         !
 ! D203  D(78,76,79,73)          9.5049                                         !
 --------------------------------------------------------------------------------
 Symmetry turned off by external request.
 Stoichiometry    C25H39N8O10(1+)
 Framework group  C1[X(C25H39N8O10)]
 Deg. of freedom   240
 Full point group                 C1      NOp   1
                          Input orientation:                          
 ---------------------------------------------------------------------
 Center     Atomic      Atomic             Coordinates (Angstroms)
 Number     Number       Type             X           Y           Z
 ---------------------------------------------------------------------
      1          7           0       -2.057128   -1.794939   -5.544607
      2          1           0       -1.913916   -2.743910   -5.200179
      3          1           0       -2.767502   -1.835844   -6.273669
      4          6           0       -2.537407   -0.977293   -4.435518
      5          1           0       -2.521184    0.073224   -4.755355
      6          6           0       -1.557207   -1.181669   -3.278756
      7          6           0       -3.976513   -1.304437   -3.921985
      8          1           0       -3.968849   -2.334771   -3.547331
      9          1           0       -4.202063   -0.651587   -3.067826
     10          8           0       -1.226526   -2.307087   -2.907517
     11          6           0       -5.030560   -1.133019   -4.991446
     12          6           0       -5.591267    0.126875   -5.248517
     13          1           0       -5.291588    0.979405   -4.642068
     14          6           0       -5.442761   -2.217292   -5.779464
     15          1           0       -5.033237   -3.205865   -5.583451
     16          6           0       -6.534008    0.299467   -6.261393
     17          1           0       -6.961200    1.282690   -6.439700
     18          6           0       -6.385930   -2.048647   -6.795852
     19          1           0       -6.696745   -2.903386   -7.390735
     20          6           0       -6.933431   -0.789077   -7.040421
     21          1           0       -7.670604   -0.656501   -7.827407
     22          7           0       -1.103026   -0.053980   -2.664839
     23          1           0       -1.372486    0.872418   -2.974696
     24          6           0       -0.233407   -0.114455   -1.512353
     25          1           0       -0.574027   -0.917258   -0.847985
     26          6           0       -0.287151    1.234602   -0.793976
     27          6           0        1.227442   -0.446218   -1.938747
     28          1           0        1.548875    0.284073   -2.692720
     29          1           0        1.211557   -1.437774   -2.395026
     30          8           0       -0.668157    2.256765   -1.343903
     31          8           0        2.131794   -0.483428   -0.837689
     32          1           0        2.370508    0.443903   -0.628726
     33          7           0        0.149955    1.187395    0.514544
     34          1           0        0.627869    0.325996    0.760930
     35          6           0        0.594688    2.391093    1.209780
     36          1           0        0.201336    3.233647    0.628607
     37          6           0        2.133639    2.464169    1.144535
     38          6           0       -0.029295    2.439646    2.619374
     39          1           0        0.230137    3.376256    3.123547
     40          1           0        0.366549    1.607541    3.227899
     41          8           0        2.736575    2.069721    0.128816
     42          8           0       -1.434002    2.420094    2.548153
     43          1           0       -1.680482    1.659815    1.995040
     44          7           0        2.784536    2.949749    2.218581
     45          1           0        2.265103    3.435126    2.948331
     46          6           0        4.235768    3.192937    2.228347
     47          1           0        4.507823    3.660286    1.274798
     48          6           0        5.004042    1.842255    2.365066
     49          6           0        4.644938    4.094418    3.408613
     50          1           0        4.665218    3.476039    4.314104
     51          1           0        5.663044    4.452537    3.245452
     52          8           0        5.430704    1.435975    3.438427
     53          6           0        3.719944    5.261541    3.675762
     54          8           0        2.510922    5.167147    3.809748
     55          8           0        4.375363    6.423165    3.799942
     56          7           0        5.156105    1.173138    1.188583
     57          1           0        4.567282    1.484457    0.417824
     58          6           0        5.669703   -0.183365    1.169091
     59          1           0        6.436680   -0.247921    1.949737
     60          6           0        6.366864   -0.488035   -0.149116
     61          6           0        4.549630   -1.210237    1.516355
     62          1           0        3.750372   -1.139312    0.768178
     63          1           0        4.136545   -0.848651    2.462081
     64          8           0        6.962383   -1.530881   -0.385336
     65          6           0        4.997118   -2.677095    1.697373
     66          1           0        4.466978   -3.113507    2.551976
     67          1           0        6.063571   -2.723034    1.946019
     68          6           0        4.709131   -3.543195    0.460001
     69          1           0        3.631882   -3.656710    0.312519
     70          1           0        5.102328   -3.090797   -0.452001
     71          7           0        5.267298   -4.903160    0.564871
     72          1           0        4.718187   -5.592732    1.061847
     73          7           0        7.414516   -4.331538   -0.131470
     74          1           0        8.278661   -4.621649   -0.567103
     75          1           0        7.227189   -3.324901   -0.099684
     76          7           0        6.884654   -6.541603    0.321409
     77          1           0        6.195448   -7.277876    0.369674
     78          1           0        7.850697   -6.820164    0.230102
     79          6           0        6.521577   -5.245125    0.250203
     80          8           0        6.270788    0.486360   -1.054108
     81          1           0        6.740230    0.195393   -1.860622
     82          1           0        3.714650    7.109146    4.020686
 ---------------------------------------------------------------------
 Rotational constants (GHZ):           0.0759684           0.0332837           0.0246747
 Standard basis: 6-31G(d) (6D, 7F)
   723 basis functions,  1360 primitive gaussians,   723 cartesian basis functions
   162 alpha electrons      162 beta electrons
       nuclear repulsion energy      5228.7215148890 Hartrees.
 NAtoms=   82 NActive=   82 NUniq=   82 SFac= 1.00D+00 NAtFMM=   60 NAOKFM=T Big=T
 Integral buffers will be    131072 words long.
 Raffenetti 2 integral format.
 Two-electron integral symmetry is turned off.
 One-electron integrals computed using PRISM.
 NBasis=   723 RedAO= T EigKep=  4.68D-04  NBF=   723
 NBsUse=   723 1.00D-06 EigRej= -1.00D+00 NBFU=   723
 Initial guess from the checkpoint file:  "conf-156.chk"
 B after Tr=     0.000000    0.000000    0.000000
         Rot=    1.000000    0.000000    0.000000    0.000000 Ang=   0.00 deg.
 Requested convergence on RMS density matrix=1.00D-08 within 128 cycles.
 Requested convergence on MAX density matrix=1.00D-06.
 Requested convergence on             energy=1.00D-06.
 No special actions if energy rises.
 SCF Done:  E(RB3LYP) =  -2166.28698586     A.U. after    2 cycles
            NFock=  2  Conv=0.93D-08     -V/T= 2.0092

 **********************************************************************

            Population analysis using the SCF Density.

 **********************************************************************

 Alpha  occ. eigenvalues --  -19.32457 -19.28874 -19.27359 -19.23553 -19.23153
 Alpha  occ. eigenvalues --  -19.22552 -19.21649 -19.21502 -19.20492 -19.17069
 Alpha  occ. eigenvalues --  -14.53043 -14.53027 -14.51935 -14.46727 -14.45454
 Alpha  occ. eigenvalues --  -14.44794 -14.42225 -14.35640 -10.49226 -10.45397
 Alpha  occ. eigenvalues --  -10.41862 -10.39791 -10.38657 -10.37257 -10.36107
 Alpha  occ. eigenvalues --  -10.35332 -10.34435 -10.34131 -10.32212 -10.31680
 Alpha  occ. eigenvalues --  -10.31216 -10.30844 -10.30551 -10.30293 -10.29689
 Alpha  occ. eigenvalues --  -10.27300 -10.23952 -10.23690 -10.23109 -10.23085
 Alpha  occ. eigenvalues --  -10.23054 -10.23027 -10.22894  -1.23814  -1.20010
 Alpha  occ. eigenvalues --   -1.17590  -1.14839  -1.14454  -1.13429  -1.12381
 Alpha  occ. eigenvalues --   -1.10951  -1.09599  -1.09384  -1.08968  -1.06918
 Alpha  occ. eigenvalues --   -1.05496  -1.03177  -1.02796  -1.01064  -0.98593
 Alpha  occ. eigenvalues --   -0.93391  -0.92121  -0.89489  -0.89404  -0.87231
 Alpha  occ. eigenvalues --   -0.85294  -0.82606  -0.82290  -0.81476  -0.79192
 Alpha  occ. eigenvalues --   -0.78534  -0.78437  -0.76028  -0.75210  -0.74812
 Alpha  occ. eigenvalues --   -0.74063  -0.72368  -0.71790  -0.71048  -0.70409
 Alpha  occ. eigenvalues --   -0.69818  -0.68244  -0.67755  -0.66678  -0.66501
 Alpha  occ. eigenvalues --   -0.65904  -0.64704  -0.64591  -0.64527  -0.62757
 Alpha  occ. eigenvalues --   -0.62020  -0.61650  -0.60852  -0.60420  -0.60171
 Alpha  occ. eigenvalues --   -0.59682  -0.59444  -0.59171  -0.58715  -0.57916
 Alpha  occ. eigenvalues --   -0.57573  -0.57152  -0.56723  -0.55719  -0.55431
 Alpha  occ. eigenvalues --   -0.55066  -0.54677  -0.54193  -0.54101  -0.53439
 Alpha  occ. eigenvalues --   -0.52849  -0.52159  -0.51811  -0.51502  -0.51097
 Alpha  occ. eigenvalues --   -0.50669  -0.50534  -0.50175  -0.50033  -0.49795
 Alpha  occ. eigenvalues --   -0.49306  -0.49124  -0.48878  -0.48086  -0.47662
 Alpha  occ. eigenvalues --   -0.47510  -0.47182  -0.46439  -0.46368  -0.46205
 Alpha  occ. eigenvalues --   -0.45978  -0.45949  -0.45758  -0.45247  -0.44893
 Alpha  occ. eigenvalues --   -0.44440  -0.43673  -0.43358  -0.42460  -0.41842
 Alpha  occ. eigenvalues --   -0.41638  -0.41151  -0.41028  -0.40797  -0.40688
 Alpha  occ. eigenvalues --   -0.39583  -0.38210  -0.38043  -0.37927  -0.37773
 Alpha  occ. eigenvalues --   -0.36885  -0.36704  -0.35579  -0.35312  -0.34151
 Alpha  occ. eigenvalues --   -0.34051  -0.33437  -0.31189  -0.31057  -0.29320
 Alpha  occ. eigenvalues --   -0.28941  -0.27382
 Alpha virt. eigenvalues --   -0.12949  -0.12262  -0.09586  -0.09248  -0.08848
 Alpha virt. eigenvalues --   -0.07485  -0.06373  -0.05223  -0.04761  -0.04449
 Alpha virt. eigenvalues --   -0.04263  -0.03825  -0.02530  -0.01861  -0.00752
 Alpha virt. eigenvalues --   -0.00176   0.00064   0.01512   0.01798   0.02221
 Alpha virt. eigenvalues --    0.02457   0.02664   0.02934   0.03679   0.04225
 Alpha virt. eigenvalues --    0.04434   0.04997   0.05147   0.05633   0.05960
 Alpha virt. eigenvalues --    0.06324   0.06644   0.06841   0.06873   0.07512
 Alpha virt. eigenvalues --    0.08220   0.08596   0.08698   0.09033   0.09114
 Alpha virt. eigenvalues --    0.09903   0.10065   0.10391   0.10851   0.11246
 Alpha virt. eigenvalues --    0.11458   0.11599   0.12055   0.12609   0.12708
 Alpha virt. eigenvalues --    0.12945   0.13092   0.13465   0.13747   0.14305
 Alpha virt. eigenvalues --    0.14357   0.15044   0.15305   0.15393   0.15710
 Alpha virt. eigenvalues --    0.15871   0.16364   0.17139   0.17754   0.18100
 Alpha virt. eigenvalues --    0.18555   0.19071   0.20017   0.20313   0.20723
 Alpha virt. eigenvalues --    0.21310   0.22571   0.22792   0.23531   0.24028
 Alpha virt. eigenvalues --    0.24429   0.25816   0.26586   0.27213   0.27466
 Alpha virt. eigenvalues --    0.27911   0.28460   0.29374   0.30266   0.30458
 Alpha virt. eigenvalues --    0.31125   0.32629   0.33808   0.34163   0.36644
 Alpha virt. eigenvalues --    0.37028   0.37803   0.38496   0.39240   0.41077
 Alpha virt. eigenvalues --    0.41379   0.41508   0.41825   0.42930   0.43110
 Alpha virt. eigenvalues --    0.44211   0.44382   0.45083   0.45342   0.46087
 Alpha virt. eigenvalues --    0.46725   0.47175   0.47586   0.47615   0.48104
 Alpha virt. eigenvalues --    0.48477   0.48726   0.48972   0.49285   0.49627
 Alpha virt. eigenvalues --    0.50303   0.50372   0.50702   0.50859   0.51761
 Alpha virt. eigenvalues --    0.51911   0.51987   0.52526   0.52712   0.53112
 Alpha virt. eigenvalues --    0.53287   0.54044   0.54751   0.54953   0.55063
 Alpha virt. eigenvalues --    0.55494   0.55697   0.55903   0.56308   0.56802
 Alpha virt. eigenvalues --    0.56971   0.57312   0.57414   0.57509   0.57946
 Alpha virt. eigenvalues --    0.58068   0.58311   0.58902   0.60121   0.60355
 Alpha virt. eigenvalues --    0.60883   0.61026   0.61575   0.61760   0.62276
 Alpha virt. eigenvalues --    0.63334   0.63625   0.64129   0.64474   0.64858
 Alpha virt. eigenvalues --    0.65792   0.66048   0.66276   0.67341   0.67542
 Alpha virt. eigenvalues --    0.68363   0.68686   0.69612   0.69979   0.70298
 Alpha virt. eigenvalues --    0.70627   0.71012   0.71179   0.71369   0.71634
 Alpha virt. eigenvalues --    0.71930   0.72808   0.73075   0.73499   0.73843
 Alpha virt. eigenvalues --    0.74324   0.74604   0.75034   0.75639   0.75719
 Alpha virt. eigenvalues --    0.76062   0.76165   0.76515   0.76918   0.77195
 Alpha virt. eigenvalues --    0.77432   0.78042   0.78392   0.78957   0.79245
 Alpha virt. eigenvalues --    0.79521   0.79794   0.79805   0.80225   0.80504
 Alpha virt. eigenvalues --    0.80707   0.81353   0.81690   0.81959   0.82325
 Alpha virt. eigenvalues --    0.82621   0.82998   0.83071   0.83692   0.83907
 Alpha virt. eigenvalues --    0.84402   0.85324   0.85777   0.86081   0.86432
 Alpha virt. eigenvalues --    0.86867   0.87223   0.87804   0.87847   0.88123
 Alpha virt. eigenvalues --    0.88562   0.89109   0.89866   0.90574   0.91143
 Alpha virt. eigenvalues --    0.91827   0.92467   0.92611   0.93244   0.93670
 Alpha virt. eigenvalues --    0.94245   0.94585   0.95050   0.95346   0.95699
 Alpha virt. eigenvalues --    0.95882   0.96446   0.96799   0.97187   0.97805
 Alpha virt. eigenvalues --    0.98550   0.98784   0.99486   0.99866   1.00792
 Alpha virt. eigenvalues --    1.01293   1.02755   1.03666   1.04021   1.04826
 Alpha virt. eigenvalues --    1.05537   1.06240   1.06872   1.07247   1.07423
 Alpha virt. eigenvalues --    1.08234   1.08674   1.09981   1.11334   1.12114
 Alpha virt. eigenvalues --    1.12728   1.13235   1.14486   1.14911   1.15122
 Alpha virt. eigenvalues --    1.15942   1.16238   1.17335   1.17764   1.18996
 Alpha virt. eigenvalues --    1.19162   1.19727   1.21432   1.21887   1.22131
 Alpha virt. eigenvalues --    1.22821   1.23176   1.24375   1.24903   1.25720
 Alpha virt. eigenvalues --    1.25932   1.26732   1.27625   1.29164   1.29794
 Alpha virt. eigenvalues --    1.30891   1.31115   1.31349   1.32084   1.34255
 Alpha virt. eigenvalues --    1.34874   1.35074   1.35666   1.36770   1.36944
 Alpha virt. eigenvalues --    1.38113   1.38432   1.38958   1.39415   1.40321
 Alpha virt. eigenvalues --    1.41177   1.42102   1.42384   1.43187   1.43850
 Alpha virt. eigenvalues --    1.44463   1.44548   1.45202   1.46106   1.46880
 Alpha virt. eigenvalues --    1.47311   1.47348   1.47877   1.49659   1.51144
 Alpha virt. eigenvalues --    1.51501   1.52270   1.52848   1.53582   1.53969
 Alpha virt. eigenvalues --    1.54933   1.55019   1.55723   1.56307   1.57224
 Alpha virt. eigenvalues --    1.57655   1.58949   1.59452   1.60254   1.60806
 Alpha virt. eigenvalues --    1.61260   1.62300   1.62691   1.63831   1.63988
 Alpha virt. eigenvalues --    1.64168   1.64709   1.66204   1.66943   1.67379
 Alpha virt. eigenvalues --    1.68473   1.68834   1.69265   1.69753   1.69999
 Alpha virt. eigenvalues --    1.70460   1.71256   1.71845   1.72265   1.72538
 Alpha virt. eigenvalues --    1.73083   1.73647   1.73961   1.74572   1.74595
 Alpha virt. eigenvalues --    1.75060   1.75747   1.76059   1.76655   1.77050
 Alpha virt. eigenvalues --    1.77374   1.77863   1.78629   1.79651   1.80010
 Alpha virt. eigenvalues --    1.80502   1.81026   1.81182   1.81301   1.82060
 Alpha virt. eigenvalues --    1.82557   1.83098   1.84141   1.84795   1.85548
 Alpha virt. eigenvalues --    1.86103   1.86359   1.86599   1.87500   1.88099
 Alpha virt. eigenvalues --    1.88603   1.88940   1.89466   1.90064   1.90423
 Alpha virt. eigenvalues --    1.91309   1.91476   1.92442   1.92799   1.93440
 Alpha virt. eigenvalues --    1.93623   1.93693   1.94798   1.94923   1.95099
 Alpha virt. eigenvalues --    1.96017   1.96795   1.97210   1.97787   1.98226
 Alpha virt. eigenvalues --    1.99153   1.99298   2.00561   2.01023   2.01869
 Alpha virt. eigenvalues --    2.02359   2.03065   2.03506   2.04982   2.06381
 Alpha virt. eigenvalues --    2.07250   2.07354   2.08651   2.08917   2.09403
 Alpha virt. eigenvalues --    2.10064   2.10713   2.12064   2.12781   2.12844
 Alpha virt. eigenvalues --    2.13939   2.14468   2.15851   2.16006   2.16574
 Alpha virt. eigenvalues --    2.17194   2.18168   2.19112   2.20438   2.21700
 Alpha virt. eigenvalues --    2.22382   2.23440   2.23924   2.24902   2.25054
 Alpha virt. eigenvalues --    2.25529   2.26007   2.26569   2.27176   2.28784
 Alpha virt. eigenvalues --    2.29040   2.29150   2.30014   2.30339   2.31729
 Alpha virt. eigenvalues --    2.32208   2.33550   2.34523   2.34639   2.35533
 Alpha virt. eigenvalues --    2.36193   2.36447   2.37615   2.37921   2.38401
 Alpha virt. eigenvalues --    2.38755   2.39980   2.40289   2.41137   2.41779
 Alpha virt. eigenvalues --    2.42684   2.43657   2.44765   2.45535   2.45954
 Alpha virt. eigenvalues --    2.48087   2.48808   2.49330   2.50052   2.50239
 Alpha virt. eigenvalues --    2.51648   2.52853   2.53756   2.53873   2.55707
 Alpha virt. eigenvalues --    2.56128   2.56526   2.57450   2.58144   2.58844
 Alpha virt. eigenvalues --    2.59364   2.60623   2.61154   2.61709   2.62177
 Alpha virt. eigenvalues --    2.63301   2.65222   2.65827   2.67043   2.68461
 Alpha virt. eigenvalues --    2.68810   2.70271   2.70705   2.71295   2.72663
 Alpha virt. eigenvalues --    2.74661   2.75874   2.76110   2.77409   2.78511
 Alpha virt. eigenvalues --    2.80259   2.82101   2.83031   2.85232   2.86858
 Alpha virt. eigenvalues --    2.88298   2.88588   2.89978   2.90130   2.91112
 Alpha virt. eigenvalues --    2.92088   2.92699   2.95420   2.95774   2.96838
 Alpha virt. eigenvalues --    2.99452   3.01108   3.01678   3.05116   3.05423
 Alpha virt. eigenvalues --    3.08501   3.13655   3.36717   3.64663   3.74274
 Alpha virt. eigenvalues --    3.75070   3.76754   3.76917   3.80905   3.82851
 Alpha virt. eigenvalues --    3.85173   3.87526   3.94911   3.96362   3.98788
 Alpha virt. eigenvalues --    4.04050   4.05153   4.05846   4.06878   4.07929
 Alpha virt. eigenvalues --    4.08433   4.10206   4.10693   4.15422   4.16824
 Alpha virt. eigenvalues --    4.17251   4.18832   4.19561   4.22411   4.22880
 Alpha virt. eigenvalues --    4.28173   4.29268   4.29648   4.32061   4.34956
 Alpha virt. eigenvalues --    4.37058   4.38249   4.39392   4.40884   4.45680
 Alpha virt. eigenvalues --    4.51777   4.55698   4.58628   4.61736   4.62049
 Alpha virt. eigenvalues --    4.66682
          Condensed to atoms (all electrons):
 Mulliken charges:
               1
     1  N   -0.720545
     2  H    0.310055
     3  H    0.310366
     4  C   -0.058805
     5  H    0.138314
     6  C    0.642055
     7  C   -0.363710
     8  H    0.159703
     9  H    0.143171
    10  O   -0.549795
    11  C    0.169840
    12  C   -0.179089
    13  H    0.123575
    14  C   -0.196406
    15  H    0.125803
    16  C   -0.126761
    17  H    0.137293
    18  C   -0.126871
    19  H    0.136601
    20  C   -0.129481
    21  H    0.138167
    22  N   -0.625007
    23  H    0.354803
    24  C   -0.048088
    25  H    0.176933
    26  C    0.583440
    27  C   -0.054556
    28  H    0.151811
    29  H    0.186234
    30  O   -0.496658
    31  O   -0.683324
    32  H    0.444102
    33  N   -0.619345
    34  H    0.332034
    35  C   -0.096695
    36  H    0.234761
    37  C    0.626631
    38  C   -0.036948
    39  H    0.176358
    40  H    0.125504
    41  O   -0.571130
    42  O   -0.603280
    43  H    0.404124
    44  N   -0.633571
    45  H    0.401808
    46  C   -0.059227
    47  H    0.194253
    48  C    0.627606
    49  C   -0.396811
    50  H    0.232295
    51  H    0.203848
    52  O   -0.512771
    53  C    0.598626
    54  O   -0.476922
    55  O   -0.542411
    56  N   -0.616271
    57  H    0.382055
    58  C   -0.065493
    59  H    0.217604
    60  C    0.621926
    61  C   -0.317484
    62  H    0.200095
    63  H    0.189109
    64  O   -0.513700
    65  C   -0.272641
    66  H    0.164992
    67  H    0.158470
    68  C   -0.187172
    69  H    0.205296
    70  H    0.196659
    71  N   -0.595695
    72  H    0.364182
    73  N   -0.793024
    74  H    0.373969
    75  H    0.450584
    76  N   -0.768662
    77  H    0.383361
    78  H    0.383436
    79  C    0.824233
    80  O   -0.528810
    81  H    0.432583
    82  H    0.428492
 Sum of Mulliken charges =   1.00000
 Mulliken charges with hydrogens summed into heavy atoms:
               1
     1  N   -0.100125
     4  C    0.079508
     6  C    0.642055
     7  C   -0.060836
    10  O   -0.549795
    11  C    0.169840
    12  C   -0.055514
    14  C   -0.070603
    16  C    0.010532
    18  C    0.009731
    20  C    0.008685
    22  N   -0.270204
    24  C    0.128844
    26  C    0.583440
    27  C    0.283489
    30  O   -0.496658
    31  O   -0.239222
    33  N   -0.287311
    35  C    0.138066
    37  C    0.626631
    38  C    0.264914
    41  O   -0.571130
    42  O   -0.199156
    44  N   -0.231763
    46  C    0.135026
    48  C    0.627606
    49  C    0.039331
    52  O   -0.512771
    53  C    0.598626
    54  O   -0.476922
    55  O   -0.113918
    56  N   -0.234217
    58  C    0.152111
    60  C    0.621926
    61  C    0.071721
    64  O   -0.513700
    65  C    0.050821
    68  C    0.214784
    71  N   -0.231513
    73  N    0.031529
    76  N   -0.001865
    79  C    0.824233
    80  O   -0.096227
 Electronic spatial extent (au):  <R**2>=          44004.4795
 Charge=              1.0000 electrons
 Dipole moment (field-independent basis, Debye):
    X=             28.2978    Y=            -14.6535    Z=              2.3491  Tot=             31.9533
 Quadrupole moment (field-independent basis, Debye-Ang):
   XX=            -46.9036   YY=            -97.6210   ZZ=           -235.8616
   XY=           -104.7631   XZ=             19.7187   YZ=              6.8664
 Traceless Quadrupole moment (field-independent basis, Debye-Ang):
   XX=             79.8918   YY=             29.1744   ZZ=           -109.0662
   XY=           -104.7631   XZ=             19.7187   YZ=              6.8664
 Octapole moment (field-independent basis, Debye-Ang**2):
  XXX=            234.5114  YYY=           -585.4965  ZZZ=            406.9352  XYY=            583.3899
  XXY=           -848.6782  XXZ=            -35.0098  XZZ=           -439.8331  YZZ=             30.0484
  YYZ=            322.7187  XYZ=             31.7954
 Hexadecapole moment (field-independent basis, Debye-Ang**3):
 XXXX=         -18995.5631 YYYY=          -4833.1083 ZZZZ=         -14910.5117 XXXY=          -6253.5424
 XXXZ=          -6886.9260 YYYX=          -4023.8379 YYYZ=          -2138.4361 ZZZX=          -5891.0160
 ZZZY=          -2508.5357 XXYY=           -767.1519 XXZZ=          -6398.9293 YYZZ=          -3857.3970
 XXYZ=           -786.4689 YYXZ=          -1387.7411 ZZXY=            543.6375
 N-N= 5.228721514889D+03 E-N=-1.548460493838D+04  KE= 2.146450755518D+03
 Unable to Open any file for archive entry.
 1\1\GINC-AMR-005\SP\RB3LYP\6-31G(d)\C25H39N8O10(1+)\KENGMITH\26-May-20
 22\0\\# B3LYP/6-31G* guess=read geom=check nosymm integral(ultrafinegr
 id)\\Candidate Structure: Conf:156 Charge calc in gas phase\\1,1\N,0,-
 2.0571277454,-1.7949386882,-5.5446065358\H,0,-1.9139164869,-2.74391020
 04,-5.2001787829\H,0,-2.7675015388,-1.8358437862,-6.2736693542\C,0,-2.
 5374069608,-0.9772932452,-4.4355181056\H,0,-2.5211840843,0.0732240411,
 -4.7553545079\C,0,-1.5572072847,-1.1816691322,-3.2787560455\C,0,-3.976
 5130106,-1.3044366944,-3.9219847738\H,0,-3.9688489592,-2.3347708004,-3
 .5473312571\H,0,-4.2020631758,-0.6515867966,-3.067825957\O,0,-1.226525
 864,-2.3070866868,-2.9075166185\C,0,-5.0305600553,-1.1330186977,-4.991
 4458183\C,0,-5.5912667071,0.1268752648,-5.2485165859\H,0,-5.2915881712
 ,0.979405394,-4.6420677254\C,0,-5.4427614111,-2.2172916754,-5.77946421
 35\H,0,-5.0332373607,-3.2058645397,-5.5834510894\C,0,-6.5340079725,0.2
 99467219,-6.2613929439\H,0,-6.9611997027,1.2826897167,-6.4397004683\C,
 0,-6.3859304281,-2.0486465472,-6.7958519363\H,0,-6.6967445247,-2.90338
 62862,-7.3907350367\C,0,-6.9334307056,-0.7890771318,-7.0404208323\H,0,
 -7.670603815,-0.6565014264,-7.8274065044\N,0,-1.1030260902,-0.05397966
 07,-2.6648385237\H,0,-1.3724862953,0.8724183935,-2.9746961343\C,0,-0.2
 334074496,-0.1144547933,-1.5123527445\H,0,-0.5740270166,-0.9172580272,
 -0.8479854305\C,0,-0.2871513182,1.2346015275,-0.7939755108\C,0,1.22744
 15786,-0.4462176991,-1.9387468422\H,0,1.5488752826,0.284072857,-2.6927
 200128\H,0,1.2115572081,-1.437774487,-2.3950260422\O,0,-0.6681574041,2
 .2567650391,-1.3439026117\O,0,2.1317944517,-0.4834277094,-0.8376891484
 \H,0,2.3705077031,0.4439031202,-0.6287255642\N,0,0.1499553909,1.187395
 1065,0.5145437938\H,0,0.627869336,0.3259964202,0.7609296196\C,0,0.5946
 879204,2.3910933709,1.2097800273\H,0,0.2013363243,3.2336470173,0.62860
 72124\C,0,2.1336392653,2.4641690874,1.1445349941\C,0,-0.0292951477,2.4
 396462996,2.61937431\H,0,0.2301365218,3.3762561529,3.1235470258\H,0,0.
 3665488698,1.60754099,3.2278985985\O,0,2.7365750845,2.0697213441,0.128
 8156693\O,0,-1.4340019797,2.4200942558,2.548152702\H,0,-1.680481936,1.
 6598150815,1.9950396333\N,0,2.7845362883,2.9497487995,2.2185805813\H,0
 ,2.2651027089,3.4351258442,2.9483310382\C,0,4.2357684625,3.1929374505,
 2.2283473387\H,0,4.5078229899,3.6602862014,1.2747976935\C,0,5.00404150
 96,1.8422545336,2.3650655671\C,0,4.6449375134,4.0944181496,3.408612618
 3\H,0,4.6652183648,3.4760387574,4.314103962\H,0,5.6630436236,4.4525369
 375,3.2454522121\O,0,5.4307043366,1.4359752126,3.4384269665\C,0,3.7199
 438854,5.261541448,3.6757622703\O,0,2.5109219867,5.1671468109,3.809747
 5891\O,0,4.3753625656,6.4231647043,3.7999418222\N,0,5.1561051083,1.173
 1376428,1.1885830439\H,0,4.5672824507,1.4844573638,0.4178235917\C,0,5.
 6697033731,-0.1833651452,1.1690911882\H,0,6.43668015,-0.2479210515,1.9
 497367524\C,0,6.3668642364,-0.4880349268,-0.1491156906\C,0,4.549630036
 5,-1.2102372239,1.5163553649\H,0,3.7503716945,-1.1393117247,0.76817764
 31\H,0,4.1365448366,-0.8486512021,2.4620809997\O,0,6.9623829915,-1.530
 8810492,-0.3853364243\C,0,4.997117646,-2.6770946398,1.6973728748\H,0,4
 .4669782696,-3.1135074259,2.5519763215\H,0,6.0635707936,-2.7230339647,
 1.9460191139\C,0,4.7091309808,-3.5431953047,0.4600007254\H,0,3.6318822
 685,-3.6567100523,0.3125188057\H,0,5.1023283695,-3.0907972149,-0.45200
 08036\N,0,5.2672980995,-4.9031596294,0.5648711073\H,0,4.7181865761,-5.
 5927320376,1.0618466254\N,0,7.4145160516,-4.3315379495,-0.1314704843\H
 ,0,8.278660675,-4.6216492147,-0.5671033978\H,0,7.2271885348,-3.3249014
 972,-0.0996842294\N,0,6.884653641,-6.5416028203,0.3214089068\H,0,6.195
 4479337,-7.277876049,0.3696736941\H,0,7.8506972095,-6.8201636168,0.230
 1021782\C,0,6.5215765074,-5.2451246717,0.2502027742\O,0,6.2707881621,0
 .4863598855,-1.0541080235\H,0,6.7402296641,0.1953930054,-1.8606217282\
 H,0,3.7146502686,7.1091459072,4.0206861332\\Version=ES64L-G16RevC.01\H
 F=-2166.2869859\RMSD=9.268e-09\Dipole=8.2079588,-5.874624,1.9662652\Qu
 adrupole=59.3976117,21.6904512,-81.0880628,-77.8887875,14.6604041,5.10
 49654\PG=C01 [X(C25H39N8O10)]\\@
 The archive entry for this job was punched.


 IN THE LONG RUN, DIGGING FOR TRUTH HAS ALWAYS PROVED NOT ONLY 
 MORE INTERESTING BUT MORE PROFITABLE THAN DIGGING FOR GOLD.

                             -- GEORGE R. HARRISON
 Job cpu time:       0 days  0 hours  2 minutes 21.2 seconds.
 Elapsed time:       0 days  0 hours  0 minutes 36.0 seconds.
 File lengths (MBytes):  RWF=    384 Int=      0 D2E=      0 Chk=     56 Scr=     16
 Normal termination of Gaussian 16 at Thu May 26 20:31:22 2022.
