 Entering Gaussian System, Link 0=/opt/software/Gaussian/g16-AVX2-C.01/g16/g16
 Input=charge-conf-112.com
 Output=charge-conf-112.log
 Initial command:
 /opt/software/Gaussian/g16-AVX2-C.01/g16/l1.exe "/mnt/gs18/scratch/users/kengmith/Gau-2322.inp" -scrdir="/mnt/gs18/scratch/users/kengmith/"
 Entering Link 1 = /opt/software/Gaussian/g16-AVX2-C.01/g16/l1.exe PID=      2332.
  
 Copyright (c) 1988-2019, Gaussian, Inc.  All Rights Reserved.
  
 This is part of the Gaussian(R) 16 program.  It is based on
 the Gaussian(R) 09 system (copyright 2009, Gaussian, Inc.),
 the Gaussian(R) 03 system (copyright 2003, Gaussian, Inc.),
 the Gaussian(R) 98 system (copyright 1998, Gaussian, Inc.),
 the Gaussian(R) 94 system (copyright 1995, Gaussian, Inc.),
 the Gaussian 92(TM) system (copyright 1992, Gaussian, Inc.),
 the Gaussian 90(TM) system (copyright 1990, Gaussian, Inc.),
 the Gaussian 88(TM) system (copyright 1988, Gaussian, Inc.),
 the Gaussian 86(TM) system (copyright 1986, Carnegie Mellon
 University), and the Gaussian 82(TM) system (copyright 1983,
 Carnegie Mellon University). Gaussian is a federally registered
 trademark of Gaussian, Inc.
  
 This software contains proprietary and confidential information,
 including trade secrets, belonging to Gaussian, Inc.
  
 This software is provided under written license and may be
 used, copied, transmitted, or stored only in accord with that
 written license.
  
 The following legend is applicable only to US Government
 contracts under FAR:
  
                    RESTRICTED RIGHTS LEGEND
  
 Use, reproduction and disclosure by the US Government is
 subject to restrictions as set forth in subparagraphs (a)
 and (c) of the Commercial Computer Software - Restricted
 Rights clause in FAR 52.227-19.
  
 Gaussian, Inc.
 340 Quinnipiac St., Bldg. 40, Wallingford CT 06492
  
  
 ---------------------------------------------------------------
 Warning -- This program may not be used in any manner that
 competes with the business of Gaussian, Inc. or will provide
 assistance to any competitor of Gaussian, Inc.  The licensee
 of this program is prohibited from giving any competitor of
 Gaussian, Inc. access to this program.  By using this program,
 the user acknowledges that Gaussian, Inc. is engaged in the
 business of creating and licensing software in the field of
 computational chemistry and represents and warrants to the
 licensee that it is not a competitor of Gaussian, Inc. and that
 it will not use this program in any manner prohibited above.
 ---------------------------------------------------------------
  

 Cite this work as:
 Gaussian 16, Revision C.01,
 M. J. Frisch, G. W. Trucks, H. B. Schlegel, G. E. Scuseria, 
 M. A. Robb, J. R. Cheeseman, G. Scalmani, V. Barone, 
 G. A. Petersson, H. Nakatsuji, X. Li, M. Caricato, A. V. Marenich, 
 J. Bloino, B. G. Janesko, R. Gomperts, B. Mennucci, H. P. Hratchian, 
 J. V. Ortiz, A. F. Izmaylov, J. L. Sonnenberg, D. Williams-Young, 
 F. Ding, F. Lipparini, F. Egidi, J. Goings, B. Peng, A. Petrone, 
 T. Henderson, D. Ranasinghe, V. G. Zakrzewski, J. Gao, N. Rega, 
 G. Zheng, W. Liang, M. Hada, M. Ehara, K. Toyota, R. Fukuda, 
 J. Hasegawa, M. Ishida, T. Nakajima, Y. Honda, O. Kitao, H. Nakai, 
 T. Vreven, K. Throssell, J. A. Montgomery, Jr., J. E. Peralta, 
 F. Ogliaro, M. J. Bearpark, J. J. Heyd, E. N. Brothers, K. N. Kudin, 
 V. N. Staroverov, T. A. Keith, R. Kobayashi, J. Normand, 
 K. Raghavachari, A. P. Rendell, J. C. Burant, S. S. Iyengar, 
 J. Tomasi, M. Cossi, J. M. Millam, M. Klene, C. Adamo, R. Cammi, 
 J. W. Ochterski, R. L. Martin, K. Morokuma, O. Farkas, 
 J. B. Foresman, and D. J. Fox, Gaussian, Inc., Wallingford CT, 2019.
 
 ******************************************
 Gaussian 16:  ES64L-G16RevC.01  3-Jul-2019
                26-May-2022 
 ******************************************
 %mem=8gb
 %nproc=4
 Will use up to    4 processors via shared memory.
 %chk=conf-112.chk
 -------------------------------------------------------------------
 # B3LYP/6-31G* guess=read geom=check nosymm integral(ultrafinegrid)
 -------------------------------------------------------------------
 1/29=2,38=1,172=1/1;
 2/12=2,15=1,40=1/2;
 3/5=1,6=6,7=1,11=2,14=-4,25=1,30=1,74=-5,75=-5,116=-2/1,2,3;
 4/5=1/1;
 5/5=2,38=6/2;
 6/7=2,8=2,9=2,10=2,28=1/1;
 99/5=1,9=1/99;
 ------------------------------------------------------
 Candidate Structure: Conf:112 Charge calc in gas phase
 ------------------------------------------------------
 Structure from the checkpoint file:  "conf-112.chk"
 Charge =  1 Multiplicity = 1
 Redundant internal coordinates found in file.  (old form).
 N,0,-2.7811320314,-4.5428543998,-3.3524391724
 H,0,-1.9524694495,-4.4203051611,-3.932828603
 H,0,-2.523642839,-5.2038545424,-2.6196346766
 C,0,-3.1551914402,-3.2781628751,-2.7273579973
 H,0,-3.2736305767,-2.5297262371,-3.52043088
 C,0,-2.1102669199,-2.7843955371,-1.7191431245
 C,0,-4.5178239886,-3.4524900968,-2.0077388732
 H,0,-5.2125676285,-3.841164778,-2.7594469468
 H,0,-4.3967611289,-4.2313539819,-1.2453526676
 O,0,-1.6272663794,-3.5713052098,-0.8820344595
 C,0,-5.0503277829,-2.1840546358,-1.3763975533
 C,0,-4.9188472569,-1.9530793901,-0.0002450314
 H,0,-4.4542846329,-2.7128031528,0.6247877989
 C,0,-5.6670375478,-1.1999365127,-2.162491539
 H,0,-5.7951391833,-1.3691014553,-3.2298680234
 C,0,-5.3880796804,-0.7706896069,0.5758201951
 H,0,-5.2901586903,-0.6156621808,1.64733544
 C,0,-6.1345120686,-0.0158900336,-1.5913306088
 H,0,-6.616610319,0.7312057471,-2.2159183367
 C,0,-5.9953106717,0.2027375779,-0.2189761862
 H,0,-6.3678111918,1.1202634452,0.2280618634
 N,0,-1.7546752434,-1.4854185592,-1.7811570456
 H,0,-2.1522654476,-0.8641157502,-2.4788917335
 C,0,-0.9165154336,-0.8472505823,-0.7836635567
 H,0,-1.3776979458,-0.960823364,0.2078488087
 C,0,-0.8304213914,0.6510604521,-1.1197684618
 C,0,0.5057077273,-1.4673098263,-0.6900753429
 H,0,1.2279304422,-0.7145786925,-0.36684798
 H,0,0.801515807,-1.8218017523,-1.6861154764
 O,0,-1.1043222515,1.0885383676,-2.2262522798
 O,0,0.5355652357,-2.5222280868,0.2729630395
 H,0,-0.228781112,-3.1096018987,0.0193858318
 N,0,-0.4231374245,1.414003792,-0.0579529396
 H,0,-0.0879811087,0.8916263259,0.7426039542
 C,0,0.2324899021,2.6988613606,-0.2137882702
 H,0,-0.1261248315,3.1566393213,-1.1391049028
 C,0,1.7541133275,2.4868415712,-0.2801309818
 C,0,-0.1477405883,3.5976225916,1.0090015281
 H,0,-0.0842651214,2.9829015891,1.9190004548
 H,0,-1.1901338808,3.9034192892,0.8869399624
 O,0,2.2731950933,1.3987113907,-0.0125181836
 O,0,0.6369611206,4.7653640819,1.1338093297
 H,0,1.4469172909,4.5235841228,1.6300410103
 N,0,2.4877371381,3.5952622315,-0.5684924749
 H,0,1.9768713487,4.4712133336,-0.4816914481
 C,0,3.8909349373,3.6159909102,-0.1721422019
 H,0,4.4273659929,2.8754446101,-0.7716609824
 C,0,3.9828131059,3.2365556363,1.3238163725
 C,0,4.5030642575,4.9949442355,-0.4450137318
 H,0,3.8808722737,5.8021927528,-0.0458508777
 H,0,5.4744796838,5.0728631636,0.0603077497
 O,0,3.1264337212,3.5890828244,2.1410522131
 C,0,4.7597591176,5.199544715,-1.931210751
 O,0,5.0210464943,4.3132094446,-2.7118132183
 O,0,4.6971659258,6.503035043,-2.2641797557
 N,0,5.0456609168,2.4680034783,1.6508772167
 H,0,5.7462790177,2.2551464198,0.9501345991
 C,0,5.2863991878,1.9140703735,2.9718230572
 H,0,4.7385922165,2.5156620112,3.7018722372
 C,0,6.7844679338,2.0035619754,3.2504054653
 C,0,4.8336816028,0.4285859728,3.0507056189
 H,0,5.2404519514,-0.0083623894,3.970295834
 H,0,5.3057236277,-0.0998234431,2.2117406732
 O,0,7.6258821322,2.1442038157,2.3918750075
 C,0,3.301542964,0.2603491826,2.9904779471
 H,0,2.8605983857,1.0654595483,2.3989957061
 H,0,2.8726714134,0.3481805767,3.9980951785
 C,0,2.8275258181,-1.0324580512,2.3252269268
 H,0,1.7331768377,-1.0531811118,2.2727897258
 H,0,3.2087632763,-1.081027983,1.3006079433
 N,0,3.3046582369,-2.2311592465,3.0401369885
 H,0,3.4986650324,-2.1366506159,4.0288497714
 N,0,2.7437443065,-3.754385167,1.3719710188
 H,0,2.9355949341,-4.6463541285,0.9360639217
 H,0,1.9606503374,-3.2002753822,0.9618297124
 N,0,3.9761856697,-4.4370735455,3.2186985588
 H,0,4.6695671677,-4.2092781017,3.9161529214
 H,0,3.8532451021,-5.4120361559,2.9878458672
 C,0,3.3254036858,-3.471052672,2.534536246
 O,0,7.0554959985,1.8539642957,4.5598989035
 H,0,8.026320114,1.8978720301,4.6620468276
 H,0,4.9158744978,6.5671525165,-3.2141600305
 Recover connectivity data from disk.
                           ----------------------------
                           !    Current Parameters    !
                           ! (Angstroms and Degrees)  !
 --------------------------                            --------------------------
 ! Name  Definition              Value                                          !
 --------------------------------------------------------------------------------
 ! R1    R(1,2)                  1.0191                                         !
 ! R2    R(1,3)                  1.0199                                         !
 ! R3    R(1,4)                  1.4595                                         !
 ! R4    R(4,5)                  1.0969                                         !
 ! R5    R(4,6)                  1.5337                                         !
 ! R6    R(4,7)                  1.5508                                         !
 ! R7    R(6,10)                 1.2463                                         !
 ! R8    R(6,22)                 1.3482                                         !
 ! R9    R(7,8)                  1.0949                                         !
 ! R10   R(7,9)                  1.0966                                         !
 ! R11   R(7,11)                 1.5136                                         !
 ! R12   R(11,12)                1.4016                                         !
 ! R13   R(11,14)                1.4024                                         !
 ! R14   R(12,13)                1.088                                          !
 ! R15   R(12,16)                1.3965                                         !
 ! R16   R(14,15)                1.0883                                         !
 ! R17   R(14,18)                1.3953                                         !
 ! R18   R(16,17)                1.0871                                         !
 ! R19   R(16,20)                1.3957                                         !
 ! R20   R(18,19)                1.0866                                         !
 ! R21   R(18,20)                1.3966                                         !
 ! R22   R(20,21)                1.0865                                         !
 ! R23   R(22,23)                1.0153                                         !
 ! R24   R(22,24)                1.4508                                         !
 ! R25   R(24,25)                1.0994                                         !
 ! R26   R(24,26)                1.538                                          !
 ! R27   R(24,27)                1.5543                                         !
 ! R28   R(26,30)                1.2209                                         !
 ! R29   R(26,33)                1.3695                                         !
 ! R30   R(27,28)                1.0921                                         !
 ! R31   R(27,29)                1.0978                                         !
 ! R32   R(27,31)                1.4287                                         !
 ! R33   R(31,32)                0.9968                                         !
 ! R34   R(33,34)                1.013                                          !
 ! R35   R(33,35)                1.4509                                         !
 ! R36   R(35,36)                1.0929                                         !
 ! R37   R(35,37)                1.5378                                         !
 ! R38   R(35,38)                1.5645                                         !
 ! R39   R(37,41)                1.2349                                         !
 ! R40   R(37,44)                1.3601                                         !
 ! R41   R(38,39)                1.1                                            !
 ! R42   R(38,40)                1.0932                                         !
 ! R43   R(38,42)                1.4124                                         !
 ! R44   R(42,43)                0.9802                                         !
 ! R45   R(44,45)                1.0177                                         !
 ! R46   R(44,46)                1.4582                                         !
 ! R47   R(46,47)                1.0934                                         !
 ! R48   R(46,48)                1.5461                                         !
 ! R49   R(46,49)                1.5332                                         !
 ! R50   R(48,52)                1.2351                                         !
 ! R51   R(48,56)                1.3518                                         !
 ! R52   R(49,50)                1.0946                                         !
 ! R53   R(49,51)                1.0978                                         !
 ! R54   R(49,53)                1.522                                          !
 ! R55   R(53,54)                1.2096                                         !
 ! R56   R(53,55)                1.3468                                         !
 ! R57   R(55,82)                0.9769                                         !
 ! R58   R(56,57)                1.0135                                         !
 ! R59   R(56,58)                1.4525                                         !
 ! R60   R(58,59)                1.0931                                         !
 ! R61   R(58,60)                1.5264                                         !
 ! R62   R(58,61)                1.5549                                         !
 ! R63   R(60,64)                1.2103                                         !
 ! R64   R(60,80)                1.3456                                         !
 ! R65   R(61,62)                1.0964                                         !
 ! R66   R(61,63)                1.0981                                         !
 ! R67   R(61,65)                1.5425                                         !
 ! R68   R(65,66)                1.092                                          !
 ! R69   R(65,67)                1.0986                                         !
 ! R70   R(65,68)                1.5292                                         !
 ! R71   R(68,69)                1.0958                                         !
 ! R72   R(68,70)                1.0943                                         !
 ! R73   R(68,71)                1.475                                          !
 ! R74   R(71,72)                1.012                                          !
 ! R75   R(71,79)                1.3392                                         !
 ! R76   R(73,74)                1.0112                                         !
 ! R77   R(73,75)                1.0433                                         !
 ! R78   R(73,79)                1.3305                                         !
 ! R79   R(76,77)                1.0095                                         !
 ! R80   R(76,78)                1.0094                                         !
 ! R81   R(76,79)                1.3508                                         !
 ! R82   R(80,81)                0.9772                                         !
 ! A1    A(2,1,3)              106.3703                                         !
 ! A2    A(2,1,4)              110.3722                                         !
 ! A3    A(3,1,4)              108.5768                                         !
 ! A4    A(1,4,5)              108.0154                                         !
 ! A5    A(1,4,6)              112.7003                                         !
 ! A6    A(1,4,7)              109.0581                                         !
 ! A7    A(5,4,6)              109.22                                           !
 ! A8    A(5,4,7)              108.5015                                         !
 ! A9    A(6,4,7)              109.2562                                         !
 ! A10   A(4,6,10)             120.1531                                         !
 ! A11   A(4,6,22)             117.3651                                         !
 ! A12   A(10,6,22)            122.4813                                         !
 ! A13   A(4,7,8)              106.192                                          !
 ! A14   A(4,7,9)              107.7849                                         !
 ! A15   A(4,7,11)             114.1084                                         !
 ! A16   A(8,7,9)              107.1716                                         !
 ! A17   A(8,7,11)             111.1381                                         !
 ! A18   A(9,7,11)             110.1242                                         !
 ! A19   A(7,11,12)            120.973                                          !
 ! A20   A(7,11,14)            120.5949                                         !
 ! A21   A(12,11,14)           118.4225                                         !
 ! A22   A(11,12,13)           119.2784                                         !
 ! A23   A(11,12,16)           120.8672                                         !
 ! A24   A(13,12,16)           119.8509                                         !
 ! A25   A(11,14,15)           119.502                                          !
 ! A26   A(11,14,18)           120.8896                                         !
 ! A27   A(15,14,18)           119.6025                                         !
 ! A28   A(12,16,17)           119.8077                                         !
 ! A29   A(12,16,20)           120.12                                           !
 ! A30   A(17,16,20)           120.0681                                         !
 ! A31   A(14,18,19)           119.7904                                         !
 ! A32   A(14,18,20)           120.1126                                         !
 ! A33   A(19,18,20)           120.094                                          !
 ! A34   A(16,20,18)           119.5875                                         !
 ! A35   A(16,20,21)           120.2546                                         !
 ! A36   A(18,20,21)           120.1543                                         !
 ! A37   A(6,22,23)            121.1916                                         !
 ! A38   A(6,22,24)            122.9955                                         !
 ! A39   A(23,22,24)           115.4385                                         !
 ! A40   A(22,24,25)           109.408                                          !
 ! A41   A(22,24,26)           108.0967                                         !
 ! A42   A(22,24,27)           113.2377                                         !
 ! A43   A(25,24,26)           108.7365                                         !
 ! A44   A(25,24,27)           106.7573                                         !
 ! A45   A(26,24,27)           110.5226                                         !
 ! A46   A(24,26,30)           122.3145                                         !
 ! A47   A(24,26,33)           112.9517                                         !
 ! A48   A(30,26,33)           124.7337                                         !
 ! A49   A(24,27,28)           110.3632                                         !
 ! A50   A(24,27,29)           108.7069                                         !
 ! A51   A(24,27,31)           110.7483                                         !
 ! A52   A(28,27,29)           108.2336                                         !
 ! A53   A(28,27,31)           107.1937                                         !
 ! A54   A(29,27,31)           111.562                                          !
 ! A55   A(27,31,32)           104.3357                                         !
 ! A56   A(26,33,34)           115.0794                                         !
 ! A57   A(26,33,35)           122.9895                                         !
 ! A58   A(34,33,35)           113.0827                                         !
 ! A59   A(33,35,36)           108.2768                                         !
 ! A60   A(33,35,37)           109.2494                                         !
 ! A61   A(33,35,38)           108.3593                                         !
 ! A62   A(36,35,37)           110.238                                          !
 ! A63   A(36,35,38)           109.9609                                         !
 ! A64   A(37,35,38)           110.6966                                         !
 ! A65   A(35,37,41)           121.8741                                         !
 ! A66   A(35,37,44)           115.4997                                         !
 ! A67   A(41,37,44)           122.4988                                         !
 ! A68   A(35,38,39)           108.1513                                         !
 ! A69   A(35,38,40)           107.7693                                         !
 ! A70   A(35,38,42)           114.142                                          !
 ! A71   A(39,38,40)           107.6814                                         !
 ! A72   A(39,38,42)           110.9077                                         !
 ! A73   A(40,38,42)           107.9604                                         !
 ! A74   A(38,42,43)           107.4509                                         !
 ! A75   A(37,44,45)           114.3665                                         !
 ! A76   A(37,44,46)           118.2276                                         !
 ! A77   A(45,44,46)           116.5894                                         !
 ! A78   A(44,46,47)           108.2656                                         !
 ! A79   A(44,46,48)           108.4626                                         !
 ! A80   A(44,46,49)           110.4011                                         !
 ! A81   A(47,46,48)           109.5818                                         !
 ! A82   A(47,46,49)           108.402                                          !
 ! A83   A(48,46,49)           111.6671                                         !
 ! A84   A(46,48,52)           121.9358                                         !
 ! A85   A(46,48,56)           114.8579                                         !
 ! A86   A(52,48,56)           123.185                                          !
 ! A87   A(46,49,50)           111.8054                                         !
 ! A88   A(46,49,51)           109.5856                                         !
 ! A89   A(46,49,53)           111.2248                                         !
 ! A90   A(50,49,51)           106.4271                                         !
 ! A91   A(50,49,53)           110.6598                                         !
 ! A92   A(51,49,53)           106.9                                            !
 ! A93   A(49,53,54)           124.6156                                         !
 ! A94   A(49,53,55)           111.3262                                         !
 ! A95   A(54,53,55)           124.0327                                         !
 ! A96   A(53,55,82)           107.069                                          !
 ! A97   A(48,56,57)           119.7124                                         !
 ! A98   A(48,56,58)           124.5542                                         !
 ! A99   A(57,56,58)           115.7292                                         !
 ! A100  A(56,58,59)           108.3261                                         !
 ! A101  A(56,58,60)           107.836                                          !
 ! A102  A(56,58,61)           111.2364                                         !
 ! A103  A(59,58,60)           109.7355                                         !
 ! A104  A(59,58,61)           110.2407                                         !
 ! A105  A(60,58,61)           109.4206                                         !
 ! A106  A(58,60,64)           124.0326                                         !
 ! A107  A(58,60,80)           111.6405                                         !
 ! A108  A(64,60,80)           124.2783                                         !
 ! A109  A(58,61,62)           108.377                                          !
 ! A110  A(58,61,63)           107.2046                                         !
 ! A111  A(58,61,65)           113.0417                                         !
 ! A112  A(62,61,63)           106.8308                                         !
 ! A113  A(62,61,65)           110.9651                                         !
 ! A114  A(63,61,65)           110.1606                                         !
 ! A115  A(61,65,66)           109.9872                                         !
 ! A116  A(61,65,67)           110.0731                                         !
 ! A117  A(61,65,68)           114.6497                                         !
 ! A118  A(66,65,67)           106.2727                                         !
 ! A119  A(66,65,68)           105.2181                                         !
 ! A120  A(67,65,68)           110.2167                                         !
 ! A121  A(65,68,69)           110.2649                                         !
 ! A122  A(65,68,70)           109.6847                                         !
 ! A123  A(65,68,71)           112.0807                                         !
 ! A124  A(69,68,70)           107.5941                                         !
 ! A125  A(69,68,71)           109.3219                                         !
 ! A126  A(70,68,71)           107.7611                                         !
 ! A127  A(68,71,72)           117.3648                                         !
 ! A128  A(68,71,79)           125.0609                                         !
 ! A129  A(72,71,79)           116.895                                          !
 ! A130  A(74,73,75)           116.1963                                         !
 ! A131  A(74,73,79)           118.7899                                         !
 ! A132  A(75,73,79)           123.9552                                         !
 ! A133  A(77,76,78)           117.3611                                         !
 ! A134  A(77,76,79)           121.2946                                         !
 ! A135  A(78,76,79)           121.0776                                         !
 ! A136  A(71,79,73)           121.3519                                         !
 ! A137  A(71,79,76)           118.5778                                         !
 ! A138  A(73,79,76)           120.0581                                         !
 ! A139  A(60,80,81)           107.2683                                         !
 ! D1    D(2,1,4,5)             54.8154                                         !
 ! D2    D(2,1,4,6)            -65.9336                                         !
 ! D3    D(2,1,4,7)            172.5509                                         !
 ! D4    D(3,1,4,5)            171.0456                                         !
 ! D5    D(3,1,4,6)             50.2966                                         !
 ! D6    D(3,1,4,7)            -71.2189                                         !
 ! D7    D(1,4,6,10)           -46.1498                                         !
 ! D8    D(1,4,6,22)           134.1049                                         !
 ! D9    D(5,4,6,10)          -166.2072                                         !
 ! D10   D(5,4,6,22)            14.0475                                         !
 ! D11   D(7,4,6,10)            75.2533                                         !
 ! D12   D(7,4,6,22)          -104.492                                          !
 ! D13   D(1,4,7,8)            -54.2687                                         !
 ! D14   D(1,4,7,9)             60.3138                                         !
 ! D15   D(1,4,7,11)          -177.0435                                         !
 ! D16   D(5,4,7,8)             63.1599                                         !
 ! D17   D(5,4,7,9)            177.7424                                         !
 ! D18   D(5,4,7,11)           -59.6149                                         !
 ! D19   D(6,4,7,8)           -177.8534                                         !
 ! D20   D(6,4,7,9)            -63.2709                                         !
 ! D21   D(6,4,7,11)            59.3718                                         !
 ! D22   D(4,6,22,23)           -1.0299                                         !
 ! D23   D(4,6,22,24)          171.6216                                         !
 ! D24   D(10,6,22,23)         179.2312                                         !
 ! D25   D(10,6,22,24)          -8.1174                                         !
 ! D26   D(4,7,11,12)         -100.6361                                         !
 ! D27   D(4,7,11,14)           78.2139                                         !
 ! D28   D(8,7,11,12)          139.3268                                         !
 ! D29   D(8,7,11,14)          -41.8232                                         !
 ! D30   D(9,7,11,12)           20.7207                                         !
 ! D31   D(9,7,11,14)         -160.4293                                         !
 ! D32   D(7,11,12,13)          -1.9166                                         !
 ! D33   D(7,11,12,16)         178.7638                                         !
 ! D34   D(14,11,12,13)        179.209                                          !
 ! D35   D(14,11,12,16)         -0.1105                                         !
 ! D36   D(7,11,14,15)           2.2648                                         !
 ! D37   D(7,11,14,18)        -178.6223                                         !
 ! D38   D(12,11,14,15)       -178.8564                                         !
 ! D39   D(12,11,14,18)          0.2565                                         !
 ! D40   D(11,12,16,17)        179.112                                          !
 ! D41   D(11,12,16,20)         -0.1341                                         !
 ! D42   D(13,12,16,17)         -0.2037                                         !
 ! D43   D(13,12,16,20)       -179.4498                                         !
 ! D44   D(11,14,18,19)       -179.52                                           !
 ! D45   D(11,14,18,20)         -0.1582                                         !
 ! D46   D(15,14,18,19)         -0.408                                          !
 ! D47   D(15,14,18,20)        178.9538                                         !
 ! D48   D(12,16,20,18)          0.2351                                         !
 ! D49   D(12,16,20,21)        179.5445                                         !
 ! D50   D(17,16,20,18)       -179.0091                                         !
 ! D51   D(17,16,20,21)          0.3004                                         !
 ! D52   D(14,18,20,16)         -0.0906                                         !
 ! D53   D(14,18,20,21)       -179.4007                                         !
 ! D54   D(19,18,20,16)        179.2693                                         !
 ! D55   D(19,18,20,21)         -0.0409                                         !
 ! D56   D(6,22,24,25)         -56.8465                                         !
 ! D57   D(6,22,24,26)        -175.1033                                         !
 ! D58   D(6,22,24,27)          62.0974                                         !
 ! D59   D(23,22,24,25)        116.1943                                         !
 ! D60   D(23,22,24,26)         -2.0625                                         !
 ! D61   D(23,22,24,27)       -124.8618                                         !
 ! D62   D(22,24,26,30)        -18.6501                                         !
 ! D63   D(22,24,26,33)        161.2544                                         !
 ! D64   D(25,24,26,30)       -137.335                                          !
 ! D65   D(25,24,26,33)         42.5695                                         !
 ! D66   D(27,24,26,30)        105.7893                                         !
 ! D67   D(27,24,26,33)        -74.3061                                         !
 ! D68   D(22,24,27,28)        150.7282                                         !
 ! D69   D(22,24,27,29)         32.1703                                         !
 ! D70   D(22,24,27,31)        -90.731                                          !
 ! D71   D(25,24,27,28)        -88.8105                                         !
 ! D72   D(25,24,27,29)        152.6316                                         !
 ! D73   D(25,24,27,31)         29.7303                                         !
 ! D74   D(26,24,27,28)         29.2828                                         !
 ! D75   D(26,24,27,29)        -89.2751                                         !
 ! D76   D(26,24,27,31)        147.8237                                         !
 ! D77   D(24,26,33,34)          9.7871                                         !
 ! D78   D(24,26,33,35)        154.8593                                         !
 ! D79   D(30,26,33,34)       -170.311                                          !
 ! D80   D(30,26,33,35)        -25.2388                                         !
 ! D81   D(24,27,31,32)         51.0465                                         !
 ! D82   D(28,27,31,32)        171.4929                                         !
 ! D83   D(29,27,31,32)        -70.1836                                         !
 ! D84   D(26,33,35,36)         29.753                                          !
 ! D85   D(26,33,35,37)        -90.3267                                         !
 ! D86   D(26,33,35,38)        148.9885                                         !
 ! D87   D(34,33,35,36)        175.4413                                         !
 ! D88   D(34,33,35,37)         55.3616                                         !
 ! D89   D(34,33,35,38)        -65.3231                                         !
 ! D90   D(33,35,37,41)        -10.7258                                         !
 ! D91   D(33,35,37,44)        173.2828                                         !
 ! D92   D(36,35,37,41)       -129.593                                          !
 ! D93   D(36,35,37,44)         54.4156                                         !
 ! D94   D(38,35,37,41)        108.5211                                         !
 ! D95   D(38,35,37,44)        -67.4703                                         !
 ! D96   D(33,35,38,39)         43.3516                                         !
 ! D97   D(33,35,38,40)        -72.7974                                         !
 ! D98   D(33,35,38,42)        167.3029                                         !
 ! D99   D(36,35,38,39)        161.5209                                         !
 ! D100  D(36,35,38,40)         45.3719                                         !
 ! D101  D(36,35,38,42)        -74.5278                                         !
 ! D102  D(37,35,38,39)        -76.4306                                         !
 ! D103  D(37,35,38,40)        167.4203                                         !
 ! D104  D(37,35,38,42)         47.5207                                         !
 ! D105  D(35,37,44,45)         14.3177                                         !
 ! D106  D(35,37,44,46)        157.5257                                         !
 ! D107  D(41,37,44,45)       -161.646                                          !
 ! D108  D(41,37,44,46)        -18.438                                          !
 ! D109  D(35,38,42,43)        -85.4211                                         !
 ! D110  D(39,38,42,43)         37.0362                                         !
 ! D111  D(40,38,42,43)        154.7866                                         !
 ! D112  D(37,44,46,47)         67.5645                                         !
 ! D113  D(37,44,46,48)        -51.27                                           !
 ! D114  D(37,44,46,49)       -173.9176                                         !
 ! D115  D(45,44,46,47)       -150.0314                                         !
 ! D116  D(45,44,46,48)         91.1341                                         !
 ! D117  D(45,44,46,49)        -31.5135                                         !
 ! D118  D(44,46,48,52)        -36.0518                                         !
 ! D119  D(44,46,48,56)        142.3182                                         !
 ! D120  D(47,46,48,52)       -154.0523                                         !
 ! D121  D(47,46,48,56)         24.3177                                         !
 ! D122  D(49,46,48,52)         85.8245                                         !
 ! D123  D(49,46,48,56)        -95.8054                                         !
 ! D124  D(44,46,49,50)         49.3528                                         !
 ! D125  D(44,46,49,51)        167.1047                                         !
 ! D126  D(44,46,49,53)        -74.9135                                         !
 ! D127  D(47,46,49,50)        167.7873                                         !
 ! D128  D(47,46,49,51)        -74.4609                                         !
 ! D129  D(47,46,49,53)         43.521                                          !
 ! D130  D(48,46,49,50)        -71.3993                                         !
 ! D131  D(48,46,49,51)         46.3525                                         !
 ! D132  D(48,46,49,53)        164.3343                                         !
 ! D133  D(46,48,56,57)          5.2733                                         !
 ! D134  D(46,48,56,58)       -175.5058                                         !
 ! D135  D(52,48,56,57)       -176.3795                                         !
 ! D136  D(52,48,56,58)          2.8414                                         !
 ! D137  D(46,49,53,54)        -30.1183                                         !
 ! D138  D(46,49,53,55)        151.6598                                         !
 ! D139  D(50,49,53,54)       -155.0301                                         !
 ! D140  D(50,49,53,55)         26.748                                          !
 ! D141  D(51,49,53,54)         89.4747                                         !
 ! D142  D(51,49,53,55)        -88.7472                                         !
 ! D143  D(49,53,55,82)        177.1004                                         !
 ! D144  D(54,53,55,82)         -1.1338                                         !
 ! D145  D(48,56,58,59)        -22.2392                                         !
 ! D146  D(48,56,58,60)       -140.9412                                         !
 ! D147  D(48,56,58,61)         99.0739                                         !
 ! D148  D(57,56,58,59)        157.0097                                         !
 ! D149  D(57,56,58,60)         38.3077                                         !
 ! D150  D(57,56,58,61)        -81.6772                                         !
 ! D151  D(56,58,60,64)        -19.0629                                         !
 ! D152  D(56,58,60,80)        163.38                                           !
 ! D153  D(59,58,60,64)       -136.86                                           !
 ! D154  D(59,58,60,80)         45.5829                                         !
 ! D155  D(61,58,60,64)        102.0616                                         !
 ! D156  D(61,58,60,80)        -75.4955                                         !
 ! D157  D(56,58,61,62)        167.0584                                         !
 ! D158  D(56,58,61,63)         52.0809                                         !
 ! D159  D(56,58,61,65)        -69.505                                          !
 ! D160  D(59,58,61,62)        -72.7545                                         !
 ! D161  D(59,58,61,63)        172.268                                          !
 ! D162  D(59,58,61,65)         50.6821                                         !
 ! D163  D(60,58,61,62)         48.0171                                         !
 ! D164  D(60,58,61,63)        -66.9604                                         !
 ! D165  D(60,58,61,65)        171.4537                                         !
 ! D166  D(58,60,80,81)        178.5191                                         !
 ! D167  D(64,60,80,81)          0.9691                                         !
 ! D168  D(58,61,65,66)         30.1181                                         !
 ! D169  D(58,61,65,67)        -86.6487                                         !
 ! D170  D(58,61,65,68)        148.4271                                         !
 ! D171  D(62,61,65,66)        152.1143                                         !
 ! D172  D(62,61,65,67)         35.3475                                         !
 ! D173  D(62,61,65,68)        -89.5767                                         !
 ! D174  D(63,61,65,66)        -89.7871                                         !
 ! D175  D(63,61,65,67)        153.4461                                         !
 ! D176  D(63,61,65,68)         28.5219                                         !
 ! D177  D(61,65,68,69)       -176.9719                                         !
 ! D178  D(61,65,68,70)        -58.658                                          !
 ! D179  D(61,65,68,71)         60.9955                                         !
 ! D180  D(66,65,68,69)        -56.0026                                         !
 ! D181  D(66,65,68,70)         62.3114                                         !
 ! D182  D(66,65,68,71)       -178.0352                                         !
 ! D183  D(67,65,68,69)         58.1794                                         !
 ! D184  D(67,65,68,70)        176.4934                                         !
 ! D185  D(67,65,68,71)        -63.8532                                         !
 ! D186  D(65,68,71,72)         26.5501                                         !
 ! D187  D(65,68,71,79)       -163.2195                                         !
 ! D188  D(69,68,71,72)        -96.0194                                         !
 ! D189  D(69,68,71,79)         74.2111                                         !
 ! D190  D(70,68,71,72)        147.3232                                         !
 ! D191  D(70,68,71,79)        -42.4463                                         !
 ! D192  D(68,71,79,73)         -8.824                                          !
 ! D193  D(68,71,79,76)        169.9056                                         !
 ! D194  D(72,71,79,73)        161.4478                                         !
 ! D195  D(72,71,79,76)        -19.8226                                         !
 ! D196  D(74,73,79,71)        167.9207                                         !
 ! D197  D(74,73,79,76)        -10.7903                                         !
 ! D198  D(75,73,79,71)        -24.3105                                         !
 ! D199  D(75,73,79,76)        156.9784                                         !
 ! D200  D(77,76,79,71)        -19.4461                                         !
 ! D201  D(77,76,79,73)        159.3004                                         !
 ! D202  D(78,76,79,71)        166.6417                                         !
 ! D203  D(78,76,79,73)        -14.6118                                         !
 --------------------------------------------------------------------------------
 Symmetry turned off by external request.
 Stoichiometry    C25H39N8O10(1+)
 Framework group  C1[X(C25H39N8O10)]
 Deg. of freedom   240
 Full point group                 C1      NOp   1
                          Input orientation:                          
 ---------------------------------------------------------------------
 Center     Atomic      Atomic             Coordinates (Angstroms)
 Number     Number       Type             X           Y           Z
 ---------------------------------------------------------------------
      1          7           0       -2.781132   -4.542854   -3.352439
      2          1           0       -1.952469   -4.420305   -3.932829
      3          1           0       -2.523643   -5.203855   -2.619635
      4          6           0       -3.155191   -3.278163   -2.727358
      5          1           0       -3.273631   -2.529726   -3.520431
      6          6           0       -2.110267   -2.784396   -1.719143
      7          6           0       -4.517824   -3.452490   -2.007739
      8          1           0       -5.212568   -3.841165   -2.759447
      9          1           0       -4.396761   -4.231354   -1.245353
     10          8           0       -1.627266   -3.571305   -0.882034
     11          6           0       -5.050328   -2.184055   -1.376398
     12          6           0       -4.918847   -1.953079   -0.000245
     13          1           0       -4.454285   -2.712803    0.624788
     14          6           0       -5.667038   -1.199937   -2.162492
     15          1           0       -5.795139   -1.369101   -3.229868
     16          6           0       -5.388080   -0.770690    0.575820
     17          1           0       -5.290159   -0.615662    1.647335
     18          6           0       -6.134512   -0.015890   -1.591331
     19          1           0       -6.616610    0.731206   -2.215918
     20          6           0       -5.995311    0.202738   -0.218976
     21          1           0       -6.367811    1.120263    0.228062
     22          7           0       -1.754675   -1.485419   -1.781157
     23          1           0       -2.152265   -0.864116   -2.478892
     24          6           0       -0.916515   -0.847251   -0.783664
     25          1           0       -1.377698   -0.960823    0.207849
     26          6           0       -0.830421    0.651060   -1.119768
     27          6           0        0.505708   -1.467310   -0.690075
     28          1           0        1.227930   -0.714579   -0.366848
     29          1           0        0.801516   -1.821802   -1.686115
     30          8           0       -1.104322    1.088538   -2.226252
     31          8           0        0.535565   -2.522228    0.272963
     32          1           0       -0.228781   -3.109602    0.019386
     33          7           0       -0.423137    1.414004   -0.057953
     34          1           0       -0.087981    0.891626    0.742604
     35          6           0        0.232490    2.698861   -0.213788
     36          1           0       -0.126125    3.156639   -1.139105
     37          6           0        1.754113    2.486842   -0.280131
     38          6           0       -0.147741    3.597623    1.009002
     39          1           0       -0.084265    2.982902    1.919000
     40          1           0       -1.190134    3.903419    0.886940
     41          8           0        2.273195    1.398711   -0.012518
     42          8           0        0.636961    4.765364    1.133809
     43          1           0        1.446917    4.523584    1.630041
     44          7           0        2.487737    3.595262   -0.568492
     45          1           0        1.976871    4.471213   -0.481691
     46          6           0        3.890935    3.615991   -0.172142
     47          1           0        4.427366    2.875445   -0.771661
     48          6           0        3.982813    3.236556    1.323816
     49          6           0        4.503064    4.994944   -0.445014
     50          1           0        3.880872    5.802193   -0.045851
     51          1           0        5.474480    5.072863    0.060308
     52          8           0        3.126434    3.589083    2.141052
     53          6           0        4.759759    5.199545   -1.931211
     54          8           0        5.021046    4.313209   -2.711813
     55          8           0        4.697166    6.503035   -2.264180
     56          7           0        5.045661    2.468003    1.650877
     57          1           0        5.746279    2.255146    0.950135
     58          6           0        5.286399    1.914070    2.971823
     59          1           0        4.738592    2.515662    3.701872
     60          6           0        6.784468    2.003562    3.250405
     61          6           0        4.833682    0.428586    3.050706
     62          1           0        5.240452   -0.008362    3.970296
     63          1           0        5.305724   -0.099823    2.211741
     64          8           0        7.625882    2.144204    2.391875
     65          6           0        3.301543    0.260349    2.990478
     66          1           0        2.860598    1.065460    2.398996
     67          1           0        2.872671    0.348181    3.998095
     68          6           0        2.827526   -1.032458    2.325227
     69          1           0        1.733177   -1.053181    2.272790
     70          1           0        3.208763   -1.081028    1.300608
     71          7           0        3.304658   -2.231159    3.040137
     72          1           0        3.498665   -2.136651    4.028850
     73          7           0        2.743744   -3.754385    1.371971
     74          1           0        2.935595   -4.646354    0.936064
     75          1           0        1.960650   -3.200275    0.961830
     76          7           0        3.976186   -4.437074    3.218699
     77          1           0        4.669567   -4.209278    3.916153
     78          1           0        3.853245   -5.412036    2.987846
     79          6           0        3.325404   -3.471053    2.534536
     80          8           0        7.055496    1.853964    4.559899
     81          1           0        8.026320    1.897872    4.662047
     82          1           0        4.915874    6.567153   -3.214160
 ---------------------------------------------------------------------
 Rotational constants (GHZ):           0.0954570           0.0397215           0.0322459
 Standard basis: 6-31G(d) (6D, 7F)
   723 basis functions,  1360 primitive gaussians,   723 cartesian basis functions
   162 alpha electrons      162 beta electrons
       nuclear repulsion energy      5455.4443274894 Hartrees.
 NAtoms=   82 NActive=   82 NUniq=   82 SFac= 1.00D+00 NAtFMM=   60 NAOKFM=T Big=T
 Integral buffers will be    131072 words long.
 Raffenetti 2 integral format.
 Two-electron integral symmetry is turned off.
 One-electron integrals computed using PRISM.
 NBasis=   723 RedAO= T EigKep=  4.69D-04  NBF=   723
 NBsUse=   723 1.00D-06 EigRej= -1.00D+00 NBFU=   723
 Initial guess from the checkpoint file:  "conf-112.chk"
 B after Tr=     0.000000    0.000000    0.000000
         Rot=    1.000000    0.000000    0.000000    0.000000 Ang=   0.00 deg.
 Requested convergence on RMS density matrix=1.00D-08 within 128 cycles.
 Requested convergence on MAX density matrix=1.00D-06.
 Requested convergence on             energy=1.00D-06.
 No special actions if energy rises.
 SCF Done:  E(RB3LYP) =  -2166.30240347     A.U. after    1 cycles
            NFock=  1  Conv=0.89D-08     -V/T= 2.0092

 **********************************************************************

            Population analysis using the SCF Density.

 **********************************************************************

 Alpha  occ. eigenvalues --  -19.30112 -19.27660 -19.25072 -19.24546 -19.22797
 Alpha  occ. eigenvalues --  -19.22638 -19.22234 -19.22006 -19.21696 -19.21309
 Alpha  occ. eigenvalues --  -14.52211 -14.52093 -14.50424 -14.46983 -14.45569
 Alpha  occ. eigenvalues --  -14.45295 -14.45201 -14.38587 -10.48100 -10.42584
 Alpha  occ. eigenvalues --  -10.40494 -10.39601 -10.38714 -10.38472 -10.37385
 Alpha  occ. eigenvalues --  -10.35375 -10.34868 -10.33613 -10.33274 -10.33097
 Alpha  occ. eigenvalues --  -10.32598 -10.32470 -10.31003 -10.30535 -10.30130
 Alpha  occ. eigenvalues --  -10.29956 -10.25695 -10.25471 -10.24950 -10.24837
 Alpha  occ. eigenvalues --  -10.24805 -10.24736 -10.24692  -1.21082  -1.18599
 Alpha  occ. eigenvalues --   -1.16471  -1.14849  -1.13943  -1.13266  -1.12820
 Alpha  occ. eigenvalues --   -1.12230  -1.11213  -1.10290  -1.09694  -1.05960
 Alpha  occ. eigenvalues --   -1.04193  -1.03617  -1.02546  -1.02174  -1.01586
 Alpha  occ. eigenvalues --   -0.96083  -0.92030  -0.91333  -0.89328  -0.87310
 Alpha  occ. eigenvalues --   -0.86682  -0.84208  -0.82925  -0.81161  -0.80194
 Alpha  occ. eigenvalues --   -0.78722  -0.78120  -0.77975  -0.75313  -0.74176
 Alpha  occ. eigenvalues --   -0.73725  -0.72808  -0.72233  -0.70640  -0.69929
 Alpha  occ. eigenvalues --   -0.69351  -0.68461  -0.68204  -0.67457  -0.67181
 Alpha  occ. eigenvalues --   -0.66379  -0.65687  -0.64725  -0.64421  -0.63621
 Alpha  occ. eigenvalues --   -0.62472  -0.61356  -0.60735  -0.60607  -0.60171
 Alpha  occ. eigenvalues --   -0.59353  -0.59193  -0.58850  -0.58670  -0.58120
 Alpha  occ. eigenvalues --   -0.57378  -0.57124  -0.56830  -0.56425  -0.55920
 Alpha  occ. eigenvalues --   -0.55616  -0.55264  -0.54774  -0.54357  -0.54114
 Alpha  occ. eigenvalues --   -0.53556  -0.53328  -0.52969  -0.52736  -0.51919
 Alpha  occ. eigenvalues --   -0.51812  -0.51430  -0.51371  -0.50916  -0.50445
 Alpha  occ. eigenvalues --   -0.50354  -0.49546  -0.49359  -0.49160  -0.48778
 Alpha  occ. eigenvalues --   -0.48081  -0.47687  -0.47514  -0.47467  -0.47176
 Alpha  occ. eigenvalues --   -0.46903  -0.46628  -0.46194  -0.45805  -0.45750
 Alpha  occ. eigenvalues --   -0.44941  -0.44662  -0.44111  -0.42785  -0.42775
 Alpha  occ. eigenvalues --   -0.42163  -0.41860  -0.41070  -0.40791  -0.39802
 Alpha  occ. eigenvalues --   -0.39768  -0.39691  -0.38463  -0.38381  -0.37677
 Alpha  occ. eigenvalues --   -0.36916  -0.36607  -0.36041  -0.35897  -0.35804
 Alpha  occ. eigenvalues --   -0.35565  -0.35000  -0.34710  -0.33834  -0.31211
 Alpha  occ. eigenvalues --   -0.30876  -0.30038
 Alpha virt. eigenvalues --   -0.12469  -0.09724  -0.09213  -0.08403  -0.08145
 Alpha virt. eigenvalues --   -0.07907  -0.06808  -0.06657  -0.06210  -0.05822
 Alpha virt. eigenvalues --   -0.04611  -0.04040  -0.03161  -0.02245  -0.01154
 Alpha virt. eigenvalues --   -0.00869   0.00291   0.00638   0.00837   0.01128
 Alpha virt. eigenvalues --    0.01758   0.02169   0.02673   0.03146   0.03349
 Alpha virt. eigenvalues --    0.03897   0.04230   0.04373   0.04630   0.05016
 Alpha virt. eigenvalues --    0.05575   0.05978   0.06276   0.06833   0.07159
 Alpha virt. eigenvalues --    0.07482   0.07684   0.08371   0.08581   0.08958
 Alpha virt. eigenvalues --    0.09349   0.09643   0.09822   0.10044   0.10266
 Alpha virt. eigenvalues --    0.10657   0.11087   0.11229   0.11404   0.11714
 Alpha virt. eigenvalues --    0.12133   0.12459   0.12764   0.13051   0.13253
 Alpha virt. eigenvalues --    0.13489   0.14093   0.14396   0.14640   0.14936
 Alpha virt. eigenvalues --    0.15597   0.15727   0.16777   0.17327   0.17677
 Alpha virt. eigenvalues --    0.17703   0.18662   0.18869   0.19073   0.19874
 Alpha virt. eigenvalues --    0.20123   0.21963   0.22821   0.23117   0.24207
 Alpha virt. eigenvalues --    0.24865   0.25422   0.25629   0.26443   0.27010
 Alpha virt. eigenvalues --    0.27135   0.27847   0.28013   0.28208   0.29304
 Alpha virt. eigenvalues --    0.30200   0.31136   0.31911   0.32700   0.36470
 Alpha virt. eigenvalues --    0.37093   0.38424   0.39378   0.39579   0.39993
 Alpha virt. eigenvalues --    0.40417   0.41649   0.42315   0.42600   0.43085
 Alpha virt. eigenvalues --    0.43595   0.43715   0.44214   0.45267   0.45404
 Alpha virt. eigenvalues --    0.46432   0.46457   0.46866   0.47140   0.47368
 Alpha virt. eigenvalues --    0.47753   0.47768   0.48107   0.48385   0.48749
 Alpha virt. eigenvalues --    0.49174   0.49462   0.49826   0.50058   0.50473
 Alpha virt. eigenvalues --    0.50630   0.51098   0.51742   0.52065   0.52633
 Alpha virt. eigenvalues --    0.53318   0.53727   0.53920   0.54519   0.54642
 Alpha virt. eigenvalues --    0.54935   0.55080   0.55350   0.55680   0.55915
 Alpha virt. eigenvalues --    0.56179   0.56380   0.56635   0.56791   0.57179
 Alpha virt. eigenvalues --    0.57784   0.58213   0.58751   0.59313   0.59476
 Alpha virt. eigenvalues --    0.59810   0.60570   0.61098   0.61398   0.62341
 Alpha virt. eigenvalues --    0.62976   0.63663   0.64114   0.64947   0.65275
 Alpha virt. eigenvalues --    0.65692   0.66066   0.66112   0.66525   0.67287
 Alpha virt. eigenvalues --    0.67782   0.67909   0.68921   0.69254   0.70172
 Alpha virt. eigenvalues --    0.70198   0.70825   0.70977   0.71366   0.72092
 Alpha virt. eigenvalues --    0.72297   0.72418   0.72901   0.72969   0.73532
 Alpha virt. eigenvalues --    0.74160   0.74417   0.74638   0.74767   0.75708
 Alpha virt. eigenvalues --    0.75853   0.75998   0.76484   0.76739   0.77066
 Alpha virt. eigenvalues --    0.77263   0.77888   0.78014   0.78375   0.78443
 Alpha virt. eigenvalues --    0.78986   0.79243   0.79295   0.79419   0.79659
 Alpha virt. eigenvalues --    0.80091   0.80487   0.80765   0.80965   0.81296
 Alpha virt. eigenvalues --    0.82232   0.82713   0.82886   0.83581   0.83938
 Alpha virt. eigenvalues --    0.84275   0.84520   0.84818   0.85636   0.86115
 Alpha virt. eigenvalues --    0.86322   0.86390   0.86611   0.87071   0.87353
 Alpha virt. eigenvalues --    0.87690   0.87932   0.88102   0.88822   0.89554
 Alpha virt. eigenvalues --    0.89769   0.90571   0.91203   0.91532   0.91985
 Alpha virt. eigenvalues --    0.92671   0.92919   0.93911   0.94213   0.94688
 Alpha virt. eigenvalues --    0.94980   0.95886   0.96790   0.97066   0.97789
 Alpha virt. eigenvalues --    0.98238   0.99202   0.99585   0.99974   1.00460
 Alpha virt. eigenvalues --    1.00527   1.02077   1.02363   1.02770   1.03647
 Alpha virt. eigenvalues --    1.04027   1.04140   1.05447   1.05910   1.06334
 Alpha virt. eigenvalues --    1.06609   1.07160   1.07729   1.09162   1.09623
 Alpha virt. eigenvalues --    1.10221   1.10669   1.11290   1.12276   1.12855
 Alpha virt. eigenvalues --    1.14414   1.14886   1.15794   1.16684   1.17300
 Alpha virt. eigenvalues --    1.18090   1.18709   1.19315   1.20201   1.20842
 Alpha virt. eigenvalues --    1.22269   1.22889   1.23646   1.25100   1.25304
 Alpha virt. eigenvalues --    1.26317   1.27079   1.28572   1.28868   1.30055
 Alpha virt. eigenvalues --    1.31052   1.31413   1.32176   1.32848   1.32939
 Alpha virt. eigenvalues --    1.34537   1.35668   1.36248   1.36916   1.37217
 Alpha virt. eigenvalues --    1.37783   1.37975   1.39180   1.39500   1.40284
 Alpha virt. eigenvalues --    1.41222   1.42359   1.42787   1.43050   1.43336
 Alpha virt. eigenvalues --    1.44261   1.44516   1.44969   1.45086   1.45544
 Alpha virt. eigenvalues --    1.45711   1.46419   1.48183   1.49497   1.50047
 Alpha virt. eigenvalues --    1.50897   1.51813   1.52443   1.52943   1.53354
 Alpha virt. eigenvalues --    1.54763   1.54856   1.55710   1.56049   1.56146
 Alpha virt. eigenvalues --    1.56538   1.57407   1.58016   1.58692   1.59859
 Alpha virt. eigenvalues --    1.60488   1.61928   1.62896   1.63450   1.63934
 Alpha virt. eigenvalues --    1.64465   1.65020   1.65657   1.66317   1.66793
 Alpha virt. eigenvalues --    1.67128   1.67895   1.68625   1.68904   1.69467
 Alpha virt. eigenvalues --    1.69748   1.70321   1.71081   1.71436   1.72311
 Alpha virt. eigenvalues --    1.72848   1.73312   1.73643   1.74032   1.74191
 Alpha virt. eigenvalues --    1.75383   1.75685   1.76435   1.76868   1.77093
 Alpha virt. eigenvalues --    1.77583   1.77814   1.78051   1.78776   1.79405
 Alpha virt. eigenvalues --    1.80141   1.80654   1.81458   1.81924   1.82282
 Alpha virt. eigenvalues --    1.82421   1.82985   1.83278   1.84302   1.84614
 Alpha virt. eigenvalues --    1.85103   1.85552   1.85850   1.86613   1.86972
 Alpha virt. eigenvalues --    1.87594   1.88193   1.88500   1.89336   1.90259
 Alpha virt. eigenvalues --    1.90443   1.91337   1.91566   1.92123   1.93147
 Alpha virt. eigenvalues --    1.93444   1.93779   1.94481   1.94895   1.95865
 Alpha virt. eigenvalues --    1.96171   1.96445   1.97209   1.97668   1.98661
 Alpha virt. eigenvalues --    1.99200   1.99450   1.99570   2.00735   2.01007
 Alpha virt. eigenvalues --    2.01542   2.01768   2.03456   2.03697   2.04662
 Alpha virt. eigenvalues --    2.05464   2.06734   2.07720   2.08083   2.08659
 Alpha virt. eigenvalues --    2.09018   2.09970   2.10334   2.11594   2.12190
 Alpha virt. eigenvalues --    2.13045   2.14468   2.15225   2.16120   2.17201
 Alpha virt. eigenvalues --    2.18119   2.18602   2.19461   2.20372   2.21461
 Alpha virt. eigenvalues --    2.21888   2.22919   2.23621   2.24785   2.24934
 Alpha virt. eigenvalues --    2.25212   2.25365   2.26264   2.27283   2.27979
 Alpha virt. eigenvalues --    2.28502   2.30536   2.31148   2.31516   2.31998
 Alpha virt. eigenvalues --    2.32391   2.32953   2.34251   2.34357   2.34860
 Alpha virt. eigenvalues --    2.35016   2.35691   2.37206   2.37963   2.38529
 Alpha virt. eigenvalues --    2.39344   2.40290   2.40881   2.41677   2.42097
 Alpha virt. eigenvalues --    2.43099   2.43660   2.44263   2.44892   2.45990
 Alpha virt. eigenvalues --    2.46677   2.47023   2.47961   2.48508   2.50581
 Alpha virt. eigenvalues --    2.51385   2.52000   2.53326   2.54363   2.54653
 Alpha virt. eigenvalues --    2.54877   2.56378   2.57089   2.58455   2.58964
 Alpha virt. eigenvalues --    2.59601   2.60217   2.60591   2.60828   2.61320
 Alpha virt. eigenvalues --    2.64692   2.65159   2.65492   2.67036   2.67794
 Alpha virt. eigenvalues --    2.68378   2.68680   2.68871   2.71147   2.71531
 Alpha virt. eigenvalues --    2.71951   2.73751   2.76111   2.77218   2.79296
 Alpha virt. eigenvalues --    2.79872   2.80467   2.81768   2.83151   2.84997
 Alpha virt. eigenvalues --    2.87382   2.89217   2.89344   2.90137   2.90650
 Alpha virt. eigenvalues --    2.90851   2.94027   2.97186   2.97479   2.99029
 Alpha virt. eigenvalues --    3.00009   3.00589   3.01985   3.03561   3.06956
 Alpha virt. eigenvalues --    3.08835   3.11939   3.34965   3.64944   3.74464
 Alpha virt. eigenvalues --    3.75491   3.76456   3.77069   3.77825   3.84983
 Alpha virt. eigenvalues --    3.89550   3.90814   3.93492   3.94814   3.99384
 Alpha virt. eigenvalues --    4.01225   4.03368   4.04576   4.06035   4.06464
 Alpha virt. eigenvalues --    4.07285   4.09161   4.09978   4.13636   4.13724
 Alpha virt. eigenvalues --    4.16123   4.19117   4.23197   4.23520   4.26470
 Alpha virt. eigenvalues --    4.28324   4.28630   4.32478   4.33630   4.35571
 Alpha virt. eigenvalues --    4.36504   4.37169   4.38221   4.41937   4.43433
 Alpha virt. eigenvalues --    4.52679   4.53658   4.58500   4.60195   4.61291
 Alpha virt. eigenvalues --    4.66261
          Condensed to atoms (all electrons):
 Mulliken charges:
               1
     1  N   -0.691328
     2  H    0.303834
     3  H    0.313163
     4  C   -0.072432
     5  H    0.147925
     6  C    0.637889
     7  C   -0.347680
     8  H    0.181549
     9  H    0.158847
    10  O   -0.593199
    11  C    0.157687
    12  C   -0.190017
    13  H    0.129880
    14  C   -0.192396
    15  H    0.135380
    16  C   -0.132088
    17  H    0.131107
    18  C   -0.126097
    19  H    0.143276
    20  C   -0.130285
    21  H    0.139012
    22  N   -0.610815
    23  H    0.367132
    24  C   -0.058026
    25  H    0.184018
    26  C    0.589560
    27  C   -0.070427
    28  H    0.193755
    29  H    0.162921
    30  O   -0.493533
    31  O   -0.689031
    32  H    0.446586
    33  N   -0.576859
    34  H    0.328081
    35  C   -0.121697
    36  H    0.215194
    37  C    0.620452
    38  C   -0.033825
    39  H    0.132448
    40  H    0.183578
    41  O   -0.551147
    42  O   -0.641219
    43  H    0.433235
    44  N   -0.582608
    45  H    0.358906
    46  C   -0.056923
    47  H    0.202920
    48  C    0.649397
    49  C   -0.394485
    50  H    0.200997
    51  H    0.208475
    52  O   -0.561488
    53  C    0.595189
    54  O   -0.445495
    55  O   -0.554762
    56  N   -0.589976
    57  H    0.358042
    58  C   -0.057231
    59  H    0.214183
    60  C    0.585671
    61  C   -0.268138
    62  H    0.158660
    63  H    0.155232
    64  O   -0.451092
    65  C   -0.328814
    66  H    0.216195
    67  H    0.158016
    68  C   -0.149380
    69  H    0.188525
    70  H    0.201880
    71  N   -0.607965
    72  H    0.357682
    73  N   -0.789740
    74  H    0.365742
    75  H    0.453325
    76  N   -0.766547
    77  H    0.377145
    78  H    0.379854
    79  C    0.809445
    80  O   -0.560138
    81  H    0.429942
    82  H    0.424951
 Sum of Mulliken charges =   1.00000
 Mulliken charges with hydrogens summed into heavy atoms:
               1
     1  N   -0.074331
     4  C    0.075493
     6  C    0.637889
     7  C   -0.007284
    10  O   -0.593199
    11  C    0.157687
    12  C   -0.060137
    14  C   -0.057017
    16  C   -0.000982
    18  C    0.017180
    20  C    0.008727
    22  N   -0.243683
    24  C    0.125993
    26  C    0.589560
    27  C    0.286249
    30  O   -0.493533
    31  O   -0.242445
    33  N   -0.248778
    35  C    0.093497
    37  C    0.620452
    38  C    0.282201
    41  O   -0.551147
    42  O   -0.207984
    44  N   -0.223703
    46  C    0.145997
    48  C    0.649397
    49  C    0.014987
    52  O   -0.561488
    53  C    0.595189
    54  O   -0.445495
    55  O   -0.129811
    56  N   -0.231934
    58  C    0.156952
    60  C    0.585671
    61  C    0.045754
    64  O   -0.451092
    65  C    0.045398
    68  C    0.241024
    71  N   -0.250283
    73  N    0.029326
    76  N   -0.009548
    79  C    0.809445
    80  O   -0.130196
 Electronic spatial extent (au):  <R**2>=          34257.2543
 Charge=              1.0000 electrons
 Dipole moment (field-independent basis, Debye):
    X=             16.1706    Y=             -7.5623    Z=             10.8901  Tot=             20.9110
 Quadrupole moment (field-independent basis, Debye-Ang):
   XX=           -157.9450   YY=           -171.4212   ZZ=           -197.4615
   XY=            -24.8300   XZ=             58.4134   YZ=            -35.3523
 Traceless Quadrupole moment (field-independent basis, Debye-Ang):
   XX=             17.6642   YY=              4.1881   ZZ=            -21.8523
   XY=            -24.8300   XZ=             58.4134   YZ=            -35.3523
 Octapole moment (field-independent basis, Debye-Ang**2):
  XXX=           -285.9419  YYY=           -434.3259  ZZZ=              5.0955  XYY=            144.4876
  XXY=            -90.9047  XXZ=            262.3954  XZZ=              5.5399  YZZ=           -169.6029
  YYZ=              2.9494  XYZ=           -132.3554
 Hexadecapole moment (field-independent basis, Debye-Ang**3):
 XXXX=         -20921.4032 YYYY=         -11385.2218 ZZZZ=          -5580.7835 XXXY=          -4427.7896
 XXXZ=          -1267.0822 YYYX=          -4583.6576 YYYZ=          -1776.1099 ZZZX=          -2582.6905
 ZZZY=           -830.8086 XXYY=          -4602.9085 XXZZ=          -3292.5287 YYZZ=          -2608.5532
 XXYZ=           -628.0198 YYXZ=          -1033.8181 ZZXY=          -1617.9307
 N-N= 5.455444327489D+03 E-N=-1.593632217337D+04  KE= 2.146450237665D+03
 Unable to Open any file for archive entry.
 1\1\GINC-AMR-003\SP\RB3LYP\6-31G(d)\C25H39N8O10(1+)\KENGMITH\26-May-20
 22\0\\# B3LYP/6-31G* guess=read geom=check nosymm integral(ultrafinegr
 id)\\Candidate Structure: Conf:112 Charge calc in gas phase\\1,1\N,0,-
 2.7811320314,-4.5428543998,-3.3524391724\H,0,-1.9524694495,-4.42030516
 11,-3.932828603\H,0,-2.523642839,-5.2038545424,-2.6196346766\C,0,-3.15
 51914402,-3.2781628751,-2.7273579973\H,0,-3.2736305767,-2.5297262371,-
 3.52043088\C,0,-2.1102669199,-2.7843955371,-1.7191431245\C,0,-4.517823
 9886,-3.4524900968,-2.0077388732\H,0,-5.2125676285,-3.841164778,-2.759
 4469468\H,0,-4.3967611289,-4.2313539819,-1.2453526676\O,0,-1.627266379
 4,-3.5713052098,-0.8820344595\C,0,-5.0503277829,-2.1840546358,-1.37639
 75533\C,0,-4.9188472569,-1.9530793901,-0.0002450314\H,0,-4.4542846329,
 -2.7128031528,0.6247877989\C,0,-5.6670375478,-1.1999365127,-2.16249153
 9\H,0,-5.7951391833,-1.3691014553,-3.2298680234\C,0,-5.3880796804,-0.7
 706896069,0.5758201951\H,0,-5.2901586903,-0.6156621808,1.64733544\C,0,
 -6.1345120686,-0.0158900336,-1.5913306088\H,0,-6.616610319,0.731205747
 1,-2.2159183367\C,0,-5.9953106717,0.2027375779,-0.2189761862\H,0,-6.36
 78111918,1.1202634452,0.2280618634\N,0,-1.7546752434,-1.4854185592,-1.
 7811570456\H,0,-2.1522654476,-0.8641157502,-2.4788917335\C,0,-0.916515
 4336,-0.8472505823,-0.7836635567\H,0,-1.3776979458,-0.960823364,0.2078
 488087\C,0,-0.8304213914,0.6510604521,-1.1197684618\C,0,0.5057077273,-
 1.4673098263,-0.6900753429\H,0,1.2279304422,-0.7145786925,-0.36684798\
 H,0,0.801515807,-1.8218017523,-1.6861154764\O,0,-1.1043222515,1.088538
 3676,-2.2262522798\O,0,0.5355652357,-2.5222280868,0.2729630395\H,0,-0.
 228781112,-3.1096018987,0.0193858318\N,0,-0.4231374245,1.414003792,-0.
 0579529396\H,0,-0.0879811087,0.8916263259,0.7426039542\C,0,0.232489902
 1,2.6988613606,-0.2137882702\H,0,-0.1261248315,3.1566393213,-1.1391049
 028\C,0,1.7541133275,2.4868415712,-0.2801309818\C,0,-0.1477405883,3.59
 76225916,1.0090015281\H,0,-0.0842651214,2.9829015891,1.9190004548\H,0,
 -1.1901338808,3.9034192892,0.8869399624\O,0,2.2731950933,1.3987113907,
 -0.0125181836\O,0,0.6369611206,4.7653640819,1.1338093297\H,0,1.4469172
 909,4.5235841228,1.6300410103\N,0,2.4877371381,3.5952622315,-0.5684924
 749\H,0,1.9768713487,4.4712133336,-0.4816914481\C,0,3.8909349373,3.615
 9909102,-0.1721422019\H,0,4.4273659929,2.8754446101,-0.7716609824\C,0,
 3.9828131059,3.2365556363,1.3238163725\C,0,4.5030642575,4.9949442355,-
 0.4450137318\H,0,3.8808722737,5.8021927528,-0.0458508777\H,0,5.4744796
 838,5.0728631636,0.0603077497\O,0,3.1264337212,3.5890828244,2.14105221
 31\C,0,4.7597591176,5.199544715,-1.931210751\O,0,5.0210464943,4.313209
 4446,-2.7118132183\O,0,4.6971659258,6.503035043,-2.2641797557\N,0,5.04
 56609168,2.4680034783,1.6508772167\H,0,5.7462790177,2.2551464198,0.950
 1345991\C,0,5.2863991878,1.9140703735,2.9718230572\H,0,4.7385922165,2.
 5156620112,3.7018722372\C,0,6.7844679338,2.0035619754,3.2504054653\C,0
 ,4.8336816028,0.4285859728,3.0507056189\H,0,5.2404519514,-0.0083623894
 ,3.970295834\H,0,5.3057236277,-0.0998234431,2.2117406732\O,0,7.6258821
 322,2.1442038157,2.3918750075\C,0,3.301542964,0.2603491826,2.990477947
 1\H,0,2.8605983857,1.0654595483,2.3989957061\H,0,2.8726714134,0.348180
 5767,3.9980951785\C,0,2.8275258181,-1.0324580512,2.3252269268\H,0,1.73
 31768377,-1.0531811118,2.2727897258\H,0,3.2087632763,-1.081027983,1.30
 06079433\N,0,3.3046582369,-2.2311592465,3.0401369885\H,0,3.4986650324,
 -2.1366506159,4.0288497714\N,0,2.7437443065,-3.754385167,1.3719710188\
 H,0,2.9355949341,-4.6463541285,0.9360639217\H,0,1.9606503374,-3.200275
 3822,0.9618297124\N,0,3.9761856697,-4.4370735455,3.2186985588\H,0,4.66
 95671677,-4.2092781017,3.9161529214\H,0,3.8532451021,-5.4120361559,2.9
 878458672\C,0,3.3254036858,-3.471052672,2.534536246\O,0,7.0554959985,1
 .8539642957,4.5598989035\H,0,8.026320114,1.8978720301,4.6620468276\H,0
 ,4.9158744978,6.5671525165,-3.2141600305\\Version=ES64L-G16RevC.01\HF=
 -2166.3024035\RMSD=8.937e-09\Dipole=4.3227308,-3.8045477,3.8426709\Qua
 drupole=13.1328967,3.1137296,-16.2466263,-18.4605262,43.4289509,-26.28
 35514\PG=C01 [X(C25H39N8O10)]\\@
 The archive entry for this job was punched.


       THE DEATH-KNELL OF THE ATOM

 SO THE ATOMS IN TURN, WE NOW CLEARLY DISCERN,
 FLY TO BITS WITH THE UTMOST FACILITY;
 THEY WEND ON THEIR WAY, AND, IN SPLITTING, DISPLAY
 AN ABSOLUTE LACK OF STABILITY.

          SIR WM. RAMSAY, 1905
 Job cpu time:       0 days  0 hours  1 minutes 39.1 seconds.
 Elapsed time:       0 days  0 hours  0 minutes 25.4 seconds.
 File lengths (MBytes):  RWF=    384 Int=      0 D2E=      0 Chk=     56 Scr=     16
 Normal termination of Gaussian 16 at Thu May 26 20:31:11 2022.
