 Entering Gaussian System, Link 0=/opt/software/Gaussian/g16-AVX2-C.01/g16/g16
 Input=charge-conf-883.com
 Output=charge-conf-883.log
 Initial command:
 /opt/software/Gaussian/g16-AVX2-C.01/g16/l1.exe "/mnt/gs18/scratch/users/kengmith/Gau-11385.inp" -scrdir="/mnt/gs18/scratch/users/kengmith/"
 Entering Link 1 = /opt/software/Gaussian/g16-AVX2-C.01/g16/l1.exe PID=     11395.
  
 Copyright (c) 1988-2019, Gaussian, Inc.  All Rights Reserved.
  
 This is part of the Gaussian(R) 16 program.  It is based on
 the Gaussian(R) 09 system (copyright 2009, Gaussian, Inc.),
 the Gaussian(R) 03 system (copyright 2003, Gaussian, Inc.),
 the Gaussian(R) 98 system (copyright 1998, Gaussian, Inc.),
 the Gaussian(R) 94 system (copyright 1995, Gaussian, Inc.),
 the Gaussian 92(TM) system (copyright 1992, Gaussian, Inc.),
 the Gaussian 90(TM) system (copyright 1990, Gaussian, Inc.),
 the Gaussian 88(TM) system (copyright 1988, Gaussian, Inc.),
 the Gaussian 86(TM) system (copyright 1986, Carnegie Mellon
 University), and the Gaussian 82(TM) system (copyright 1983,
 Carnegie Mellon University). Gaussian is a federally registered
 trademark of Gaussian, Inc.
  
 This software contains proprietary and confidential information,
 including trade secrets, belonging to Gaussian, Inc.
  
 This software is provided under written license and may be
 used, copied, transmitted, or stored only in accord with that
 written license.
  
 The following legend is applicable only to US Government
 contracts under FAR:
  
                    RESTRICTED RIGHTS LEGEND
  
 Use, reproduction and disclosure by the US Government is
 subject to restrictions as set forth in subparagraphs (a)
 and (c) of the Commercial Computer Software - Restricted
 Rights clause in FAR 52.227-19.
  
 Gaussian, Inc.
 340 Quinnipiac St., Bldg. 40, Wallingford CT 06492
  
  
 ---------------------------------------------------------------
 Warning -- This program may not be used in any manner that
 competes with the business of Gaussian, Inc. or will provide
 assistance to any competitor of Gaussian, Inc.  The licensee
 of this program is prohibited from giving any competitor of
 Gaussian, Inc. access to this program.  By using this program,
 the user acknowledges that Gaussian, Inc. is engaged in the
 business of creating and licensing software in the field of
 computational chemistry and represents and warrants to the
 licensee that it is not a competitor of Gaussian, Inc. and that
 it will not use this program in any manner prohibited above.
 ---------------------------------------------------------------
  

 Cite this work as:
 Gaussian 16, Revision C.01,
 M. J. Frisch, G. W. Trucks, H. B. Schlegel, G. E. Scuseria, 
 M. A. Robb, J. R. Cheeseman, G. Scalmani, V. Barone, 
 G. A. Petersson, H. Nakatsuji, X. Li, M. Caricato, A. V. Marenich, 
 J. Bloino, B. G. Janesko, R. Gomperts, B. Mennucci, H. P. Hratchian, 
 J. V. Ortiz, A. F. Izmaylov, J. L. Sonnenberg, D. Williams-Young, 
 F. Ding, F. Lipparini, F. Egidi, J. Goings, B. Peng, A. Petrone, 
 T. Henderson, D. Ranasinghe, V. G. Zakrzewski, J. Gao, N. Rega, 
 G. Zheng, W. Liang, M. Hada, M. Ehara, K. Toyota, R. Fukuda, 
 J. Hasegawa, M. Ishida, T. Nakajima, Y. Honda, O. Kitao, H. Nakai, 
 T. Vreven, K. Throssell, J. A. Montgomery, Jr., J. E. Peralta, 
 F. Ogliaro, M. J. Bearpark, J. J. Heyd, E. N. Brothers, K. N. Kudin, 
 V. N. Staroverov, T. A. Keith, R. Kobayashi, J. Normand, 
 K. Raghavachari, A. P. Rendell, J. C. Burant, S. S. Iyengar, 
 J. Tomasi, M. Cossi, J. M. Millam, M. Klene, C. Adamo, R. Cammi, 
 J. W. Ochterski, R. L. Martin, K. Morokuma, O. Farkas, 
 J. B. Foresman, and D. J. Fox, Gaussian, Inc., Wallingford CT, 2019.
 
 ******************************************
 Gaussian 16:  ES64L-G16RevC.01  3-Jul-2019
                19-Jun-2022 
 ******************************************
 %mem=8gb
 %nproc=4
 Will use up to    4 processors via shared memory.
 %chk=conf-883.chk
 ----------------------------------------------------------------------
 # B3LYP/6-31G* empiricaldispersion=gd3 guess=read geom=check nosymm in
 tegral(ultrafinegrid)
 ----------------------------------------------------------------------
 1/29=2,38=1,172=1/1;
 2/12=2,15=1,40=1/2;
 3/5=1,6=6,7=1,11=2,14=-4,25=1,30=1,74=-5,75=-5,116=-2,124=31/1,2,3;
 4/5=1/1;
 5/5=2,38=6/2;
 6/7=2,8=2,9=2,10=2,28=1/1;
 99/5=1,9=1/99;
 ------------------------------------------------------
 Candidate Structure: Conf:883 Charge calc in gas phase
 ------------------------------------------------------
 Structure from the checkpoint file:  "conf-883.chk"
 Charge =  1 Multiplicity = 1
 Redundant internal coordinates found in file.  (old form).
 N,0,-5.7788315485,-2.1185374528,6.5090775419
 H,0,-5.2007804205,-2.173092806,7.3525587507
 H,0,-6.1644419697,-1.1422280246,6.4433319873
 H,0,-6.5183460414,-2.8427175473,6.5541038286
 C,0,-4.9776308813,-2.2560813985,5.2415263159
 H,0,-4.084928994,-2.8452052593,5.460740852
 C,0,-4.6505647753,-0.7955231852,4.8561800455
 C,0,-5.8529325281,-2.9407079898,4.1543254904
 H,0,-5.2234845973,-3.0887123964,3.2699313556
 H,0,-6.6446602284,-2.2414095919,3.8616953561
 O,0,-5.3713974901,0.0927271609,5.3361758138
 C,0,-6.4748246094,-4.2084005756,4.6351253248
 C,0,-7.6989952383,-4.4380303374,5.236471714
 H,0,-8.5226455876,-3.741043418,5.3431931754
 N,0,-5.8226928342,-5.427633952,4.7005556046
 H,0,-4.9260059719,-5.6527615628,4.2899538582
 C,0,-6.6800110442,-6.3152863351,5.2959642387
 H,0,-6.4208825827,-7.3549467701,5.4457453261
 N,0,-7.8129265194,-5.7471210336,5.6406163347
 N,0,-3.6662186379,-0.6371604392,3.9845667368
 H,0,-3.1275100878,-1.4163410788,3.603481485
 C,0,-3.1829128949,0.6503350899,3.5072407771
 H,0,-4.0392612346,1.3153913371,3.3519561901
 C,0,-2.453540035,0.3242097742,2.1876366737
 C,0,-2.2045708345,1.2852226892,4.5548880661
 H,0,-1.2760509142,0.703486732,4.5287590505
 O,0,-2.023512238,-0.8200133379,2.0088915744
 C,0,-1.913383166,2.7571419912,4.2655548187
 H,0,-1.4061000183,2.91232669,3.3089588422
 H,0,-1.2755898087,3.1528746758,5.0605529832
 H,0,-2.8443299594,3.3400330409,4.256050738
 O,0,-2.7054225749,1.0982622323,5.8709787725
 H,0,-3.5264029864,1.6118070911,5.9556368667
 N,0,-2.3102298229,1.3431561557,1.3314749541
 H,0,-2.6173544115,2.2800277602,1.576719987
 C,0,-1.4456909302,1.3070127473,0.15417724
 H,0,-0.7766025197,0.4495967407,0.2575078318
 C,0,-0.6737422009,2.6373349661,0.1811038836
 C,0,-2.2951688386,1.1877811091,-1.133064949
 H,0,-2.8961825669,2.1029609609,-1.2164838291
 H,0,-2.9972621493,0.3574652679,-0.9793502923
 O,0,-1.1915125874,3.6363716054,0.6946441048
 C,0,-1.51317068,0.9494810097,-2.4387764602
 H,0,-0.7379520973,1.7220676319,-2.5275946471
 C,0,-0.8434666455,-0.4332583118,-2.4533060537
 H,0,-1.5979058763,-1.2258918812,-2.3692723434
 H,0,-0.1269274307,-0.5614999403,-1.6357788801
 H,0,-0.2967504444,-0.5849308879,-3.3895025372
 C,0,-2.4564561815,1.1009457679,-3.6410551749
 H,0,-3.2685573102,0.3634572856,-3.5976947493
 H,0,-1.9162541154,0.9458006559,-4.5815343725
 H,0,-2.9083297989,2.0990969226,-3.6727672378
 N,0,0.5345646516,2.6393121587,-0.4057515591
 H,0,0.9537713071,1.7815763875,-0.7684269825
 C,0,1.2928949255,3.8757261079,-0.5698752118
 H,0,0.56098598,4.6775969656,-0.7230564128
 C,0,2.0672467362,3.7392947727,-1.8927923661
 C,0,2.1192750838,4.1928883388,0.68159576
 H,0,2.6241471887,5.1618839637,0.5954292326
 H,0,2.8607558581,3.409884871,0.8774115697
 H,0,1.4412884611,4.2497251161,1.5368551852
 O,0,1.4892600663,3.3174681049,-2.9040259329
 N,0,3.3647799349,4.1151032534,-1.8883639877
 H,0,3.8124523793,4.2432076008,-0.9892312462
 C,0,4.2964124116,3.7643808133,-2.9636997383
 H,0,3.7173207603,3.6889936498,-3.8863010179
 C,0,4.9100873044,2.4101728351,-2.5612978211
 C,0,5.3965663442,4.8346281127,-3.0983306696
 H,0,4.917980732,5.7776428418,-3.3845239579
 H,0,5.8413778479,4.9819406714,-2.1064704336
 O,0,5.4283240433,2.2782448612,-1.4588459834
 C,0,6.4783053518,4.4515223165,-4.085182389
 C,0,7.5930891043,3.706079637,-3.6657230155
 H,0,7.6632606204,3.3926693739,-2.6269605727
 C,0,6.4080616928,4.8229785765,-5.4323347451
 H,0,5.5562962973,5.4015730057,-5.7851868614
 C,0,8.6119927022,3.3706201733,-4.5506536158
 H,0,9.4838528601,2.815486749,-4.218257518
 C,0,7.423405501,4.496062535,-6.3325502043
 H,0,7.364451324,4.8214606956,-7.3676204221
 O,0,9.5946223126,3.4744147722,-6.6888364976
 C,0,8.5524392087,3.7851431729,-5.8932808759
 N,0,4.8112331599,1.41034032,-3.4855846797
 H,0,4.258909732,1.5941316373,-4.3135060257
 C,0,4.9923114896,0.0098720176,-3.1220197089
 H,0,5.510304765,0.0276326014,-2.1587203324
 C,0,5.8741945183,-0.7461199641,-4.1300121231
 C,0,3.6326700815,-0.7498737879,-2.9556413986
 H,0,3.7314540426,-1.5074868286,-2.1779876578
 H,0,3.3729370951,-1.2457655129,-3.8929642501
 O,0,5.762734256,-1.9576390574,-4.2772060973
 C,0,2.5534678684,0.2353243457,-2.5840358169
 O,0,2.2499676976,0.5357228215,-1.4381123171
 O,0,2.017519922,0.8100830359,-3.6695547931
 N,0,6.7399591296,0.0148521924,-4.8473128109
 H,0,6.9043474401,0.9797793769,-4.582556794
 C,0,7.6212138535,-0.6085991298,-5.8203575042
 H,0,7.0254310346,-1.3055749381,-6.4171882447
 C,0,8.7268892711,-1.453879465,-5.1909804487
 C,0,8.2415011173,0.4745001818,-6.7236087844
 H,0,9.0241176447,1.0066293621,-6.1723102206
 H,0,7.4552409963,1.2135599941,-6.9170577167
 O,0,9.3131658861,-2.3352305704,-5.7769183649
 C,0,8.8080452708,-0.0560718591,-8.0471153288
 H,0,9.528558625,-0.8539285273,-7.8399025142
 H,0,8.0003750563,-0.5160327239,-8.6344331402
 C,0,9.4941171492,1.0540165928,-8.8608813597
 H,0,10.2241609192,1.5522075945,-8.2126568186
 H,0,10.05738397,0.6087714415,-9.6901497463
 C,0,8.5206729652,2.1131512966,-9.4142436951
 H,0,7.6244139922,2.1777778642,-8.7879682595
 H,0,8.1826948985,1.8255425053,-10.4207102466
 N,0,9.1394072312,3.4591993558,-9.3891907782
 H,0,8.5395671215,4.1374947034,-9.8576378485
 H,0,10.0185668254,3.4500194931,-9.9067372609
 H,0,9.4117740782,3.6718141878,-7.6567770588
 O,0,9.0353187421,-1.0608794936,-3.9335960209
 H,0,9.7648326709,-1.6390847769,-3.6404651534
 H,0,1.5545286421,1.6459267222,-3.4001103531
 Recover connectivity data from disk.
                           ----------------------------
                           !    Current Parameters    !
                           ! (Angstroms and Degrees)  !
 --------------------------                            --------------------------
 ! Name  Definition              Value                                          !
 --------------------------------------------------------------------------------
 ! R1    R(1,2)                  1.024                                          !
 ! R2    R(1,3)                  1.0518                                         !
 ! R3    R(1,4)                  1.036                                          !
 ! R4    R(1,5)                  1.5058                                         !
 ! R5    R(5,6)                  1.0918                                         !
 ! R6    R(5,7)                  1.5455                                         !
 ! R7    R(5,8)                  1.5546                                         !
 ! R8    R(7,11)                 1.2406                                         !
 ! R9    R(7,20)                 1.3243                                         !
 ! R10   R(8,9)                  1.0956                                         !
 ! R11   R(8,10)                 1.0961                                         !
 ! R12   R(8,12)                 1.4916                                         !
 ! R13   R(12,13)                1.3831                                         !
 ! R14   R(12,15)                1.3842                                         !
 ! R15   R(13,14)                1.0842                                         !
 ! R16   R(13,19)                1.3748                                         !
 ! R17   R(15,16)                1.0116                                         !
 ! R18   R(15,17)                1.3702                                         !
 ! R19   R(17,18)                1.0819                                         !
 ! R20   R(17,19)                1.3134                                         !
 ! R21   R(20,21)                1.0211                                         !
 ! R22   R(20,22)                1.4557                                         !
 ! R23   R(22,23)                1.0953                                         !
 ! R24   R(22,24)                1.5426                                         !
 ! R25   R(22,25)                1.5677                                         !
 ! R26   R(24,27)                1.2354                                         !
 ! R27   R(24,34)                1.3386                                         !
 ! R28   R(25,26)                1.096                                          !
 ! R29   R(25,28)                1.5281                                         !
 ! R30   R(25,32)                1.4205                                         !
 ! R31   R(28,29)                1.0938                                         !
 ! R32   R(28,30)                1.0933                                         !
 ! R33   R(28,31)                1.0984                                         !
 ! R34   R(32,33)                0.9721                                         !
 ! R35   R(34,35)                1.016                                          !
 ! R36   R(34,36)                1.4611                                         !
 ! R37   R(36,37)                1.0925                                         !
 ! R38   R(36,38)                1.5383                                         !
 ! R39   R(36,39)                1.5469                                         !
 ! R40   R(38,42)                1.2369                                         !
 ! R41   R(38,53)                1.3433                                         !
 ! R42   R(39,40)                1.0981                                         !
 ! R43   R(39,41)                1.0982                                         !
 ! R44   R(39,43)                1.5405                                         !
 ! R45   R(43,44)                1.0981                                         !
 ! R46   R(43,45)                1.5365                                         !
 ! R47   R(43,49)                1.5356                                         !
 ! R48   R(45,46)                1.0975                                         !
 ! R49   R(45,47)                1.0946                                         !
 ! R50   R(45,48)                1.0947                                         !
 ! R51   R(49,50)                1.0979                                         !
 ! R52   R(49,51)                1.0956                                         !
 ! R53   R(49,52)                1.0961                                         !
 ! R54   R(53,54)                1.0213                                         !
 ! R55   R(53,55)                1.4597                                         !
 ! R56   R(55,56)                1.0964                                         !
 ! R57   R(55,57)                1.5389                                         !
 ! R58   R(55,58)                1.5329                                         !
 ! R59   R(57,62)                1.2388                                         !
 ! R60   R(57,63)                1.3509                                         !
 ! R61   R(58,59)                1.096                                          !
 ! R62   R(58,60)                1.096                                          !
 ! R63   R(58,61)                1.0929                                         !
 ! R64   R(63,64)                1.0126                                         !
 ! R65   R(63,65)                1.4654                                         !
 ! R66   R(65,66)                1.0919                                         !
 ! R67   R(65,67)                1.5403                                         !
 ! R68   R(65,68)                1.5407                                         !
 ! R69   R(67,71)                1.2253                                         !
 ! R70   R(67,83)                1.3652                                         !
 ! R71   R(68,69)                1.0955                                         !
 ! R72   R(68,70)                1.097                                          !
 ! R73   R(68,72)                1.5135                                         !
 ! R74   R(72,73)                1.4051                                         !
 ! R75   R(72,75)                1.3992                                         !
 ! R76   R(73,74)                1.0873                                         !
 ! R77   R(73,77)                1.3906                                         !
 ! R78   R(75,76)                1.0885                                         !
 ! R79   R(75,79)                1.3958                                         !
 ! R80   R(77,78)                1.0857                                         !
 ! R81   R(77,82)                1.4064                                         !
 ! R82   R(79,80)                1.0866                                         !
 ! R83   R(79,82)                1.4047                                         !
 ! R84   R(81,82)                1.3474                                         !
 ! R85   R(83,84)                1.0121                                         !
 ! R86   R(83,85)                1.4582                                         !
 ! R87   R(85,86)                1.0939                                         !
 ! R88   R(85,87)                1.538                                          !
 ! R89   R(85,88)                1.5664                                         !
 ! R90   R(87,91)                1.2255                                         !
 ! R91   R(87,95)                1.3576                                         !
 ! R92   R(88,89)                1.0902                                         !
 ! R93   R(88,90)                1.0918                                         !
 ! R94   R(88,92)                1.5078                                         !
 ! R95   R(92,93)                1.2229                                         !
 ! R96   R(92,94)                1.3401                                         !
 ! R97   R(94,119)               0.9928                                         !
 ! R98   R(95,96)                1.014                                          !
 ! R99   R(95,97)                1.4533                                         !
 ! R100  R(97,98)                1.094                                          !
 ! R101  R(97,99)                1.5275                                         !
 ! R102  R(97,100)               1.5407                                         !
 ! R103  R(99,103)               1.2099                                         !
 ! R104  R(99,117)               1.353                                          !
 ! R105  R(100,101)              1.0953                                         !
 ! R106  R(100,102)              1.0963                                         !
 ! R107  R(100,104)              1.5343                                         !
 ! R108  R(104,105)              1.0948                                         !
 ! R109  R(104,106)              1.0995                                         !
 ! R110  R(104,107)              1.5379                                         !
 ! R111  R(107,108)              1.0961                                         !
 ! R112  R(107,109)              1.0969                                         !
 ! R113  R(107,110)              1.5413                                         !
 ! R114  R(110,111)              1.0953                                         !
 ! R115  R(110,112)              1.1                                            !
 ! R116  R(110,113)              1.4817                                         !
 ! R117  R(113,114)              1.0195                                         !
 ! R118  R(113,115)              1.0202                                         !
 ! R119  R(113,116)              1.7665                                         !
 ! R120  R(117,118)              0.9759                                         !
 ! A1    A(2,1,3)              107.9333                                         !
 ! A2    A(2,1,4)              109.2629                                         !
 ! A3    A(2,1,5)              112.8394                                         !
 ! A4    A(3,1,4)              112.9463                                         !
 ! A5    A(3,1,5)              103.1348                                         !
 ! A6    A(4,1,5)              110.6418                                         !
 ! A7    A(1,5,6)              108.3797                                         !
 ! A8    A(1,5,7)              103.6595                                         !
 ! A9    A(1,5,8)              109.2279                                         !
 ! A10   A(6,5,7)              112.7649                                         !
 ! A11   A(6,5,8)              111.2934                                         !
 ! A12   A(7,5,8)              111.1586                                         !
 ! A13   A(5,7,11)             117.207                                          !
 ! A14   A(5,7,20)             115.7476                                         !
 ! A15   A(11,7,20)            126.9372                                         !
 ! A16   A(5,8,9)              107.4902                                         !
 ! A17   A(5,8,10)             108.2054                                         !
 ! A18   A(5,8,12)             112.5561                                         !
 ! A19   A(9,8,10)             106.5987                                         !
 ! A20   A(9,8,12)             112.6393                                         !
 ! A21   A(10,8,12)            109.0933                                         !
 ! A22   A(8,12,13)            130.5613                                         !
 ! A23   A(8,12,15)            124.5682                                         !
 ! A24   A(13,12,15)           104.4891                                         !
 ! A25   A(12,13,14)           127.4766                                         !
 ! A26   A(12,13,19)           111.0545                                         !
 ! A27   A(14,13,19)           121.3474                                         !
 ! A28   A(12,15,16)           126.4724                                         !
 ! A29   A(12,15,17)           107.2402                                         !
 ! A30   A(16,15,17)           125.932                                          !
 ! A31   A(15,17,18)           122.1977                                         !
 ! A32   A(15,17,19)           111.9308                                         !
 ! A33   A(18,17,19)           125.8714                                         !
 ! A34   A(13,19,17)           105.2653                                         !
 ! A35   A(7,20,21)            123.1314                                         !
 ! A36   A(7,20,22)            124.6364                                         !
 ! A37   A(21,20,22)           112.1718                                         !
 ! A38   A(20,22,23)           108.9009                                         !
 ! A39   A(20,22,24)           104.5066                                         !
 ! A40   A(20,22,25)           110.2578                                         !
 ! A41   A(23,22,24)           112.132                                          !
 ! A42   A(23,22,25)           109.6785                                         !
 ! A43   A(24,22,25)           111.2354                                         !
 ! A44   A(22,24,27)           118.9581                                         !
 ! A45   A(22,24,34)           115.9016                                         !
 ! A46   A(27,24,34)           125.1166                                         !
 ! A47   A(22,25,26)           107.3255                                         !
 ! A48   A(22,25,28)           112.4869                                         !
 ! A49   A(22,25,32)           110.2305                                         !
 ! A50   A(26,25,28)           110.201                                          !
 ! A51   A(26,25,32)           104.5325                                         !
 ! A52   A(28,25,32)           111.6777                                         !
 ! A53   A(25,28,29)           112.9928                                         !
 ! A54   A(25,28,30)           108.7915                                         !
 ! A55   A(25,28,31)           110.5665                                         !
 ! A56   A(29,28,30)           108.301                                          !
 ! A57   A(29,28,31)           108.0714                                         !
 ! A58   A(30,28,31)           107.9762                                         !
 ! A59   A(25,32,33)           107.9952                                         !
 ! A60   A(24,34,35)           121.0101                                         !
 ! A61   A(24,34,36)           124.0484                                         !
 ! A62   A(35,34,36)           113.3401                                         !
 ! A63   A(34,36,37)           107.7939                                         !
 ! A64   A(34,36,38)           105.1551                                         !
 ! A65   A(34,36,39)           110.334                                          !
 ! A66   A(37,36,38)           111.6989                                         !
 ! A67   A(37,36,39)           110.7655                                         !
 ! A68   A(38,36,39)           110.9038                                         !
 ! A69   A(36,38,42)           119.7161                                         !
 ! A70   A(36,38,53)           116.4246                                         !
 ! A71   A(42,38,53)           123.831                                          !
 ! A72   A(36,39,40)           107.4308                                         !
 ! A73   A(36,39,41)           107.0311                                         !
 ! A74   A(36,39,43)           116.0069                                         !
 ! A75   A(40,39,41)           106.9098                                         !
 ! A76   A(40,39,43)           110.0218                                         !
 ! A77   A(41,39,43)           109.0393                                         !
 ! A78   A(39,43,44)           108.5477                                         !
 ! A79   A(39,43,45)           111.6224                                         !
 ! A80   A(39,43,49)           109.6647                                         !
 ! A81   A(44,43,45)           108.9481                                         !
 ! A82   A(44,43,49)           107.5138                                         !
 ! A83   A(45,43,49)           110.4325                                         !
 ! A84   A(43,45,46)           110.4635                                         !
 ! A85   A(43,45,47)           112.5626                                         !
 ! A86   A(43,45,48)           110.5157                                         !
 ! A87   A(46,45,47)           107.9496                                         !
 ! A88   A(46,45,48)           107.9826                                         !
 ! A89   A(47,45,48)           107.1913                                         !
 ! A90   A(43,49,50)           110.9284                                         !
 ! A91   A(43,49,51)           110.807                                          !
 ! A92   A(43,49,52)           111.4502                                         !
 ! A93   A(50,49,51)           107.668                                          !
 ! A94   A(50,49,52)           107.9332                                         !
 ! A95   A(51,49,52)           107.9009                                         !
 ! A96   A(38,53,54)           121.5434                                         !
 ! A97   A(38,53,55)           121.1766                                         !
 ! A98   A(54,53,55)           117.2728                                         !
 ! A99   A(53,55,56)           106.7617                                         !
 ! A100  A(53,55,57)           106.4373                                         !
 ! A101  A(53,55,58)           111.3174                                         !
 ! A102  A(56,55,57)           106.2975                                         !
 ! A103  A(56,55,58)           108.8212                                         !
 ! A104  A(57,55,58)           116.6732                                         !
 ! A105  A(55,57,62)           119.8111                                         !
 ! A106  A(55,57,63)           117.118                                          !
 ! A107  A(62,57,63)           123.0629                                         !
 ! A108  A(55,58,59)           111.5354                                         !
 ! A109  A(55,58,60)           111.2704                                         !
 ! A110  A(55,58,61)           108.3748                                         !
 ! A111  A(59,58,60)           109.5132                                         !
 ! A112  A(59,58,61)           107.5365                                         !
 ! A113  A(60,58,61)           108.4838                                         !
 ! A114  A(57,63,64)           117.5663                                         !
 ! A115  A(57,63,65)           122.7979                                         !
 ! A116  A(64,63,65)           113.63                                           !
 ! A117  A(63,65,66)           107.4216                                         !
 ! A118  A(63,65,67)           105.7843                                         !
 ! A119  A(63,65,68)           110.5995                                         !
 ! A120  A(66,65,67)           111.7991                                         !
 ! A121  A(66,65,68)           110.6601                                         !
 ! A122  A(67,65,68)           110.43                                           !
 ! A123  A(65,67,71)           119.8833                                         !
 ! A124  A(65,67,83)           115.9878                                         !
 ! A125  A(71,67,83)           124.12                                           !
 ! A126  A(65,68,69)           107.988                                          !
 ! A127  A(65,68,70)           107.6867                                         !
 ! A128  A(65,68,72)           113.0466                                         !
 ! A129  A(69,68,70)           107.3222                                         !
 ! A130  A(69,68,72)           111.0858                                         !
 ! A131  A(70,68,72)           109.495                                          !
 ! A132  A(68,72,73)           120.4424                                         !
 ! A133  A(68,72,75)           121.6472                                         !
 ! A134  A(73,72,75)           117.9104                                         !
 ! A135  A(72,73,74)           119.2963                                         !
 ! A136  A(72,73,77)           121.2863                                         !
 ! A137  A(74,73,77)           119.4157                                         !
 ! A138  A(72,75,76)           119.5063                                         !
 ! A139  A(72,75,79)           121.4847                                         !
 ! A140  A(76,75,79)           118.9909                                         !
 ! A141  A(73,77,78)           121.1242                                         !
 ! A142  A(73,77,82)           120.356                                          !
 ! A143  A(78,77,82)           118.4874                                         !
 ! A144  A(75,79,80)           120.3153                                         !
 ! A145  A(75,79,82)           120.1025                                         !
 ! A146  A(80,79,82)           119.5418                                         !
 ! A147  A(77,82,79)           118.7992                                         !
 ! A148  A(77,82,81)           117.5756                                         !
 ! A149  A(79,82,81)           123.6251                                         !
 ! A150  A(67,83,84)           117.4107                                         !
 ! A151  A(67,83,85)           121.7083                                         !
 ! A152  A(84,83,85)           116.4965                                         !
 ! A153  A(83,85,86)           105.2348                                         !
 ! A154  A(83,85,87)           112.3274                                         !
 ! A155  A(83,85,88)           112.6146                                         !
 ! A156  A(86,85,87)           108.2776                                         !
 ! A157  A(86,85,88)           108.9883                                         !
 ! A158  A(87,85,88)           109.2038                                         !
 ! A159  A(85,87,91)           120.8316                                         !
 ! A160  A(85,87,95)           115.8763                                         !
 ! A161  A(91,87,95)           123.2751                                         !
 ! A162  A(85,88,89)           109.5232                                         !
 ! A163  A(85,88,90)           109.6102                                         !
 ! A164  A(85,88,92)           109.3017                                         !
 ! A165  A(89,88,90)           108.5618                                         !
 ! A166  A(89,88,92)           110.0681                                         !
 ! A167  A(90,88,92)           109.7613                                         !
 ! A168  A(88,92,93)           124.6867                                         !
 ! A169  A(88,92,94)           111.5215                                         !
 ! A170  A(93,92,94)           123.6706                                         !
 ! A171  A(92,94,119)          109.1327                                         !
 ! A172  A(87,95,96)           119.922                                          !
 ! A173  A(87,95,97)           119.9989                                         !
 ! A174  A(96,95,97)           118.9951                                         !
 ! A175  A(95,97,98)           107.9584                                         !
 ! A176  A(95,97,99)           113.6066                                         !
 ! A177  A(95,97,100)          109.5773                                         !
 ! A178  A(98,97,99)           105.4519                                         !
 ! A179  A(98,97,100)          110.3207                                         !
 ! A180  A(99,97,100)          109.826                                          !
 ! A181  A(97,99,103)          123.6651                                         !
 ! A182  A(97,99,117)          112.7802                                         !
 ! A183  A(103,99,117)         123.4493                                         !
 ! A184  A(97,100,101)         109.52                                           !
 ! A185  A(97,100,102)         106.7758                                         !
 ! A186  A(97,100,104)         114.2849                                         !
 ! A187  A(101,100,102)        105.8885                                         !
 ! A188  A(101,100,104)        109.7766                                         !
 ! A189  A(102,100,104)        110.2267                                         !
 ! A190  A(100,104,105)        109.3748                                         !
 ! A191  A(100,104,106)        109.524                                          !
 ! A192  A(100,104,107)        111.8112                                         !
 ! A193  A(105,104,106)        106.2408                                         !
 ! A194  A(105,104,107)        109.4256                                         !
 ! A195  A(106,104,107)        110.3052                                         !
 ! A196  A(104,107,108)        108.1966                                         !
 ! A197  A(104,107,109)        109.6404                                         !
 ! A198  A(104,107,110)        113.8431                                         !
 ! A199  A(108,107,109)        106.8331                                         !
 ! A200  A(108,107,110)        108.7029                                         !
 ! A201  A(109,107,110)        109.3795                                         !
 ! A202  A(107,110,111)        110.6138                                         !
 ! A203  A(107,110,112)        110.0532                                         !
 ! A204  A(107,110,113)        110.7607                                         !
 ! A205  A(111,110,112)        106.6895                                         !
 ! A206  A(111,110,113)        106.167                                          !
 ! A207  A(112,110,113)        112.4157                                         !
 ! A208  A(110,113,114)        110.5464                                         !
 ! A209  A(110,113,115)        110.0661                                         !
 ! A210  A(110,113,116)        100.9708                                         !
 ! A211  A(114,113,115)        106.2551                                         !
 ! A212  A(114,113,116)        117.4685                                         !
 ! A213  A(115,113,116)        111.4512                                         !
 ! A214  A(99,117,118)         106.1078                                         !
 ! D1    D(2,1,5,6)             27.1696                                         !
 ! D2    D(2,1,5,7)            -92.8546                                         !
 ! D3    D(2,1,5,8)            148.5797                                         !
 ! D4    D(3,1,5,6)            143.3604                                         !
 ! D5    D(3,1,5,7)             23.3361                                         !
 ! D6    D(3,1,5,8)            -95.2295                                         !
 ! D7    D(4,1,5,6)            -95.5947                                         !
 ! D8    D(4,1,5,7)            144.381                                          !
 ! D9    D(4,1,5,8)             25.8154                                         !
 ! D10   D(1,5,7,11)           -20.736                                          !
 ! D11   D(1,5,7,20)           162.7797                                         !
 ! D12   D(6,5,7,11)          -137.7294                                         !
 ! D13   D(6,5,7,20)            45.7863                                         !
 ! D14   D(8,5,7,11)            96.4881                                         !
 ! D15   D(8,5,7,20)           -79.9962                                         !
 ! D16   D(1,5,8,9)           -176.1856                                         !
 ! D17   D(1,5,8,10)            69.0472                                         !
 ! D18   D(1,5,8,12)           -51.5816                                         !
 ! D19   D(6,5,8,9)            -56.5588                                         !
 ! D20   D(6,5,8,10)          -171.3261                                         !
 ! D21   D(6,5,8,12)            68.0452                                         !
 ! D22   D(7,5,8,9)             70.0375                                         !
 ! D23   D(7,5,8,10)           -44.7297                                         !
 ! D24   D(7,5,8,12)          -165.3585                                         !
 ! D25   D(5,7,20,21)           -1.8668                                         !
 ! D26   D(5,7,20,22)         -178.8171                                         !
 ! D27   D(11,7,20,21)        -177.9543                                         !
 ! D28   D(11,7,20,22)           5.0953                                         !
 ! D29   D(5,8,12,13)           91.4669                                         !
 ! D30   D(5,8,12,15)          -80.3051                                         !
 ! D31   D(9,8,12,13)         -146.8083                                         !
 ! D32   D(9,8,12,15)           41.4197                                         !
 ! D33   D(10,8,12,13)         -28.6505                                         !
 ! D34   D(10,8,12,15)         159.5775                                         !
 ! D35   D(8,12,13,14)          10.1212                                         !
 ! D36   D(8,12,13,19)        -173.8838                                         !
 ! D37   D(15,12,13,14)       -176.87                                           !
 ! D38   D(15,12,13,19)         -0.875                                          !
 ! D39   D(8,12,15,16)         -11.6487                                         !
 ! D40   D(8,12,15,17)         174.8999                                         !
 ! D41   D(13,12,15,16)        174.799                                          !
 ! D42   D(13,12,15,17)          1.3476                                         !
 ! D43   D(12,13,19,17)          0.0315                                         !
 ! D44   D(14,13,19,17)        176.3103                                         !
 ! D45   D(12,15,17,18)        178.4217                                         !
 ! D46   D(12,15,17,19)         -1.4439                                         !
 ! D47   D(16,15,17,18)          4.9251                                         !
 ! D48   D(16,15,17,19)       -174.9405                                         !
 ! D49   D(15,17,19,13)          0.8707                                         !
 ! D50   D(18,17,19,13)       -178.9889                                         !
 ! D51   D(7,20,22,23)         -39.6523                                         !
 ! D52   D(7,20,22,24)        -159.6469                                         !
 ! D53   D(7,20,22,25)          80.7302                                         !
 ! D54   D(21,20,22,23)        143.1052                                         !
 ! D55   D(21,20,22,24)         23.1106                                         !
 ! D56   D(21,20,22,25)        -96.5123                                         !
 ! D57   D(20,22,24,27)        -23.3909                                         !
 ! D58   D(20,22,24,34)        158.2918                                         !
 ! D59   D(23,22,24,27)       -141.1948                                         !
 ! D60   D(23,22,24,34)         40.4879                                         !
 ! D61   D(25,22,24,27)         95.572                                          !
 ! D62   D(25,22,24,34)        -82.7454                                         !
 ! D63   D(20,22,25,26)         71.5475                                         !
 ! D64   D(20,22,25,28)       -167.0783                                         !
 ! D65   D(20,22,25,32)        -41.7248                                         !
 ! D66   D(23,22,25,26)       -168.5386                                         !
 ! D67   D(23,22,25,28)        -47.1644                                         !
 ! D68   D(23,22,25,32)         78.189                                          !
 ! D69   D(24,22,25,26)        -43.9121                                         !
 ! D70   D(24,22,25,28)         77.4621                                         !
 ! D71   D(24,22,25,32)       -157.1845                                         !
 ! D72   D(22,24,34,35)          3.6467                                         !
 ! D73   D(22,24,34,36)        168.2445                                         !
 ! D74   D(27,24,34,35)       -174.5534                                         !
 ! D75   D(27,24,34,36)         -9.9556                                         !
 ! D76   D(22,25,28,29)        -62.9398                                         !
 ! D77   D(22,25,28,30)        176.749                                          !
 ! D78   D(22,25,28,31)         58.3337                                         !
 ! D79   D(26,25,28,29)         56.7789                                         !
 ! D80   D(26,25,28,30)        -63.5323                                         !
 ! D81   D(26,25,28,31)        178.0524                                         !
 ! D82   D(32,25,28,29)        172.4996                                         !
 ! D83   D(32,25,28,30)         52.1884                                         !
 ! D84   D(32,25,28,31)        -66.227                                          !
 ! D85   D(22,25,32,33)        -66.0869                                         !
 ! D86   D(26,25,32,33)        178.8635                                         !
 ! D87   D(28,25,32,33)         59.7254                                         !
 ! D88   D(24,34,36,37)        -14.6006                                         !
 ! D89   D(24,34,36,38)       -133.8902                                         !
 ! D90   D(24,34,36,39)        106.4665                                         !
 ! D91   D(35,34,36,37)        151.0449                                         !
 ! D92   D(35,34,36,38)         31.7552                                         !
 ! D93   D(35,34,36,39)        -87.888                                          !
 ! D94   D(34,36,38,42)        -29.1922                                         !
 ! D95   D(34,36,38,53)        152.6714                                         !
 ! D96   D(37,36,38,42)       -145.8416                                         !
 ! D97   D(37,36,38,53)         36.022                                          !
 ! D98   D(39,36,38,42)         90.0713                                         !
 ! D99   D(39,36,38,53)        -88.0651                                         !
 ! D100  D(34,36,39,40)         64.3424                                         !
 ! D101  D(34,36,39,41)        -50.1785                                         !
 ! D102  D(34,36,39,43)       -172.121                                          !
 ! D103  D(37,36,39,40)       -176.3786                                         !
 ! D104  D(37,36,39,41)         69.1005                                         !
 ! D105  D(37,36,39,43)        -52.842                                          !
 ! D106  D(38,36,39,40)        -51.761                                          !
 ! D107  D(38,36,39,41)       -166.2819                                         !
 ! D108  D(38,36,39,43)         71.7756                                         !
 ! D109  D(36,38,53,54)         -5.7497                                         !
 ! D110  D(36,38,53,55)        173.2447                                         !
 ! D111  D(42,38,53,54)        176.1987                                         !
 ! D112  D(42,38,53,55)         -4.8068                                         !
 ! D113  D(36,39,43,44)        -52.8892                                         !
 ! D114  D(36,39,43,45)         67.2049                                         !
 ! D115  D(36,39,43,49)       -170.0818                                         !
 ! D116  D(40,39,43,44)         69.2873                                         !
 ! D117  D(40,39,43,45)       -170.6186                                         !
 ! D118  D(40,39,43,49)        -47.9053                                         !
 ! D119  D(41,39,43,44)       -173.7607                                         !
 ! D120  D(41,39,43,45)        -53.6666                                         !
 ! D121  D(41,39,43,49)         69.0467                                         !
 ! D122  D(39,43,45,46)         60.3436                                         !
 ! D123  D(39,43,45,47)        -60.4034                                         !
 ! D124  D(39,43,45,48)        179.7809                                         !
 ! D125  D(44,43,45,46)       -179.798                                          !
 ! D126  D(44,43,45,47)         59.4551                                         !
 ! D127  D(44,43,45,48)        -60.3606                                         !
 ! D128  D(49,43,45,46)        -61.9298                                         !
 ! D129  D(49,43,45,47)        177.3232                                         !
 ! D130  D(49,43,45,48)         57.5076                                         !
 ! D131  D(39,43,49,50)        -61.0859                                         !
 ! D132  D(39,43,49,51)        179.3806                                         !
 ! D133  D(39,43,49,52)         59.2089                                         !
 ! D134  D(44,43,49,50)       -178.9245                                         !
 ! D135  D(44,43,49,51)         61.5419                                         !
 ! D136  D(44,43,49,52)        -58.6298                                         !
 ! D137  D(45,43,49,50)         62.3301                                         !
 ! D138  D(45,43,49,51)        -57.2035                                         !
 ! D139  D(45,43,49,52)       -177.3751                                         !
 ! D140  D(38,53,55,56)        -32.9247                                         !
 ! D141  D(38,53,55,57)       -146.1547                                         !
 ! D142  D(38,53,55,58)         85.7092                                         !
 ! D143  D(54,53,55,56)        146.1111                                         !
 ! D144  D(54,53,55,57)         32.8812                                         !
 ! D145  D(54,53,55,58)        -95.2549                                         !
 ! D146  D(53,55,57,62)         45.8458                                         !
 ! D147  D(53,55,57,63)       -135.1559                                         !
 ! D148  D(56,55,57,62)        -67.7026                                         !
 ! D149  D(56,55,57,63)        111.2957                                         !
 ! D150  D(58,55,57,62)        170.7617                                         !
 ! D151  D(58,55,57,63)        -10.24                                           !
 ! D152  D(53,55,58,59)       -175.2433                                         !
 ! D153  D(53,55,58,60)         62.1436                                         !
 ! D154  D(53,55,58,61)        -57.0524                                         !
 ! D155  D(56,55,58,59)        -57.8518                                         !
 ! D156  D(56,55,58,60)        179.535                                          !
 ! D157  D(56,55,58,61)         60.3391                                         !
 ! D158  D(57,55,58,59)         62.3477                                         !
 ! D159  D(57,55,58,60)        -60.2655                                         !
 ! D160  D(57,55,58,61)       -179.4615                                         !
 ! D161  D(55,57,63,64)         14.747                                          !
 ! D162  D(55,57,63,65)        165.7109                                         !
 ! D163  D(62,57,63,64)       -166.2901                                         !
 ! D164  D(62,57,63,65)        -15.3262                                         !
 ! D165  D(57,63,65,66)         30.1428                                         !
 ! D166  D(57,63,65,67)        -89.4057                                         !
 ! D167  D(57,63,65,68)        151.0059                                         !
 ! D168  D(64,63,65,66)       -177.868                                          !
 ! D169  D(64,63,65,67)         62.5834                                         !
 ! D170  D(64,63,65,68)        -57.0049                                         !
 ! D171  D(63,65,67,71)        -53.0861                                         !
 ! D172  D(63,65,67,83)        125.8744                                         !
 ! D173  D(66,65,67,71)       -169.7112                                         !
 ! D174  D(66,65,67,83)          9.2492                                         !
 ! D175  D(68,65,67,71)         66.6138                                         !
 ! D176  D(68,65,67,83)       -114.4258                                         !
 ! D177  D(63,65,68,69)        -63.2519                                         !
 ! D178  D(63,65,68,70)         52.35                                           !
 ! D179  D(63,65,68,72)        173.4363                                         !
 ! D180  D(66,65,68,69)         55.6665                                         !
 ! D181  D(66,65,68,70)        171.2684                                         !
 ! D182  D(66,65,68,72)        -67.6454                                         !
 ! D183  D(67,65,68,69)        179.9974                                         !
 ! D184  D(67,65,68,70)        -64.4007                                         !
 ! D185  D(67,65,68,72)         56.6856                                         !
 ! D186  D(65,67,83,84)         -6.6885                                         !
 ! D187  D(65,67,83,85)       -162.3511                                         !
 ! D188  D(71,67,83,84)        172.2228                                         !
 ! D189  D(71,67,83,85)         16.5601                                         !
 ! D190  D(65,68,72,73)        -88.0893                                         !
 ! D191  D(65,68,72,75)         91.9964                                         !
 ! D192  D(69,68,72,73)        150.3281                                         !
 ! D193  D(69,68,72,75)        -29.5862                                         !
 ! D194  D(70,68,72,73)         31.9672                                         !
 ! D195  D(70,68,72,75)       -147.9471                                         !
 ! D196  D(68,72,73,74)          0.9922                                         !
 ! D197  D(68,72,73,77)       -178.5175                                         !
 ! D198  D(75,72,73,74)       -179.0904                                         !
 ! D199  D(75,72,73,77)          1.3999                                         !
 ! D200  D(68,72,75,76)         -0.0283                                         !
 ! D201  D(68,72,75,79)        178.407                                          !
 ! D202  D(73,72,75,76)       -179.9447                                         !
 ! D203  D(73,72,75,79)         -1.5094                                         !
 ! D204  D(72,73,77,78)        178.4833                                         !
 ! D205  D(72,73,77,82)          0.5867                                         !
 ! D206  D(74,73,77,78)         -1.0258                                         !
 ! D207  D(74,73,77,82)       -178.9224                                         !
 ! D208  D(72,75,79,80)       -178.0422                                         !
 ! D209  D(72,75,79,82)         -0.3678                                         !
 ! D210  D(76,75,79,80)          0.401                                          !
 ! D211  D(76,75,79,82)        178.0754                                         !
 ! D212  D(73,77,82,79)         -2.4669                                         !
 ! D213  D(73,77,82,81)        177.4374                                         !
 ! D214  D(78,77,82,79)        179.5817                                         !
 ! D215  D(78,77,82,81)         -0.514                                          !
 ! D216  D(75,79,82,77)          2.3562                                         !
 ! D217  D(75,79,82,81)       -177.5419                                         !
 ! D218  D(80,79,82,77)       -179.9514                                         !
 ! D219  D(80,79,82,81)          0.1505                                         !
 ! D220  D(67,83,85,86)        -18.0344                                         !
 ! D221  D(67,83,85,87)       -135.6307                                         !
 ! D222  D(67,83,85,88)        100.5702                                         !
 ! D223  D(84,83,85,86)       -173.9063                                         !
 ! D224  D(84,83,85,87)         68.4974                                         !
 ! D225  D(84,83,85,88)        -55.3017                                         !
 ! D226  D(83,85,87,91)       -153.9349                                         !
 ! D227  D(83,85,87,95)         24.6112                                         !
 ! D228  D(86,85,87,91)         90.2919                                         !
 ! D229  D(86,85,87,95)        -91.1621                                         !
 ! D230  D(88,85,87,91)        -28.2562                                         !
 ! D231  D(88,85,87,95)        150.2898                                         !
 ! D232  D(83,85,88,89)       -146.8031                                         !
 ! D233  D(83,85,88,90)         94.1929                                         !
 ! D234  D(83,85,88,92)        -26.1437                                         !
 ! D235  D(86,85,88,89)        -30.4193                                         !
 ! D236  D(86,85,88,90)       -149.4233                                         !
 ! D237  D(86,85,88,92)         90.2401                                         !
 ! D238  D(87,85,88,89)         87.6842                                         !
 ! D239  D(87,85,88,90)        -31.3198                                         !
 ! D240  D(87,85,88,92)       -151.6564                                         !
 ! D241  D(85,87,95,96)         11.6896                                         !
 ! D242  D(85,87,95,97)        179.6685                                         !
 ! D243  D(91,87,95,96)       -169.8037                                         !
 ! D244  D(91,87,95,97)         -1.8248                                         !
 ! D245  D(85,88,92,93)        -90.5688                                         !
 ! D246  D(85,88,92,94)         85.5461                                         !
 ! D247  D(89,88,92,93)         29.7576                                         !
 ! D248  D(89,88,92,94)       -154.1275                                         !
 ! D249  D(90,88,92,93)        149.1872                                         !
 ! D250  D(90,88,92,94)        -34.6979                                         !
 ! D251  D(88,92,94,119)      -160.9146                                         !
 ! D252  D(93,92,94,119)        15.2469                                         !
 ! D253  D(87,95,97,98)         46.1931                                         !
 ! D254  D(87,95,97,99)        -70.3775                                         !
 ! D255  D(87,95,97,100)       166.3738                                         !
 ! D256  D(96,95,97,98)       -145.717                                          !
 ! D257  D(96,95,97,99)         97.7123                                         !
 ! D258  D(96,95,97,100)       -25.5364                                         !
 ! D259  D(95,97,99,103)       158.2998                                         !
 ! D260  D(95,97,99,117)       -25.3242                                         !
 ! D261  D(98,97,99,103)        40.2715                                         !
 ! D262  D(98,97,99,117)      -143.3524                                         !
 ! D263  D(100,97,99,103)      -78.5877                                         !
 ! D264  D(100,97,99,117)       97.7883                                         !
 ! D265  D(95,97,100,101)       75.3825                                         !
 ! D266  D(95,97,100,102)      -38.8374                                         !
 ! D267  D(95,97,100,104)     -160.99                                           !
 ! D268  D(98,97,100,101)     -165.8887                                         !
 ! D269  D(98,97,100,102)       79.8913                                         !
 ! D270  D(98,97,100,104)      -42.2612                                         !
 ! D271  D(99,97,100,101)      -50.0698                                         !
 ! D272  D(99,97,100,102)     -164.2898                                         !
 ! D273  D(99,97,100,104)       73.5576                                         !
 ! D274  D(97,99,117,118)     -178.0629                                         !
 ! D275  D(103,99,117,118)      -1.6779                                         !
 ! D276  D(97,100,104,105)     -54.8749                                         !
 ! D277  D(97,100,104,106)      61.1809                                         !
 ! D278  D(97,100,104,107)    -176.2384                                         !
 ! D279  D(101,100,104,105)     68.6145                                         !
 ! D280  D(101,100,104,106)   -175.3297                                         !
 ! D281  D(101,100,104,107)    -52.749                                          !
 ! D282  D(102,100,104,105)   -175.1203                                         !
 ! D283  D(102,100,104,106)    -59.0645                                         !
 ! D284  D(102,100,104,107)     63.5162                                         !
 ! D285  D(100,104,107,108)     52.4593                                         !
 ! D286  D(100,104,107,109)    168.6252                                         !
 ! D287  D(100,104,107,110)    -68.4923                                         !
 ! D288  D(105,104,107,108)    -68.8748                                         !
 ! D289  D(105,104,107,109)     47.291                                          !
 ! D290  D(105,104,107,110)    170.1736                                         !
 ! D291  D(106,104,107,108)    174.5934                                         !
 ! D292  D(106,104,107,109)    -69.2408                                         !
 ! D293  D(106,104,107,110)     53.6418                                         !
 ! D294  D(104,107,110,111)     26.3245                                         !
 ! D295  D(104,107,110,112)    -91.3168                                         !
 ! D296  D(104,107,110,113)    143.759                                          !
 ! D297  D(108,107,110,111)    -94.3439                                         !
 ! D298  D(108,107,110,112)    148.0149                                         !
 ! D299  D(108,107,110,113)     23.0906                                         !
 ! D300  D(109,107,110,111)    149.3496                                         !
 ! D301  D(109,107,110,112)     31.7083                                         !
 ! D302  D(109,107,110,113)    -93.2159                                         !
 ! D303  D(107,110,113,114)    173.1711                                         !
 ! D304  D(107,110,113,115)     56.096                                          !
 ! D305  D(107,110,113,116)    -61.7697                                         !
 ! D306  D(111,110,113,114)    -66.7022                                         !
 ! D307  D(111,110,113,115)    176.2227                                         !
 ! D308  D(111,110,113,116)     58.357                                          !
 ! D309  D(112,110,113,114)     49.5952                                         !
 ! D310  D(112,110,113,115)    -67.4799                                         !
 ! D311  D(112,110,113,116)    174.6544                                         !
 --------------------------------------------------------------------------------
 Symmetry turned off by external request.
 Stoichiometry    C38H59N10O12(1+)
 Framework group  C1[X(C38H59N10O12)]
 Deg. of freedom   351
 Full point group                 C1      NOp   1
                          Input orientation:                          
 ---------------------------------------------------------------------
 Center     Atomic      Atomic             Coordinates (Angstroms)
 Number     Number       Type             X           Y           Z
 ---------------------------------------------------------------------
      1          7           0       -5.778832   -2.118537    6.509078
      2          1           0       -5.200780   -2.173093    7.352559
      3          1           0       -6.164442   -1.142228    6.443332
      4          1           0       -6.518346   -2.842718    6.554104
      5          6           0       -4.977631   -2.256081    5.241526
      6          1           0       -4.084929   -2.845205    5.460741
      7          6           0       -4.650565   -0.795523    4.856180
      8          6           0       -5.852933   -2.940708    4.154325
      9          1           0       -5.223485   -3.088712    3.269931
     10          1           0       -6.644660   -2.241410    3.861695
     11          8           0       -5.371397    0.092727    5.336176
     12          6           0       -6.474825   -4.208401    4.635125
     13          6           0       -7.698995   -4.438030    5.236472
     14          1           0       -8.522646   -3.741043    5.343193
     15          7           0       -5.822693   -5.427634    4.700556
     16          1           0       -4.926006   -5.652762    4.289954
     17          6           0       -6.680011   -6.315286    5.295964
     18          1           0       -6.420883   -7.354947    5.445745
     19          7           0       -7.812927   -5.747121    5.640616
     20          7           0       -3.666219   -0.637160    3.984567
     21          1           0       -3.127510   -1.416341    3.603481
     22          6           0       -3.182913    0.650335    3.507241
     23          1           0       -4.039261    1.315391    3.351956
     24          6           0       -2.453540    0.324210    2.187637
     25          6           0       -2.204571    1.285223    4.554888
     26          1           0       -1.276051    0.703487    4.528759
     27          8           0       -2.023512   -0.820013    2.008892
     28          6           0       -1.913383    2.757142    4.265555
     29          1           0       -1.406100    2.912327    3.308959
     30          1           0       -1.275590    3.152875    5.060553
     31          1           0       -2.844330    3.340033    4.256051
     32          8           0       -2.705423    1.098262    5.870979
     33          1           0       -3.526403    1.611807    5.955637
     34          7           0       -2.310230    1.343156    1.331475
     35          1           0       -2.617354    2.280028    1.576720
     36          6           0       -1.445691    1.307013    0.154177
     37          1           0       -0.776603    0.449597    0.257508
     38          6           0       -0.673742    2.637335    0.181104
     39          6           0       -2.295169    1.187781   -1.133065
     40          1           0       -2.896183    2.102961   -1.216484
     41          1           0       -2.997262    0.357465   -0.979350
     42          8           0       -1.191513    3.636372    0.694644
     43          6           0       -1.513171    0.949481   -2.438776
     44          1           0       -0.737952    1.722068   -2.527595
     45          6           0       -0.843467   -0.433258   -2.453306
     46          1           0       -1.597906   -1.225892   -2.369272
     47          1           0       -0.126927   -0.561500   -1.635779
     48          1           0       -0.296750   -0.584931   -3.389503
     49          6           0       -2.456456    1.100946   -3.641055
     50          1           0       -3.268557    0.363457   -3.597695
     51          1           0       -1.916254    0.945801   -4.581534
     52          1           0       -2.908330    2.099097   -3.672767
     53          7           0        0.534565    2.639312   -0.405752
     54          1           0        0.953771    1.781576   -0.768427
     55          6           0        1.292895    3.875726   -0.569875
     56          1           0        0.560986    4.677597   -0.723056
     57          6           0        2.067247    3.739295   -1.892792
     58          6           0        2.119275    4.192888    0.681596
     59          1           0        2.624147    5.161884    0.595429
     60          1           0        2.860756    3.409885    0.877412
     61          1           0        1.441288    4.249725    1.536855
     62          8           0        1.489260    3.317468   -2.904026
     63          7           0        3.364780    4.115103   -1.888364
     64          1           0        3.812452    4.243208   -0.989231
     65          6           0        4.296412    3.764381   -2.963700
     66          1           0        3.717321    3.688994   -3.886301
     67          6           0        4.910087    2.410173   -2.561298
     68          6           0        5.396566    4.834628   -3.098331
     69          1           0        4.917981    5.777643   -3.384524
     70          1           0        5.841378    4.981941   -2.106470
     71          8           0        5.428324    2.278245   -1.458846
     72          6           0        6.478305    4.451522   -4.085182
     73          6           0        7.593089    3.706080   -3.665723
     74          1           0        7.663261    3.392669   -2.626961
     75          6           0        6.408062    4.822979   -5.432335
     76          1           0        5.556296    5.401573   -5.785187
     77          6           0        8.611993    3.370620   -4.550654
     78          1           0        9.483853    2.815487   -4.218258
     79          6           0        7.423406    4.496063   -6.332550
     80          1           0        7.364451    4.821461   -7.367620
     81          8           0        9.594622    3.474415   -6.688836
     82          6           0        8.552439    3.785143   -5.893281
     83          7           0        4.811233    1.410340   -3.485585
     84          1           0        4.258910    1.594132   -4.313506
     85          6           0        4.992311    0.009872   -3.122020
     86          1           0        5.510305    0.027633   -2.158720
     87          6           0        5.874195   -0.746120   -4.130012
     88          6           0        3.632670   -0.749874   -2.955641
     89          1           0        3.731454   -1.507487   -2.177988
     90          1           0        3.372937   -1.245766   -3.892964
     91          8           0        5.762734   -1.957639   -4.277206
     92          6           0        2.553468    0.235324   -2.584036
     93          8           0        2.249968    0.535723   -1.438112
     94          8           0        2.017520    0.810083   -3.669555
     95          7           0        6.739959    0.014852   -4.847313
     96          1           0        6.904347    0.979779   -4.582557
     97          6           0        7.621214   -0.608599   -5.820358
     98          1           0        7.025431   -1.305575   -6.417188
     99          6           0        8.726889   -1.453879   -5.190980
    100          6           0        8.241501    0.474500   -6.723609
    101          1           0        9.024118    1.006629   -6.172310
    102          1           0        7.455241    1.213560   -6.917058
    103          8           0        9.313166   -2.335231   -5.776918
    104          6           0        8.808045   -0.056072   -8.047115
    105          1           0        9.528559   -0.853929   -7.839903
    106          1           0        8.000375   -0.516033   -8.634433
    107          6           0        9.494117    1.054017   -8.860881
    108          1           0       10.224161    1.552208   -8.212657
    109          1           0       10.057384    0.608771   -9.690150
    110          6           0        8.520673    2.113151   -9.414244
    111          1           0        7.624414    2.177778   -8.787968
    112          1           0        8.182695    1.825543  -10.420710
    113          7           0        9.139407    3.459199   -9.389191
    114          1           0        8.539567    4.137495   -9.857638
    115          1           0       10.018567    3.450019   -9.906737
    116          1           0        9.411774    3.671814   -7.656777
    117          8           0        9.035319   -1.060879   -3.933596
    118          1           0        9.764833   -1.639085   -3.640465
    119          1           0        1.554529    1.645927   -3.400110
 ---------------------------------------------------------------------
 Rotational constants (GHZ):           0.0818393           0.0120331           0.0112505
 Standard basis: 6-31G(d) (6D, 7F)
  1018 basis functions,  1916 primitive gaussians,  1018 cartesian basis functions
   226 alpha electrons      226 beta electrons
       nuclear repulsion energy      8827.6775742615 Hartrees.
 NAtoms=  119 NActive=  119 NUniq=  119 SFac= 1.00D+00 NAtFMM=   60 NAOKFM=T Big=T
 Integral buffers will be    131072 words long.
 Raffenetti 2 integral format.
 Two-electron integral symmetry is turned off.
 Nuclear repulsion after empirical dispersion term =     8827.5095265128 Hartrees.
 One-electron integrals computed using PRISM.
 NBasis=  1018 RedAO= T EigKep=  4.29D-04  NBF=  1018
 NBsUse=  1018 1.00D-06 EigRej= -1.00D+00 NBFU=  1018
 Initial guess from the checkpoint file:  "conf-883.chk"
 B after Tr=     0.000000    0.000000    0.000000
         Rot=    1.000000    0.000000    0.000000    0.000000 Ang=   0.00 deg.
 Requested convergence on RMS density matrix=1.00D-08 within 128 cycles.
 Requested convergence on MAX density matrix=1.00D-06.
 Requested convergence on             energy=1.00D-06.
 No special actions if energy rises.
 SCF Done:  E(RB3LYP) =  -2933.87870384     A.U. after    3 cycles
            NFock=  3  Conv=0.67D-09     -V/T= 2.0093
 Hyperfine terms turned off by default for NAtoms > 100.

 **********************************************************************

            Population analysis using the SCF Density.

 **********************************************************************

 Alpha  occ. eigenvalues --  -19.26326 -19.25251 -19.24082 -19.23953 -19.21547
 Alpha  occ. eigenvalues --  -19.21235 -19.20135 -19.19686 -19.19104 -19.18727
 Alpha  occ. eigenvalues --  -19.18090 -19.16804 -14.59799 -14.51375 -14.49310
 Alpha  occ. eigenvalues --  -14.45215 -14.44409 -14.43471 -14.42897 -14.42709
 Alpha  occ. eigenvalues --  -14.41275 -14.39835 -10.43395 -10.41083 -10.39087
 Alpha  occ. eigenvalues --  -10.38796 -10.37398 -10.36194 -10.36051 -10.35840
 Alpha  occ. eigenvalues --  -10.35689 -10.35688 -10.35145 -10.34199 -10.34140
 Alpha  occ. eigenvalues --  -10.34026 -10.32299 -10.31019 -10.30896 -10.30623
 Alpha  occ. eigenvalues --  -10.30514 -10.29250 -10.28548 -10.26954 -10.26343
 Alpha  occ. eigenvalues --  -10.26177 -10.25643 -10.25545 -10.25375 -10.24955
 Alpha  occ. eigenvalues --  -10.24203 -10.24112 -10.23868 -10.23803 -10.23419
 Alpha  occ. eigenvalues --  -10.23171 -10.23008 -10.22957 -10.22877 -10.22856
 Alpha  occ. eigenvalues --   -1.18899  -1.16874  -1.14842  -1.14211  -1.13527
 Alpha  occ. eigenvalues --   -1.13212  -1.12092  -1.11531  -1.10916  -1.10651
 Alpha  occ. eigenvalues --   -1.08878  -1.08290  -1.08031  -1.05855  -1.05791
 Alpha  occ. eigenvalues --   -1.01833  -1.00758  -1.00246  -0.99674  -0.99096
 Alpha  occ. eigenvalues --   -0.97668  -0.95411  -0.94634  -0.90237  -0.89400
 Alpha  occ. eigenvalues --   -0.87833  -0.86532  -0.86295  -0.85432  -0.84604
 Alpha  occ. eigenvalues --   -0.83471  -0.82012  -0.81110  -0.80712  -0.79394
 Alpha  occ. eigenvalues --   -0.79285  -0.78292  -0.75982  -0.74123  -0.74037
 Alpha  occ. eigenvalues --   -0.73736  -0.73697  -0.73517  -0.73336  -0.72914
 Alpha  occ. eigenvalues --   -0.72291  -0.71168  -0.70859  -0.70310  -0.69162
 Alpha  occ. eigenvalues --   -0.68329  -0.67323  -0.67210  -0.66999  -0.66558
 Alpha  occ. eigenvalues --   -0.65857  -0.65504  -0.65331  -0.65124  -0.64479
 Alpha  occ. eigenvalues --   -0.63646  -0.63321  -0.63091  -0.62439  -0.61430
 Alpha  occ. eigenvalues --   -0.60378  -0.60229  -0.59115  -0.58512  -0.58259
 Alpha  occ. eigenvalues --   -0.57739  -0.57468  -0.57110  -0.56764  -0.56188
 Alpha  occ. eigenvalues --   -0.55908  -0.55719  -0.55254  -0.54973  -0.54611
 Alpha  occ. eigenvalues --   -0.54460  -0.54303  -0.54164  -0.53666  -0.53447
 Alpha  occ. eigenvalues --   -0.53328  -0.53152  -0.53037  -0.52817  -0.52728
 Alpha  occ. eigenvalues --   -0.52508  -0.52147  -0.51904  -0.51591  -0.51398
 Alpha  occ. eigenvalues --   -0.51016  -0.50919  -0.50431  -0.50116  -0.49979
 Alpha  occ. eigenvalues --   -0.49802  -0.49335  -0.48902  -0.48720  -0.48259
 Alpha  occ. eigenvalues --   -0.48145  -0.47816  -0.47640  -0.47425  -0.47153
 Alpha  occ. eigenvalues --   -0.47038  -0.46669  -0.46513  -0.46199  -0.46036
 Alpha  occ. eigenvalues --   -0.45772  -0.45495  -0.44919  -0.44774  -0.44572
 Alpha  occ. eigenvalues --   -0.44483  -0.44233  -0.43926  -0.43766  -0.43546
 Alpha  occ. eigenvalues --   -0.43263  -0.43156  -0.42864  -0.42476  -0.42318
 Alpha  occ. eigenvalues --   -0.42011  -0.41884  -0.41326  -0.41224  -0.40584
 Alpha  occ. eigenvalues --   -0.40289  -0.40023  -0.39886  -0.39075  -0.38764
 Alpha  occ. eigenvalues --   -0.38712  -0.38636  -0.38490  -0.38326  -0.37869
 Alpha  occ. eigenvalues --   -0.37809  -0.37678  -0.37062  -0.36703  -0.35791
 Alpha  occ. eigenvalues --   -0.35303  -0.35239  -0.35171  -0.34700  -0.34389
 Alpha  occ. eigenvalues --   -0.33884  -0.33825  -0.33282  -0.33002  -0.32514
 Alpha  occ. eigenvalues --   -0.32011  -0.31961  -0.30236  -0.30054  -0.29553
 Alpha  occ. eigenvalues --   -0.25973
 Alpha virt. eigenvalues --   -0.12558  -0.10351  -0.09471  -0.07569  -0.07372
 Alpha virt. eigenvalues --   -0.06870  -0.06782  -0.05570  -0.04997  -0.04857
 Alpha virt. eigenvalues --   -0.04513  -0.03875  -0.03859  -0.03520  -0.02739
 Alpha virt. eigenvalues --   -0.02714  -0.00634  -0.00543  -0.00113   0.00825
 Alpha virt. eigenvalues --    0.01038   0.01410   0.01513   0.01726   0.02019
 Alpha virt. eigenvalues --    0.02991   0.03083   0.03269   0.04112   0.04413
 Alpha virt. eigenvalues --    0.04655   0.04838   0.05303   0.05416   0.05562
 Alpha virt. eigenvalues --    0.05903   0.05994   0.06015   0.06671   0.06909
 Alpha virt. eigenvalues --    0.07106   0.07250   0.07488   0.07733   0.07895
 Alpha virt. eigenvalues --    0.07990   0.08332   0.08382   0.08499   0.09068
 Alpha virt. eigenvalues --    0.09106   0.09441   0.09736   0.09792   0.09882
 Alpha virt. eigenvalues --    0.10189   0.10296   0.10549   0.10748   0.10768
 Alpha virt. eigenvalues --    0.11004   0.11653   0.11880   0.12053   0.12151
 Alpha virt. eigenvalues --    0.12189   0.12616   0.12786   0.12843   0.13040
 Alpha virt. eigenvalues --    0.13356   0.13401   0.13688   0.13775   0.13973
 Alpha virt. eigenvalues --    0.14272   0.14470   0.14611   0.14837   0.15471
 Alpha virt. eigenvalues --    0.15492   0.15875   0.16033   0.16385   0.16681
 Alpha virt. eigenvalues --    0.16864   0.17035   0.17229   0.17685   0.17754
 Alpha virt. eigenvalues --    0.17871   0.18433   0.18447   0.19144   0.19463
 Alpha virt. eigenvalues --    0.19682   0.19804   0.20266   0.20418   0.20589
 Alpha virt. eigenvalues --    0.21120   0.21646   0.21886   0.22016   0.22481
 Alpha virt. eigenvalues --    0.22886   0.23593   0.23927   0.24088   0.24579
 Alpha virt. eigenvalues --    0.25857   0.25943   0.26916   0.27065   0.27634
 Alpha virt. eigenvalues --    0.27898   0.28803   0.29112   0.29371   0.30039
 Alpha virt. eigenvalues --    0.30626   0.31086   0.31565   0.32360   0.32778
 Alpha virt. eigenvalues --    0.33276   0.33846   0.34743   0.35013   0.35259
 Alpha virt. eigenvalues --    0.35803   0.37213   0.38208   0.39060   0.39678
 Alpha virt. eigenvalues --    0.40221   0.42066   0.42341   0.42932   0.43192
 Alpha virt. eigenvalues --    0.43327   0.43894   0.44161   0.44610   0.44893
[...]
 Alpha virt. eigenvalues --    0.84002   0.84230   0.84393   0.84594   0.84822
 Alpha virt. eigenvalues --    0.84904   0.85180   0.85341   0.85568   0.85767
 Alpha virt. eigenvalues --    0.86156   0.86308   0.86669   0.86930   0.87398
 Alpha virt. eigenvalues --    0.87513   0.87646   0.87816   0.88062   0.88510
 Alpha virt. eigenvalues --    0.88853   0.89053   0.89194   0.89451   0.89796
 Alpha virt. eigenvalues --    0.90123   0.90260   0.90759   0.91181   0.91607
 Alpha virt. eigenvalues --    0.91942   0.92117   0.92514   0.92883   0.92932
 Alpha virt. eigenvalues --    0.93470   0.93763   0.94060   0.94187   0.94939
 Alpha virt. eigenvalues --    0.95566   0.95781   0.95998   0.96574   0.97020
 Alpha virt. eigenvalues --    0.97614   0.97889   0.98300   0.98666   0.99064
 Alpha virt. eigenvalues --    0.99337   0.99617   1.00401   1.00679   1.00939
 Alpha virt. eigenvalues --    1.01114   1.01561   1.01901   1.02253   1.02913
 Alpha virt. eigenvalues --    1.03383   1.04143   1.04388   1.04758   1.05767
 Alpha virt. eigenvalues --    1.06415   1.06888   1.07127   1.07472   1.07574
 Alpha virt. eigenvalues --    1.07676   1.08770   1.09275   1.09497   1.09857
 Alpha virt. eigenvalues --    1.10594   1.11110   1.11654   1.11847   1.12462
 Alpha virt. eigenvalues --    1.13070   1.13656   1.13872   1.14689   1.15057
 Alpha virt. eigenvalues --    1.15389   1.15909   1.16552   1.17186   1.17599
 Alpha virt. eigenvalues --    1.17861   1.18322   1.18557   1.19073   1.19609
 Alpha virt. eigenvalues --    1.19909   1.20846   1.21291   1.21737   1.22268
 Alpha virt. eigenvalues --    1.22587   1.23847   1.24682   1.24846   1.25792
 Alpha virt. eigenvalues --    1.26211   1.26458   1.27677   1.28601   1.29446
 Alpha virt. eigenvalues --    1.29952   1.30335   1.30835   1.30906   1.32702
 Alpha virt. eigenvalues --    1.33027   1.33740   1.34301   1.34406   1.34956
 Alpha virt. eigenvalues --    1.35824   1.35983   1.36257   1.36410   1.37270
 Alpha virt. eigenvalues --    1.37676   1.38103   1.38891   1.39235   1.39612
 Alpha virt. eigenvalues --    1.39886   1.40003   1.40293   1.40550   1.41791
 Alpha virt. eigenvalues --    1.41973   1.42181   1.42694   1.42864   1.43700
 Alpha virt. eigenvalues --    1.43768   1.44722   1.44882   1.45280   1.45509
 Alpha virt. eigenvalues --    1.45565   1.46034   1.46514   1.47306   1.47923
 Alpha virt. eigenvalues --    1.48717   1.49346   1.49923   1.50725   1.50952
 Alpha virt. eigenvalues --    1.51505   1.52954   1.53582   1.54299   1.55256
 Alpha virt. eigenvalues --    1.55515   1.56946   1.57434   1.57565   1.58431
 Alpha virt. eigenvalues --    1.58762   1.59214   1.59330   1.60169   1.60404
 Alpha virt. eigenvalues --    1.61139   1.61603   1.62203   1.63158   1.63312
 Alpha virt. eigenvalues --    1.64203   1.64401   1.64588   1.65374   1.66191
 Alpha virt. eigenvalues --    1.66366   1.67083   1.67344   1.67881   1.68138
 Alpha virt. eigenvalues --    1.69564   1.69964   1.70101   1.70673   1.70800
 Alpha virt. eigenvalues --    1.70998   1.71197   1.71532   1.71653   1.72387
 Alpha virt. eigenvalues --    1.72458   1.72644   1.73018   1.73246   1.73652
 Alpha virt. eigenvalues --    1.74122   1.74290   1.74511   1.74808   1.75036
 Alpha virt. eigenvalues --    1.75211   1.75528   1.75734   1.76582   1.76978
 Alpha virt. eigenvalues --    1.77141   1.77657   1.78032   1.78409   1.78847
 Alpha virt. eigenvalues --    1.79393   1.79513   1.79713   1.80114   1.80406
 Alpha virt. eigenvalues --    1.80526   1.80727   1.81533   1.82008   1.82533
 Alpha virt. eigenvalues --    1.82825   1.83082   1.83419   1.83906   1.84158
 Alpha virt. eigenvalues --    1.84506   1.84784   1.85227   1.85510   1.85900
 Alpha virt. eigenvalues --    1.86050   1.87027   1.87444   1.87819   1.87960
 Alpha virt. eigenvalues --    1.88328   1.88652   1.89295   1.89748   1.89855
 Alpha virt. eigenvalues --    1.90221   1.90624   1.91400   1.91838   1.92072
 Alpha virt. eigenvalues --    1.92118   1.92440   1.92713   1.92970   1.93207
 Alpha virt. eigenvalues --    1.93256   1.93885   1.94057   1.94393   1.94583
 Alpha virt. eigenvalues --    1.94989   1.95374   1.95997   1.96319   1.97103
 Alpha virt. eigenvalues --    1.97450   1.98101   1.98253   1.99048   1.99347
 Alpha virt. eigenvalues --    1.99508   1.99806   2.00725   2.01116   2.01485
 Alpha virt. eigenvalues --    2.02026   2.02390   2.02620   2.03070   2.03370
 Alpha virt. eigenvalues --    2.03772   2.04018   2.04310   2.04710   2.04955
 Alpha virt. eigenvalues --    2.05693   2.06424   2.06612   2.07099   2.07595
 Alpha virt. eigenvalues --    2.07761   2.08025   2.09695   2.09984   2.10423
 Alpha virt. eigenvalues --    2.10704   2.10831   2.11121   2.11680   2.11825
 Alpha virt. eigenvalues --    2.12345   2.12689   2.13495   2.13870   2.15134
 Alpha virt. eigenvalues --    2.15531   2.16072   2.17034   2.17656   2.18638
 Alpha virt. eigenvalues --    2.19328   2.19383   2.20132   2.20529   2.21141
 Alpha virt. eigenvalues --    2.21341   2.21576   2.21781   2.22412   2.23109
 Alpha virt. eigenvalues --    2.24018   2.24364   2.24817   2.25284   2.25906
 Alpha virt. eigenvalues --    2.26260   2.26558   2.26868   2.27356   2.27955
 Alpha virt. eigenvalues --    2.28364   2.28712   2.29095   2.29687   2.29938
 Alpha virt. eigenvalues --    2.31126   2.31771   2.31944   2.32634   2.32788
 Alpha virt. eigenvalues --    2.33222   2.33770   2.34661   2.34889   2.35367
 Alpha virt. eigenvalues --    2.36686   2.37335   2.37895   2.38146   2.38624
 Alpha virt. eigenvalues --    2.39137   2.39580   2.39976   2.41012   2.41048
 Alpha virt. eigenvalues --    2.42103   2.42355   2.43373   2.43958   2.44545
 Alpha virt. eigenvalues --    2.44783   2.45053   2.45536   2.46933   2.47186
 Alpha virt. eigenvalues --    2.47305   2.47518   2.48186   2.48359   2.48605
 Alpha virt. eigenvalues --    2.48821   2.50432   2.50588   2.50874   2.51525
 Alpha virt. eigenvalues --    2.54129   2.54576   2.54674   2.56443   2.56844
 Alpha virt. eigenvalues --    2.56957   2.58169   2.58860   2.59119   2.59214
 Alpha virt. eigenvalues --    2.60821   2.61087   2.61977   2.62127   2.62489
 Alpha virt. eigenvalues --    2.62579   2.64086   2.64744   2.65115   2.65306
 Alpha virt. eigenvalues --    2.65696   2.66159   2.66857   2.67398   2.67604
 Alpha virt. eigenvalues --    2.68766   2.69059   2.69857   2.71090   2.72055
 Alpha virt. eigenvalues --    2.72710   2.73287   2.73370   2.74631   2.75020
 Alpha virt. eigenvalues --    2.75821   2.77674   2.77916   2.79900   2.80832
 Alpha virt. eigenvalues --    2.81365   2.82168   2.82456   2.83339   2.84072
 Alpha virt. eigenvalues --    2.85855   2.86777   2.87076   2.87804   2.88353
 Alpha virt. eigenvalues --    2.90002   2.90220   2.91046   2.91459   2.94234
 Alpha virt. eigenvalues --    2.95016   2.96001   2.96375   2.97559   2.98698
 Alpha virt. eigenvalues --    2.99190   2.99641   3.02372   3.04978   3.06414
 Alpha virt. eigenvalues --    3.07115   3.08553   3.09095   3.09800   3.12957
 Alpha virt. eigenvalues --    3.14149   3.36752   3.67436   3.76584   3.78384
 Alpha virt. eigenvalues --    3.80147   3.81665   3.92951   3.94896   3.95599
 Alpha virt. eigenvalues --    3.96589   3.97945   3.99069   4.01727   4.02183
 Alpha virt. eigenvalues --    4.03174   4.05107   4.06212   4.06488   4.07542
 Alpha virt. eigenvalues --    4.09229   4.09713   4.10863   4.12219   4.12596
 Alpha virt. eigenvalues --    4.13507   4.14580   4.15380   4.16407   4.17733
 Alpha virt. eigenvalues --    4.18494   4.18927   4.19875   4.21105   4.24138
 Alpha virt. eigenvalues --    4.24684   4.26987   4.27864   4.28587   4.29151
 Alpha virt. eigenvalues --    4.29612   4.31820   4.32069   4.36358   4.39589
 Alpha virt. eigenvalues --    4.40238   4.40961   4.42575   4.43011   4.44536
 Alpha virt. eigenvalues --    4.47886   4.49024   4.51129   4.51926   4.53334
 Alpha virt. eigenvalues --    4.57773   4.59229   4.63067   4.63827   4.65387
 Alpha virt. eigenvalues --    4.68489   4.73565
          Condensed to atoms (all electrons):
 Mulliken charges:
               1
     1  N   -0.747153
     2  H    0.419473
     3  H    0.425677
     4  H    0.400818
     5  C   -0.115124
     6  H    0.209768
     7  C    0.686152
     8  C   -0.386484
     9  H    0.209357
    10  H    0.213069
    11  O   -0.560224
    12  C    0.294245
    13  C   -0.098986
    14  H    0.168421
    15  N   -0.602782
    16  H    0.352487
    17  C    0.223298
    18  H    0.197524
    19  N   -0.388769
    20  N   -0.595558
    21  H    0.365589
    22  C   -0.103669
    23  H    0.180807
    24  C    0.624146
    25  C    0.151039
    26  H    0.161452
    27  O   -0.546669
    28  C   -0.495297
    29  H    0.183348
    30  H    0.185352
    31  H    0.148690
    32  O   -0.621756
    33  H    0.401849
    34  N   -0.600454
    35  H    0.360695
    36  C   -0.085059
    37  H    0.192288
    38  C    0.630220
    39  C   -0.249006
    40  H    0.149001
    41  H    0.145741
    42  O   -0.558417
    43  C   -0.101909
    44  H    0.147265
    45  C   -0.467482
    46  H    0.139511
    47  H    0.151315
    48  H    0.158457
    49  C   -0.443920
    50  H    0.139989
    51  H    0.152878
    52  H    0.148335
    53  N   -0.626614
    54  H    0.396858
    55  C   -0.027277
    56  H    0.207466
    57  C    0.607238
    58  C   -0.491028
    59  H    0.160602
    60  H    0.176022
    61  H    0.186484
    62  O   -0.566876
    63  N   -0.582577
    64  H    0.359207
    65  C   -0.067324
    66  H    0.172471
    67  C    0.635778
    68  C   -0.360638
    69  H    0.166255
    70  H    0.163784
    71  O   -0.530249
    72  C    0.143728
    73  C   -0.203303
    74  H    0.154535
    75  C   -0.196204
    76  H    0.127112
    77  C   -0.190992
    78  H    0.148353
    79  C   -0.200191
    80  H    0.124747
    81  O   -0.691859
    82  C    0.373427
    83  N   -0.629225
    84  H    0.349174
    85  C   -0.068280
    86  H    0.227641
    87  C    0.624750
    88  C   -0.326584
    89  H    0.194385
    90  H    0.195616
    91  O   -0.522479
    92  C    0.590898
    93  O   -0.504709
    94  O   -0.600162
    95  N   -0.632002
    96  H    0.358294
    97  C   -0.003122
    98  H    0.192558
    99  C    0.601780
   100  C   -0.322390
   101  H    0.180703
   102  H    0.149736
   103  O   -0.460143
   104  C   -0.278556
   105  H    0.177605
   106  H    0.136771
   107  C   -0.282501
   108  H    0.168073
   109  H    0.144957
   110  C   -0.145900
   111  H    0.154010
   112  H    0.146862
   113  N   -0.775769
   114  H    0.322854
   115  H    0.328306
   116  H    0.469984
   117  O   -0.568230
   118  H    0.415646
   119  H    0.470980
 Sum of Mulliken charges =   1.00000
 Mulliken charges with hydrogens summed into heavy atoms:
               1
     1  N    0.498815
     5  C    0.094644
     7  C    0.686152
     8  C    0.035942
    11  O   -0.560224
    12  C    0.294245
    13  C    0.069435
    15  N   -0.250295
    17  C    0.420822
    19  N   -0.388769
    20  N   -0.229969
    22  C    0.077138
    24  C    0.624146
    25  C    0.312491
    27  O   -0.546669
    28  C    0.022093
    32  O   -0.219908
    34  N   -0.239760
    36  C    0.107229
    38  C    0.630220
    39  C    0.045736
    42  O   -0.558417
    43  C    0.045356
    45  C   -0.018199
    49  C   -0.002719
    53  N   -0.229756
    55  C    0.180189
    57  C    0.607238
    58  C    0.032079
    62  O   -0.566876
    63  N   -0.223370
    65  C    0.105147
    67  C    0.635778
    68  C   -0.030600
    71  O   -0.530249
    72  C    0.143728
    73  C   -0.048768
    75  C   -0.069092
    77  C   -0.042638
    79  C   -0.075444
    81  O   -0.221876
    82  C    0.373427
    83  N   -0.280051
    85  C    0.159361
    87  C    0.624750
    88  C    0.063416
    91  O   -0.522479
    92  C    0.590898
    93  O   -0.504709
    94  O   -0.129182
    95  N   -0.273707
    97  C    0.189436
    99  C    0.601780
   100  C    0.008049
   103  O   -0.460143
   104  C    0.035820
   107  C    0.030529
   110  C    0.154972
   113  N   -0.124608
   117  O   -0.152584
 Electronic spatial extent (au):  <R**2>=          99289.8321
 Charge=              1.0000 electrons
 Dipole moment (field-independent basis, Debye):
    X=            -11.9353    Y=             -2.3954    Z=             11.4936  Tot=             16.7419
 Quadrupole moment (field-independent basis, Debye-Ang):
   XX=           -216.6984   YY=           -298.4875   ZZ=           -136.6181
   XY=             85.8229   XZ=           -169.3830   YZ=            -98.2156
 Traceless Quadrupole moment (field-independent basis, Debye-Ang):
   XX=              0.5696   YY=            -81.2195   ZZ=             80.6499
   XY=             85.8229   XZ=           -169.3830   YZ=            -98.2156
 Octapole moment (field-independent basis, Debye-Ang**2):
  XXX=          -1943.4372  YYY=           -960.9471  ZZZ=           1116.0518  XYY=           -753.1491
  XXY=           -170.6389  XXZ=            419.7192  XZZ=           -479.2326  YZZ=           -135.5238
  YYZ=            611.6608  XYZ=           -153.4933
 Hexadecapole moment (field-independent basis, Debye-Ang**3):
 XXXX=         -62142.9022 YYYY=         -15445.5199 ZZZZ=         -29198.5435 XXXY=          -7879.4645
 XXXZ=          18423.0190 YYYX=          -7939.1403 YYYZ=           5373.3770 ZZZX=          12130.0448
 ZZZY=           1056.0410 XXYY=         -14247.5362 XXZZ=          -8902.1627 YYZZ=          -8498.6888
 XXYZ=          -1171.1112 YYXZ=           7448.2780 ZZXY=           1689.3258
 N-N= 8.827509526513D+03 E-N=-2.446083907775D+04  KE= 2.906910507034D+03
 Unable to Open any file for archive entry.
 1\1\GINC-LAC-305\SP\RB3LYP\6-31G(d)\C38H59N10O12(1+)\KENGMITH\19-Jun-2
 022\0\\# B3LYP/6-31G* empiricaldispersion=gd3 guess=read geom=check no
 symm integral(ultrafinegrid)\\Candidate Structure: Conf:883 Charge cal
 c in gas phase\\1,1\N,0,-5.7788315485,-2.1185374528,6.5090775419\H,0,-
 5.2007804205,-2.173092806,7.3525587507\H,0,-6.1644419697,-1.1422280246
 ,6.4433319873\H,0,-6.5183460414,-2.8427175473,6.5541038286\C,0,-4.9776
 308813,-2.2560813985,5.2415263159\H,0,-4.084928994,-2.8452052593,5.460
 740852\C,0,-4.6505647753,-0.7955231852,4.8561800455\C,0,-5.8529325281,
 -2.9407079898,4.1543254904\H,0,-5.2234845973,-3.0887123964,3.269931355
 6\H,0,-6.6446602284,-2.2414095919,3.8616953561\O,0,-5.3713974901,0.092
 7271609,5.3361758138\C,0,-6.4748246094,-4.2084005756,4.6351253248\C,0,
 -7.6989952383,-4.4380303374,5.236471714\H,0,-8.5226455876,-3.741043418
 ,5.3431931754\N,0,-5.8226928342,-5.427633952,4.7005556046\H,0,-4.92600
 59719,-5.6527615628,4.2899538582\C,0,-6.6800110442,-6.3152863351,5.295
 9642387\H,0,-6.4208825827,-7.3549467701,5.4457453261\N,0,-7.8129265194
 ,-5.7471210336,5.6406163347\N,0,-3.6662186379,-0.6371604392,3.98456673
 68\H,0,-3.1275100878,-1.4163410788,3.603481485\C,0,-3.1829128949,0.650
 3350899,3.5072407771\H,0,-4.0392612346,1.3153913371,3.3519561901\C,0,-
 2.453540035,0.3242097742,2.1876366737\C,0,-2.2045708345,1.2852226892,4
 .5548880661\H,0,-1.2760509142,0.703486732,4.5287590505\O,0,-2.02351223
 8,-0.8200133379,2.0088915744\C,0,-1.913383166,2.7571419912,4.265554818
 7\H,0,-1.4061000183,2.91232669,3.3089588422\H,0,-1.2755898087,3.152874
 6758,5.0605529832\H,0,-2.8443299594,3.3400330409,4.256050738\O,0,-2.70
 54225749,1.0982622323,5.8709787725\H,0,-3.5264029864,1.6118070911,5.95
 56368667\N,0,-2.3102298229,1.3431561557,1.3314749541\H,0,-2.6173544115
 ,2.2800277602,1.576719987\C,0,-1.4456909302,1.3070127473,0.15417724\H,
 0,-0.7766025197,0.4495967407,0.2575078318\C,0,-0.6737422009,2.63733496
 61,0.1811038836\C,0,-2.2951688386,1.1877811091,-1.133064949\H,0,-2.896
 1825669,2.1029609609,-1.2164838291\H,0,-2.9972621493,0.3574652679,-0.9
 793502923\O,0,-1.1915125874,3.6363716054,0.6946441048\C,0,-1.51317068,
 0.9494810097,-2.4387764602\H,0,-0.7379520973,1.7220676319,-2.527594647
 1\C,0,-0.8434666455,-0.4332583118,-2.4533060537\H,0,-1.5979058763,-1.2
 258918812,-2.3692723434\H,0,-0.1269274307,-0.5614999403,-1.6357788801\
 H,0,-0.2967504444,-0.5849308879,-3.3895025372\C,0,-2.4564561815,1.1009
 457679,-3.6410551749\H,0,-3.2685573102,0.3634572856,-3.5976947493\H,0,
 -1.9162541154,0.9458006559,-4.5815343725\H,0,-2.9083297989,2.099096922
 6,-3.6727672378\N,0,0.5345646516,2.6393121587,-0.4057515591\H,0,0.9537
 713071,1.7815763875,-0.7684269825\C,0,1.2928949255,3.8757261079,-0.569
 8752118\H,0,0.56098598,4.6775969656,-0.7230564128\C,0,2.0672467362,3.7
 392947727,-1.8927923661\C,0,2.1192750838,4.1928883388,0.68159576\H,0,2
 .6241471887,5.1618839637,0.5954292326\H,0,2.8607558581,3.409884871,0.8
 774115697\H,0,1.4412884611,4.2497251161,1.5368551852\O,0,1.4892600663,
 3.3174681049,-2.9040259329\N,0,3.3647799349,4.1151032534,-1.8883639877
 \H,0,3.8124523793,4.2432076008,-0.9892312462\C,0,4.2964124116,3.764380
 8133,-2.9636997383\H,0,3.7173207603,3.6889936498,-3.8863010179\C,0,4.9
 100873044,2.4101728351,-2.5612978211\C,0,5.3965663442,4.8346281127,-3.
 0983306696\H,0,4.917980732,5.7776428418,-3.3845239579\H,0,5.8413778479
 ,4.9819406714,-2.1064704336\O,0,5.4283240433,2.2782448612,-1.458845983
 4\C,0,6.4783053518,4.4515223165,-4.085182389\C,0,7.5930891043,3.706079
 637,-3.6657230155\H,0,7.6632606204,3.3926693739,-2.6269605727\C,0,6.40
 80616928,4.8229785765,-5.4323347451\H,0,5.5562962973,5.4015730057,-5.7
 851868614\C,0,8.6119927022,3.3706201733,-4.5506536158\H,0,9.4838528601
 ,2.815486749,-4.218257518\C,0,7.423405501,4.496062535,-6.3325502043\H,
 0,7.364451324,4.8214606956,-7.3676204221\O,0,9.5946223126,3.4744147722
 ,-6.6888364976\C,0,8.5524392087,3.7851431729,-5.8932808759\N,0,4.81123
 31599,1.41034032,-3.4855846797\H,0,4.258909732,1.5941316373,-4.3135060
 257\C,0,4.9923114896,0.0098720176,-3.1220197089\H,0,5.510304765,0.0276
 326014,-2.1587203324\C,0,5.8741945183,-0.7461199641,-4.1300121231\C,0,
 3.6326700815,-0.7498737879,-2.9556413986\H,0,3.7314540426,-1.507486828
 6,-2.1779876578\H,0,3.3729370951,-1.2457655129,-3.8929642501\O,0,5.762
 734256,-1.9576390574,-4.2772060973\C,0,2.5534678684,0.2353243457,-2.58
 40358169\O,0,2.2499676976,0.5357228215,-1.4381123171\O,0,2.017519922,0
 .8100830359,-3.6695547931\N,0,6.7399591296,0.0148521924,-4.8473128109\
 H,0,6.9043474401,0.9797793769,-4.582556794\C,0,7.6212138535,-0.6085991
 298,-5.8203575042\H,0,7.0254310346,-1.3055749381,-6.4171882447\C,0,8.7
 268892711,-1.453879465,-5.1909804487\C,0,8.2415011173,0.4745001818,-6.
 7236087844\H,0,9.0241176447,1.0066293621,-6.1723102206\H,0,7.455240996
 3,1.2135599941,-6.9170577167\O,0,9.3131658861,-2.3352305704,-5.7769183
 649\C,0,8.8080452708,-0.0560718591,-8.0471153288\H,0,9.528558625,-0.85
 39285273,-7.8399025142\H,0,8.0003750563,-0.5160327239,-8.6344331402\C,
 0,9.4941171492,1.0540165928,-8.8608813597\H,0,10.2241609192,1.55220759
 45,-8.2126568186\H,0,10.05738397,0.6087714415,-9.6901497463\C,0,8.5206
 729652,2.1131512966,-9.4142436951\H,0,7.6244139922,2.1777778642,-8.787
 9682595\H,0,8.1826948985,1.8255425053,-10.4207102466\N,0,9.1394072312,
 3.4591993558,-9.3891907782\H,0,8.5395671215,4.1374947034,-9.8576378485
 \H,0,10.0185668254,3.4500194931,-9.9067372609\H,0,9.4117740782,3.67181
 41878,-7.6567770588\O,0,9.0353187421,-1.0608794936,-3.9335960209\H,0,9
 .7648326709,-1.6390847769,-3.6404651534\H,0,1.5545286421,1.6459267222,
 -3.4001103531\\Version=ES64L-G16RevC.01\HF=-2933.8787038\RMSD=6.729e-1
 0\Dipole=-8.1940705,-2.4309643,6.9751069\Quadrupole=0.4234959,-60.3847
 065,59.9612105,63.8072203,-125.9321102,-73.0208693\PG=C01 [X(C38H59N10
 O12)]\\@
 The archive entry for this job was punched.


 EDUCATION WITHOUT COMMON SENSE IS A LOAD OF BOOKS ON THE BACK OF AN ASS.
 Job cpu time:       0 days  0 hours  9 minutes  2.7 seconds.
 Elapsed time:       0 days  0 hours  2 minutes 17.2 seconds.
 File lengths (MBytes):  RWF=    656 Int=      0 D2E=      0 Chk=    104 Scr=     16
 Normal termination of Gaussian 16 at Sun Jun 19 14:04:10 2022.
