 Entering Gaussian System, Link 0=/opt/software/Gaussian/g16-AVX2-C.01/g16/g16
 Input=charge-conf-535.com
 Output=charge-conf-535.log
 Initial command:
 /opt/software/Gaussian/g16-AVX2-C.01/g16/l1.exe "/mnt/gs18/scratch/users/kengmith/Gau-9112.inp" -scrdir="/mnt/gs18/scratch/users/kengmith/"
 Entering Link 1 = /opt/software/Gaussian/g16-AVX2-C.01/g16/l1.exe PID=      9122.
  
 Copyright (c) 1988-2019, Gaussian, Inc.  All Rights Reserved.
  
 This is part of the Gaussian(R) 16 program.  It is based on
 the Gaussian(R) 09 system (copyright 2009, Gaussian, Inc.),
 the Gaussian(R) 03 system (copyright 2003, Gaussian, Inc.),
 the Gaussian(R) 98 system (copyright 1998, Gaussian, Inc.),
 the Gaussian(R) 94 system (copyright 1995, Gaussian, Inc.),
 the Gaussian 92(TM) system (copyright 1992, Gaussian, Inc.),
 the Gaussian 90(TM) system (copyright 1990, Gaussian, Inc.),
 the Gaussian 88(TM) system (copyright 1988, Gaussian, Inc.),
 the Gaussian 86(TM) system (copyright 1986, Carnegie Mellon
 University), and the Gaussian 82(TM) system (copyright 1983,
 Carnegie Mellon University). Gaussian is a federally registered
 trademark of Gaussian, Inc.
  
 This software contains proprietary and confidential information,
 including trade secrets, belonging to Gaussian, Inc.
  
 This software is provided under written license and may be
 used, copied, transmitted, or stored only in accord with that
 written license.
  
 The following legend is applicable only to US Government
 contracts under FAR:
  
                    RESTRICTED RIGHTS LEGEND
  
 Use, reproduction and disclosure by the US Government is
 subject to restrictions as set forth in subparagraphs (a)
 and (c) of the Commercial Computer Software - Restricted
 Rights clause in FAR 52.227-19.
  
 Gaussian, Inc.
 340 Quinnipiac St., Bldg. 40, Wallingford CT 06492
  
  
 ---------------------------------------------------------------
 Warning -- This program may not be used in any manner that
 competes with the business of Gaussian, Inc. or will provide
 assistance to any competitor of Gaussian, Inc.  The licensee
 of this program is prohibited from giving any competitor of
 Gaussian, Inc. access to this program.  By using this program,
 the user acknowledges that Gaussian, Inc. is engaged in the
 business of creating and licensing software in the field of
 computational chemistry and represents and warrants to the
 licensee that it is not a competitor of Gaussian, Inc. and that
 it will not use this program in any manner prohibited above.
 ---------------------------------------------------------------
  

 Cite this work as:
 Gaussian 16, Revision C.01,
 M. J. Frisch, G. W. Trucks, H. B. Schlegel, G. E. Scuseria, 
 M. A. Robb, J. R. Cheeseman, G. Scalmani, V. Barone, 
 G. A. Petersson, H. Nakatsuji, X. Li, M. Caricato, A. V. Marenich, 
 J. Bloino, B. G. Janesko, R. Gomperts, B. Mennucci, H. P. Hratchian, 
 J. V. Ortiz, A. F. Izmaylov, J. L. Sonnenberg, D. Williams-Young, 
 F. Ding, F. Lipparini, F. Egidi, J. Goings, B. Peng, A. Petrone, 
 T. Henderson, D. Ranasinghe, V. G. Zakrzewski, J. Gao, N. Rega, 
 G. Zheng, W. Liang, M. Hada, M. Ehara, K. Toyota, R. Fukuda, 
 J. Hasegawa, M. Ishida, T. Nakajima, Y. Honda, O. Kitao, H. Nakai, 
 T. Vreven, K. Throssell, J. A. Montgomery, Jr., J. E. Peralta, 
 F. Ogliaro, M. J. Bearpark, J. J. Heyd, E. N. Brothers, K. N. Kudin, 
 V. N. Staroverov, T. A. Keith, R. Kobayashi, J. Normand, 
 K. Raghavachari, A. P. Rendell, J. C. Burant, S. S. Iyengar, 
 J. Tomasi, M. Cossi, J. M. Millam, M. Klene, C. Adamo, R. Cammi, 
 J. W. Ochterski, R. L. Martin, K. Morokuma, O. Farkas, 
 J. B. Foresman, and D. J. Fox, Gaussian, Inc., Wallingford CT, 2019.
 
 ******************************************
 Gaussian 16:  ES64L-G16RevC.01  3-Jul-2019
                23-Jun-2022 
 ******************************************
 %mem=8gb
 %nproc=4
 Will use up to    4 processors via shared memory.
 %chk=conf-535.chk
 ----------------------------------------------------------------------
 # B3LYP/6-31G* empiricaldispersion=gd3bj guess=read geom=check nosymm 
 integral(ultrafinegrid)
 ----------------------------------------------------------------------
 1/29=2,38=1,172=1/1;
 2/12=2,15=1,40=1/2;
 3/5=1,6=6,7=1,11=2,14=-4,25=1,30=1,74=-5,75=-5,116=-2,124=41/1,2,3;
 4/5=1/1;
 5/5=2,38=6/2;
 6/7=2,8=2,9=2,10=2,28=1/1;
 99/5=1,9=1/99;
 ------------------------------------------------------
 Candidate Structure: Conf:535 Charge calc in gas phase
 ------------------------------------------------------
 Structure from the checkpoint file:  "conf-535.chk"
 Charge =  1 Multiplicity = 1
 Redundant internal coordinates found in file.  (old form).
 N,0,-2.6673302492,-2.6310520002,2.7542375186
 H,0,-3.3406343165,-1.9430391841,2.4220286334
 H,0,-2.7160927713,-3.4231618156,2.1132161164
 C,0,-1.3147453485,-2.0868348718,2.7255717459
 H,0,-1.3256872223,-1.1384210073,3.2781427478
 C,0,-0.7805411648,-1.8689795137,1.2941245852
 C,0,-0.3774026594,-3.0818331599,3.4508619982
 H,0,-0.5929710513,-3.049523437,4.5228025534
 H,0,-0.6277616226,-4.0871370029,3.1036353904
 O,0,-0.5313442132,-2.8306461906,0.579865729
 C,0,1.0721429112,-2.8189291154,3.1628807311
 C,0,1.7245519408,-1.6507748838,3.2937740865
 H,0,1.4177297462,-0.6788450547,3.6472554425
 C,0,1.9885834758,-3.7935574197,2.5534340327
 C,0,3.2079785332,-3.1613532738,2.3048860933
 C,0,1.8391496524,-5.13317921,2.2013143634
 H,0,0.9020299183,-5.6540003864,2.3639152764
 N,0,3.0667156059,-1.7481690239,2.6819371144
 H,0,3.0256811651,-1.165097911,1.7994474419
 C,0,4.1404257207,-5.1277290258,1.3924445395
 H,0,4.9684296376,-5.663595159,0.9407629161
 C,0,4.2984434679,-3.7764302183,1.7249967497
 H,0,5.2278629265,-3.2511409754,1.5303703696
 C,0,2.9291442983,-5.7899247654,1.6250478005
 H,0,2.8344024721,-6.8344281146,1.3468000465
 N,0,-0.6649990261,-0.5549473553,0.9218905029
 H,0,-0.8826320297,0.1218962719,1.6403774872
 C,0,0.0367936432,-0.0055526179,-0.2403872642
 H,0,-0.3834976503,0.9959044631,-0.3893841836
 C,0,1.5226509131,0.1232684803,0.1080491482
 C,0,-0.1277907851,-0.7963822805,-1.5587811264
 H,0,0.2683627144,-1.7966173758,-1.373808867
 O,0,2.212394536,-0.8711471356,0.3631532681
 C,0,0.7176918315,-0.1607709039,-2.6855327467
 H,0,1.7801171703,-0.1965315667,-2.4110448545
 H,0,0.6256095485,-0.8134011736,-3.5615826293
 C,0,-1.6084229973,-0.9216340544,-1.9278485056
 H,0,-2.096091836,0.0567410788,-2.0103394174
 H,0,-1.7100315882,-1.4272046828,-2.8936934211
 H,0,-2.1480859734,-1.513821846,-1.1849892582
 C,0,0.3504775402,1.2680209603,-3.1017187542
 H,0,1.0515145944,1.621672721,-3.8640019393
 H,0,0.4051032812,1.9788681974,-2.2658830891
 H,0,-0.6638634886,1.3268950372,-3.5089465617
 N,0,2.0346209205,1.3755986073,0.1172573203
 H,0,1.4479389642,2.142419481,-0.1849985164
 C,0,3.4772443991,1.6185480652,0.1687561473
 H,0,3.9479483818,0.6743837363,-0.1264354554
 C,0,3.8760823199,1.8302609476,1.6333587367
 C,0,3.87033667,2.7160772386,-0.8209172383
 H,0,3.3320684785,2.4919280922,-1.7482083565
 H,0,3.5271872691,3.6947727174,-0.4637088467
 O,0,3.756867191,0.9708867876,2.4883017195
 C,0,5.3712367907,2.7395853324,-1.1239168963
 H,0,5.7033819413,1.7079555789,-1.2828319534
 H,0,5.9356111341,3.135025545,-0.2728055578
 C,0,5.7137208647,3.5762139169,-2.3763497285
 H,0,5.6008977104,4.6429294288,-2.1605522371
 H,0,6.7676978289,3.4228504602,-2.6338285236
 N,0,4.8906076248,3.2976326007,-3.5465603538
 H,0,4.0202041336,3.8132316863,-3.5742853325
 N,0,3.6319944507,1.8389115944,-4.8462034832
 H,0,3.6871631245,0.954404625,-5.341643877
 H,0,3.4731053986,2.5990570475,-5.502070092
 N,0,5.5793989007,1.0150426231,-3.891109337
 H,0,6.3522338478,1.2505193385,-3.2701852357
 C,0,4.7888103434,2.009022611,-4.065636114
 O,0,4.3512384509,3.0536645918,1.8919901511
 H,0,3.815011129,-1.3703789951,3.271027147
 H,0,4.5748860008,3.0927782942,2.842783553
 Recover connectivity data from disk.
                           ----------------------------
                           !    Current Parameters    !
                           ! (Angstroms and Degrees)  !
 --------------------------                            --------------------------
 ! Name  Definition              Value                                          !
 --------------------------------------------------------------------------------
 ! R1    R(1,2)                  1.0184                                         !
 ! R2    R(1,3)                  1.0202                                         !
 ! R3    R(1,4)                  1.4582                                         !
 ! R4    R(4,5)                  1.0977                                         !
 ! R5    R(4,6)                  1.5433                                         !
 ! R6    R(4,7)                  1.5475                                         !
 ! R7    R(6,10)                 1.2235                                         !
 ! R8    R(6,26)                 1.3706                                         !
 ! R9    R(7,8)                  1.0939                                         !
 ! R10   R(7,9)                  1.0926                                         !
 ! R11   R(7,11)                 1.5011                                         !
 ! R12   R(11,12)                1.3444                                         !
 ! R13   R(11,14)                1.4701                                         !
 ! R14   R(12,13)                1.0788                                         !
 ! R15   R(12,18)                1.4783                                         !
 ! R16   R(14,15)                1.3958                                         !
 ! R17   R(14,16)                1.3932                                         !
 ! R18   R(15,18)                1.4694                                         !
 ! R19   R(15,22)                1.3797                                         !
 ! R20   R(16,17)                1.0844                                         !
 ! R21   R(16,24)                1.397                                          !
 ! R22   R(18,19)                1.0585                                         !
 ! R23   R(18,69)                1.0245                                         !
 ! R24   R(20,21)                1.0848                                         !
 ! R25   R(20,22)                1.4006                                         !
 ! R26   R(20,24)                1.3999                                         !
 ! R27   R(22,23)                1.0852                                         !
 ! R28   R(24,25)                1.0851                                         !
 ! R29   R(26,27)                1.0108                                         !
 ! R30   R(26,28)                1.4647                                         !
 ! R31   R(28,29)                1.0962                                         !
 ! R32   R(28,30)                1.5316                                         !
 ! R33   R(28,31)                1.5462                                         !
 ! R34   R(30,33)                1.2368                                         !
 ! R35   R(30,45)                1.353                                          !
 ! R36   R(31,32)                1.0916                                         !
 ! R37   R(31,34)                1.5454                                         !
 ! R38   R(31,37)                1.5311                                         !
 ! R39   R(34,35)                1.0979                                         !
 ! R40   R(34,36)                1.0963                                         !
 ! R41   R(34,41)                1.5328                                         !
 ! R42   R(37,38)                1.0963                                         !
 ! R43   R(37,39)                1.0949                                         !
 ! R44   R(37,40)                1.0926                                         !
 ! R45   R(41,42)                1.0943                                         !
 ! R46   R(41,43)                1.0986                                         !
 ! R47   R(41,44)                1.0946                                         !
 ! R48   R(45,46)                1.0117                                         !
 ! R49   R(45,47)                1.4638                                         !
 ! R50   R(47,48)                1.0955                                         !
 ! R51   R(47,49)                1.5326                                         !
 ! R52   R(47,50)                1.5292                                         !
 ! R53   R(49,53)                1.2181                                         !
 ! R54   R(49,68)                1.3377                                         !
 ! R55   R(50,51)                1.0954                                         !
 ! R56   R(50,52)                1.0969                                         !
 ! R57   R(50,54)                1.5314                                         !
 ! R58   R(54,55)                1.0954                                         !
 ! R59   R(54,56)                1.0951                                         !
 ! R60   R(54,57)                1.5446                                         !
 ! R61   R(57,58)                1.0942                                         !
 ! R62   R(57,59)                1.0958                                         !
 ! R63   R(57,60)                1.4576                                         !
 ! R64   R(60,61)                1.012                                          !
 ! R65   R(60,67)                1.393                                          !
 ! R66   R(62,63)                1.0153                                         !
 ! R67   R(62,64)                1.0165                                         !
 ! R68   R(62,67)                1.4059                                         !
 ! R69   R(65,66)                1.019                                          !
 ! R70   R(65,67)                1.282                                          !
 ! R71   R(68,70)                0.9775                                         !
 ! A1    A(2,1,3)              106.738                                          !
 ! A2    A(2,1,4)              110.7756                                         !
 ! A3    A(3,1,4)              108.7692                                         !
 ! A4    A(1,4,5)              107.6562                                         !
 ! A5    A(1,4,6)              113.0771                                         !
 ! A6    A(1,4,7)              108.2196                                         !
 ! A7    A(5,4,6)              110.3886                                         !
 ! A8    A(5,4,7)              109.0043                                         !
 ! A9    A(6,4,7)              108.4099                                         !
 ! A10   A(4,6,10)             120.0656                                         !
 ! A11   A(4,6,26)             114.6077                                         !
 ! A12   A(10,6,26)            125.2967                                         !
 ! A13   A(4,7,8)              108.7193                                         !
 ! A14   A(4,7,9)              107.689                                          !
 ! A15   A(4,7,11)             112.4822                                         !
 ! A16   A(8,7,9)              107.0636                                         !
 ! A17   A(8,7,11)             111.9089                                         !
 ! A18   A(9,7,11)             108.75                                           !
 ! A19   A(7,11,12)            127.0228                                         !
 ! A20   A(7,11,14)            124.4304                                         !
 ! A21   A(12,11,14)           108.2948                                         !
 ! A22   A(11,12,13)           132.5896                                         !
 ! A23   A(11,12,18)           110.0637                                         !
 ! A24   A(13,12,18)           116.9502                                         !
 ! A25   A(11,14,15)           108.55                                           !
 ! A26   A(11,14,16)           132.4854                                         !
 ! A27   A(15,14,16)           118.9607                                         !
 ! A28   A(14,15,18)           107.813                                          !
 ! A29   A(14,15,22)           124.2885                                         !
 ! A30   A(18,15,22)           127.7741                                         !
 ! A31   A(14,16,17)           121.1065                                         !
 ! A32   A(14,16,24)           118.205                                          !
 ! A33   A(17,16,24)           120.6877                                         !
 ! A34   A(12,18,15)           104.8833                                         !
 ! A35   A(12,18,19)           105.8772                                         !
 ! A36   A(12,18,69)           113.6317                                         !
 ! A37   A(15,18,19)           108.6361                                         !
 ! A38   A(15,18,69)           115.5913                                         !
 ! A39   A(19,18,69)           107.7317                                         !
 ! A40   A(21,20,22)           119.2983                                         !
 ! A41   A(21,20,24)           119.7323                                         !
 ! A42   A(22,20,24)           120.9675                                         !
 ! A43   A(15,22,20)           116.1507                                         !
 ! A44   A(15,22,23)           122.4446                                         !
 ! A45   A(20,22,23)           121.4043                                         !
 ! A46   A(16,24,20)           121.4181                                         !
 ! A47   A(16,24,25)           119.3539                                         !
 ! A48   A(20,24,25)           119.2272                                         !
 ! A49   A(6,26,27)            115.5169                                         !
 ! A50   A(6,26,28)            127.9896                                         !
 ! A51   A(27,26,28)           114.5859                                         !
 ! A52   A(26,28,29)           105.4751                                         !
 ! A53   A(26,28,30)           108.4127                                         !
 ! A54   A(26,28,31)           115.7079                                         !
 ! A55   A(29,28,30)           109.0278                                         !
 ! A56   A(29,28,31)           108.0921                                         !
 ! A57   A(30,28,31)           109.8934                                         !
 ! A58   A(28,30,33)           121.3542                                         !
 ! A59   A(28,30,45)           116.5197                                         !
 ! A60   A(33,30,45)           122.1258                                         !
 ! A61   A(28,31,32)           106.5913                                         !
 ! A62   A(28,31,34)           110.6756                                         !
 ! A63   A(28,31,37)           110.507                                          !
 ! A64   A(32,31,34)           107.569                                          !
 ! A65   A(32,31,37)           108.4718                                         !
 ! A66   A(34,31,37)           112.7653                                         !
 ! A67   A(31,34,35)           109.4953                                         !
 ! A68   A(31,34,36)           106.9668                                         !
 ! A69   A(31,34,41)           116.7606                                         !
 ! A70   A(35,34,36)           105.1695                                         !
 ! A71   A(35,34,41)           109.2733                                         !
 ! A72   A(36,34,41)           108.5308                                         !
 ! A73   A(31,37,38)           112.0437                                         !
 ! A74   A(31,37,39)           109.8867                                         !
 ! A75   A(31,37,40)           110.9838                                         !
 ! A76   A(38,37,39)           107.724                                          !
 ! A77   A(38,37,40)           108.3698                                         !
 ! A78   A(39,37,40)           107.6776                                         !
 ! A79   A(34,41,42)           109.6878                                         !
 ! A80   A(34,41,43)           112.6222                                         !
 ! A81   A(34,41,44)           111.9099                                         !
 ! A82   A(42,41,43)           106.7985                                         !
 ! A83   A(42,41,44)           108.4874                                         !
 ! A84   A(43,41,44)           107.1169                                         !
 ! A85   A(30,45,46)           118.6917                                         !
 ! A86   A(30,45,47)           121.7881                                         !
 ! A87   A(46,45,47)           117.1421                                         !
 ! A88   A(45,47,48)           105.719                                          !
 ! A89   A(45,47,49)           108.2403                                         !
 ! A90   A(45,47,50)           110.4673                                         !
 ! A91   A(48,47,49)           105.3513                                         !
 ! A92   A(48,47,50)           109.4946                                         !
 ! A93   A(49,47,50)           116.8985                                         !
 ! A94   A(47,49,53)           123.2167                                         !
 ! A95   A(47,49,68)           113.7994                                         !
 ! A96   A(53,49,68)           122.978                                          !
 ! A97   A(47,50,51)           105.9431                                         !
 ! A98   A(47,50,52)           110.4378                                         !
 ! A99   A(47,50,54)           113.0172                                         !
 ! A100  A(51,50,52)           107.7302                                         !
 ! A101  A(51,50,54)           108.4977                                         !
 ! A102  A(52,50,54)           110.9376                                         !
 ! A103  A(50,54,55)           108.1462                                         !
 ! A104  A(50,54,56)           110.9082                                         !
 ! A105  A(50,54,57)           112.71                                           !
 ! A106  A(55,54,56)           107.2515                                         !
 ! A107  A(55,54,57)           108.981                                          !
 ! A108  A(56,54,57)           108.6824                                         !
 ! A109  A(54,57,58)           110.1986                                         !
 ! A110  A(54,57,59)           109.1471                                         !
 ! A111  A(54,57,60)           114.9765                                         !
 ! A112  A(58,57,59)           106.3783                                         !
 ! A113  A(58,57,60)           106.6454                                         !
 ! A114  A(59,57,60)           109.1342                                         !
 ! A115  A(57,60,61)           114.2241                                         !
 ! A116  A(57,60,67)           121.1484                                         !
 ! A117  A(61,60,67)           113.4684                                         !
 ! A118  A(63,62,64)           110.189                                          !
 ! A119  A(63,62,67)           109.3679                                         !
 ! A120  A(64,62,67)           113.3524                                         !
 ! A121  A(66,65,67)           111.809                                          !
 ! A122  A(60,67,62)           112.27                                           !
 ! A123  A(60,67,65)           128.4233                                         !
 ! A124  A(62,67,65)           119.289                                          !
 ! A125  A(49,68,70)           107.8135                                         !
 ! D1    D(2,1,4,5)             53.2004                                         !
 ! D2    D(2,1,4,6)            -69.0096                                         !
 ! D3    D(2,1,4,7)            170.8814                                         !
 ! D4    D(3,1,4,5)            170.217                                          !
 ! D5    D(3,1,4,6)             48.007                                          !
 ! D6    D(3,1,4,7)            -72.1021                                         !
 ! D7    D(1,4,6,10)           -68.693                                          !
 ! D8    D(1,4,6,26)           109.4201                                         !
 ! D9    D(5,4,6,10)           170.6381                                         !
 ! D10   D(5,4,6,26)           -11.2488                                         !
 ! D11   D(7,4,6,10)            51.3072                                         !
 ! D12   D(7,4,6,26)          -130.5797                                         !
 ! D13   D(1,4,7,8)            -71.102                                          !
 ! D14   D(1,4,7,9)             44.5731                                         !
 ! D15   D(1,4,7,11)           164.3836                                         !
 ! D16   D(5,4,7,8)             45.7115                                         !
 ! D17   D(5,4,7,9)            161.3867                                         !
 ! D18   D(5,4,7,11)           -78.8029                                         !
 ! D19   D(6,4,7,8)            165.909                                          !
 ! D20   D(6,4,7,9)            -78.4159                                         !
 ! D21   D(6,4,7,11)            41.3945                                         !
 ! D22   D(4,6,26,27)            3.8304                                         !
 ! D23   D(4,6,26,28)          167.119                                          !
 ! D24   D(10,6,26,27)        -178.1704                                         !
 ! D25   D(10,6,26,28)         -14.8818                                         !
 ! D26   D(4,7,11,12)           52.4731                                         !
 ! D27   D(4,7,11,14)         -121.0739                                         !
 ! D28   D(8,7,11,12)          -70.2657                                         !
 ! D29   D(8,7,11,14)          116.1874                                         !
 ! D30   D(9,7,11,12)          171.6662                                         !
 ! D31   D(9,7,11,14)           -1.8807                                         !
 ! D32   D(7,11,12,13)           2.5587                                         !
 ! D33   D(7,11,12,18)        -169.7889                                         !
 ! D34   D(14,11,12,13)        176.9556                                         !
 ! D35   D(14,11,12,18)          4.6081                                         !
 ! D36   D(7,11,14,15)         173.6824                                         !
 ! D37   D(7,11,14,16)          -5.5764                                         !
 ! D38   D(12,11,14,15)         -0.8946                                         !
 ! D39   D(12,11,14,16)        179.8466                                         !
 ! D40   D(11,12,18,15)         -6.4197                                         !
 ! D41   D(11,12,18,19)        108.3742                                         !
 ! D42   D(11,12,18,69)       -133.5867                                         !
 ! D43   D(13,12,18,15)        179.8945                                         !
 ! D44   D(13,12,18,19)        -65.3115                                         !
 ! D45   D(13,12,18,69)         52.7276                                         !
 ! D46   D(11,14,15,18)         -3.168                                          !
 ! D47   D(11,14,15,22)       -179.3839                                         !
 ! D48   D(16,14,15,18)        176.2073                                         !
 ! D49   D(16,14,15,22)         -0.0086                                         !
 ! D50   D(11,14,16,17)          0.1913                                         !
 ! D51   D(11,14,16,24)        179.882                                          !
 ! D52   D(15,14,16,17)       -179.0056                                         !
 ! D53   D(15,14,16,24)          0.6851                                         !
 ! D54   D(14,15,18,12)          5.6829                                         !
 ! D55   D(14,15,18,19)       -107.1699                                         !
 ! D56   D(14,15,18,69)        131.6394                                         !
 ! D57   D(22,15,18,12)       -178.2728                                         !
 ! D58   D(22,15,18,19)         68.8745                                         !
 ! D59   D(22,15,18,69)        -52.3162                                         !
 ! D60   D(14,15,22,20)         -0.8165                                         !
 ! D61   D(14,15,22,23)        178.962                                          !
 ! D62   D(18,15,22,20)       -176.2572                                         !
 ! D63   D(18,15,22,23)          3.5213                                         !
 ! D64   D(14,16,24,20)         -0.5223                                         !
 ! D65   D(14,16,24,25)        179.7878                                         !
 ! D66   D(17,16,24,20)        179.1697                                         !
 ! D67   D(17,16,24,25)         -0.5201                                         !
 ! D68   D(21,20,22,15)       -179.5315                                         !
 ! D69   D(21,20,22,23)          0.6875                                         !
 ! D70   D(24,20,22,15)          0.9694                                         !
 ! D71   D(24,20,22,23)       -178.8115                                         !
 ! D72   D(21,20,24,16)       -179.8289                                         !
 ! D73   D(21,20,24,25)         -0.1387                                         !
 ! D74   D(22,20,24,16)         -0.332                                          !
 ! D75   D(22,20,24,25)        179.3582                                         !
 ! D76   D(6,26,28,29)         160.5439                                         !
 ! D77   D(6,26,28,30)         -82.7952                                         !
 ! D78   D(6,26,28,31)          41.1432                                         !
 ! D79   D(27,26,28,29)        -36.0374                                         !
 ! D80   D(27,26,28,30)         80.6235                                         !
 ! D81   D(27,26,28,31)       -155.4381                                         !
 ! D82   D(26,28,30,33)         63.4311                                         !
 ! D83   D(26,28,30,45)       -116.7466                                         !
 ! D84   D(29,28,30,33)        177.7791                                         !
 ! D85   D(29,28,30,45)         -2.3986                                         !
 ! D86   D(31,28,30,33)        -63.9178                                         !
 ! D87   D(31,28,30,45)        115.9045                                         !
 ! D88   D(26,28,31,32)        -60.2761                                         !
 ! D89   D(26,28,31,34)       -176.9614                                         !
 ! D90   D(26,28,31,37)         57.396                                          !
 ! D91   D(29,28,31,32)       -178.2337                                         !
 ! D92   D(29,28,31,34)         65.081                                          !
 ! D93   D(29,28,31,37)        -60.5616                                         !
 ! D94   D(30,28,31,32)         62.8867                                         !
 ! D95   D(30,28,31,34)        -53.7985                                         !
 ! D96   D(30,28,31,37)       -179.4412                                         !
 ! D97   D(28,30,45,46)         -5.6109                                         !
 ! D98   D(28,30,45,47)       -167.6018                                         !
 ! D99   D(33,30,45,46)        174.2099                                         !
 ! D100  D(33,30,45,47)         12.219                                          !
 ! D101  D(28,31,34,35)         61.7563                                         !
 ! D102  D(28,31,34,36)        175.2242                                         !
 ! D103  D(28,31,34,41)        -63.0411                                         !
 ! D104  D(32,31,34,35)        -54.3233                                         !
 ! D105  D(32,31,34,36)         59.1445                                         !
 ! D106  D(32,31,34,41)       -179.1208                                         !
 ! D107  D(37,31,34,35)       -173.8803                                         !
 ! D108  D(37,31,34,36)        -60.4124                                         !
 ! D109  D(37,31,34,41)         61.3222                                         !
 ! D110  D(28,31,37,38)         56.7164                                         !
 ! D111  D(28,31,37,39)        176.435                                          !
 ! D112  D(28,31,37,40)        -64.5792                                         !
 ! D113  D(32,31,37,38)        173.2271                                         !
 ! D114  D(32,31,37,39)        -67.0543                                         !
 ! D115  D(32,31,37,40)         51.9315                                         !
 ! D116  D(34,31,37,38)        -67.7394                                         !
 ! D117  D(34,31,37,39)         51.9791                                         !
 ! D118  D(34,31,37,40)        170.9649                                         !
 ! D119  D(31,34,41,42)        176.9715                                         !
 ! D120  D(31,34,41,43)         58.179                                          !
 ! D121  D(31,34,41,44)        -62.5701                                         !
 ! D122  D(35,34,41,42)         52.0619                                         !
 ! D123  D(35,34,41,43)        -66.7307                                         !
 ! D124  D(35,34,41,44)        172.5203                                         !
 ! D125  D(36,34,41,42)        -62.1165                                         !
 ! D126  D(36,34,41,43)        179.091                                          !
 ! D127  D(36,34,41,44)         58.342                                          !
 ! D128  D(30,45,47,48)         17.6492                                         !
 ! D129  D(30,45,47,49)        -94.8286                                         !
 ! D130  D(30,45,47,50)        136.0143                                         !
 ! D131  D(46,45,47,48)       -144.6065                                         !
 ! D132  D(46,45,47,49)        102.9157                                         !
 ! D133  D(46,45,47,50)        -26.2414                                         !
 ! D134  D(45,47,49,53)         63.0327                                         !
 ! D135  D(45,47,49,68)       -116.103                                          !
 ! D136  D(48,47,49,53)        -49.6907                                         !
 ! D137  D(48,47,49,68)        131.1736                                         !
 ! D138  D(50,47,49,53)       -171.515                                          !
 ! D139  D(50,47,49,68)          9.3492                                         !
 ! D140  D(45,47,50,51)        -44.3591                                         !
 ! D141  D(45,47,50,52)         72.0289                                         !
 ! D142  D(45,47,50,54)       -163.0355                                         !
 ! D143  D(48,47,50,51)         71.6739                                         !
 ! D144  D(48,47,50,52)       -171.9381                                         !
 ! D145  D(48,47,50,54)        -47.0025                                         !
 ! D146  D(49,47,50,51)       -168.6897                                         !
 ! D147  D(49,47,50,52)        -52.3016                                         !
 ! D148  D(49,47,50,54)         72.634                                          !
 ! D149  D(47,49,68,70)        179.9021                                         !
 ! D150  D(53,49,68,70)          0.764                                          !
 ! D151  D(47,50,54,55)         44.307                                          !
 ! D152  D(47,50,54,56)        -73.0344                                         !
 ! D153  D(47,50,54,57)        164.8518                                         !
 ! D154  D(51,50,54,55)        -72.8757                                         !
 ! D155  D(51,50,54,56)        169.7829                                         !
 ! D156  D(51,50,54,57)         47.6691                                         !
 ! D157  D(52,50,54,55)        168.9711                                         !
 ! D158  D(52,50,54,56)         51.6296                                         !
 ! D159  D(52,50,54,57)        -70.4842                                         !
 ! D160  D(50,54,57,58)         72.6326                                         !
 ! D161  D(50,54,57,59)       -170.8937                                         !
 ! D162  D(50,54,57,60)        -47.9032                                         !
 ! D163  D(55,54,57,58)       -167.3023                                         !
 ! D164  D(55,54,57,59)        -50.8287                                         !
 ! D165  D(55,54,57,60)         72.1619                                         !
 ! D166  D(56,54,57,58)        -50.7274                                         !
 ! D167  D(56,54,57,59)         65.7462                                         !
 ! D168  D(56,54,57,60)       -171.2632                                         !
 ! D169  D(54,57,60,61)         85.4356                                         !
 ! D170  D(54,57,60,67)        -56.0258                                         !
 ! D171  D(58,57,60,61)        -37.0318                                         !
 ! D172  D(58,57,60,67)       -178.4933                                         !
 ! D173  D(59,57,60,61)       -151.5669                                         !
 ! D174  D(59,57,60,67)         66.9716                                         !
 ! D175  D(57,60,67,62)        158.6297                                         !
 ! D176  D(57,60,67,65)        -19.8081                                         !
 ! D177  D(61,60,67,62)         16.9034                                         !
 ! D178  D(61,60,67,65)       -161.5344                                         !
 ! D179  D(63,62,67,60)        169.3855                                         !
 ! D180  D(63,62,67,65)        -12.0177                                         !
 ! D181  D(64,62,67,60)         46.0025                                         !
 ! D182  D(64,62,67,65)       -135.4008                                         !
 ! D183  D(66,65,67,60)          1.316                                          !
 ! D184  D(66,65,67,62)       -177.0264                                         !
 --------------------------------------------------------------------------------
 Symmetry turned off by external request.
 Stoichiometry    C23H36N7O4(1+)
 Framework group  C1[X(C23H36N7O4)]
 Deg. of freedom   204
 Full point group                 C1      NOp   1
                          Input orientation:                          
 ---------------------------------------------------------------------
 Center     Atomic      Atomic             Coordinates (Angstroms)
 Number     Number       Type             X           Y           Z
 ---------------------------------------------------------------------
      1          7           0       -2.667330   -2.631052    2.754238
      2          1           0       -3.340634   -1.943039    2.422029
      3          1           0       -2.716093   -3.423162    2.113216
      4          6           0       -1.314745   -2.086835    2.725572
      5          1           0       -1.325687   -1.138421    3.278143
      6          6           0       -0.780541   -1.868980    1.294125
      7          6           0       -0.377403   -3.081833    3.450862
      8          1           0       -0.592971   -3.049523    4.522803
      9          1           0       -0.627762   -4.087137    3.103635
     10          8           0       -0.531344   -2.830646    0.579866
     11          6           0        1.072143   -2.818929    3.162881
     12          6           0        1.724552   -1.650775    3.293774
     13          1           0        1.417730   -0.678845    3.647255
     14          6           0        1.988583   -3.793557    2.553434
     15          6           0        3.207979   -3.161353    2.304886
     16          6           0        1.839150   -5.133179    2.201314
     17          1           0        0.902030   -5.654000    2.363915
     18          7           0        3.066716   -1.748169    2.681937
     19          1           0        3.025681   -1.165098    1.799447
     20          6           0        4.140426   -5.127729    1.392445
     21          1           0        4.968430   -5.663595    0.940763
     22          6           0        4.298443   -3.776430    1.724997
     23          1           0        5.227863   -3.251141    1.530370
     24          6           0        2.929144   -5.789925    1.625048
     25          1           0        2.834402   -6.834428    1.346800
     26          7           0       -0.664999   -0.554947    0.921891
     27          1           0       -0.882632    0.121896    1.640377
     28          6           0        0.036794   -0.005553   -0.240387
     29          1           0       -0.383498    0.995904   -0.389384
     30          6           0        1.522651    0.123268    0.108049
     31          6           0       -0.127791   -0.796382   -1.558781
     32          1           0        0.268363   -1.796617   -1.373809
     33          8           0        2.212395   -0.871147    0.363153
     34          6           0        0.717692   -0.160771   -2.685533
     35          1           0        1.780117   -0.196532   -2.411045
     36          1           0        0.625610   -0.813401   -3.561583
     37          6           0       -1.608423   -0.921634   -1.927849
     38          1           0       -2.096092    0.056741   -2.010339
     39          1           0       -1.710032   -1.427205   -2.893693
     40          1           0       -2.148086   -1.513822   -1.184989
     41          6           0        0.350478    1.268021   -3.101719
     42          1           0        1.051515    1.621673   -3.864002
     43          1           0        0.405103    1.978868   -2.265883
     44          1           0       -0.663863    1.326895   -3.508947
     45          7           0        2.034621    1.375599    0.117257
     46          1           0        1.447939    2.142419   -0.184999
     47          6           0        3.477244    1.618548    0.168756
     48          1           0        3.947948    0.674384   -0.126435
     49          6           0        3.876082    1.830261    1.633359
     50          6           0        3.870337    2.716077   -0.820917
     51          1           0        3.332068    2.491928   -1.748208
     52          1           0        3.527187    3.694773   -0.463709
     53          8           0        3.756867    0.970887    2.488302
     54          6           0        5.371237    2.739585   -1.123917
     55          1           0        5.703382    1.707956   -1.282832
     56          1           0        5.935611    3.135026   -0.272806
     57          6           0        5.713721    3.576214   -2.376350
     58          1           0        5.600898    4.642929   -2.160552
     59          1           0        6.767698    3.422850   -2.633829
     60          7           0        4.890608    3.297633   -3.546560
     61          1           0        4.020204    3.813232   -3.574285
     62          7           0        3.631994    1.838912   -4.846203
     63          1           0        3.687163    0.954405   -5.341644
     64          1           0        3.473105    2.599057   -5.502070
     65          7           0        5.579399    1.015043   -3.891109
     66          1           0        6.352234    1.250519   -3.270185
     67          6           0        4.788810    2.009023   -4.065636
     68          8           0        4.351238    3.053665    1.891990
     69          1           0        3.815011   -1.370379    3.271027
     70          1           0        4.574886    3.092778    2.842784
 ---------------------------------------------------------------------
 Rotational constants (GHZ):           0.1675989           0.0770682           0.0690170
 Standard basis: 6-31G(d) (6D, 7F)
   582 basis functions,  1096 primitive gaussians,   582 cartesian basis functions
   127 alpha electrons      127 beta electrons
       nuclear repulsion energy      3885.8290373847 Hartrees.
 NAtoms=   70 NActive=   70 NUniq=   70 SFac= 1.00D+00 NAtFMM=   60 NAOKFM=T Big=T
 Integral buffers will be    131072 words long.
 Raffenetti 2 integral format.
 Two-electron integral symmetry is turned off.
 Nuclear repulsion after empirical dispersion term =     3885.6716043798 Hartrees.
 One-electron integrals computed using PRISM.
 NBasis=   582 RedAO= T EigKep=  3.65D-04  NBF=   582
 NBsUse=   582 1.00D-06 EigRej= -1.00D+00 NBFU=   582
 Initial guess from the checkpoint file:  "conf-535.chk"
 B after Tr=     0.000000    0.000000    0.000000
         Rot=    1.000000    0.000000    0.000000    0.000000 Ang=   0.00 deg.
 Requested convergence on RMS density matrix=1.00D-08 within 128 cycles.
 Requested convergence on MAX density matrix=1.00D-06.
 Requested convergence on             energy=1.00D-06.
 No special actions if energy rises.
 SCF Done:  E(RB3LYP) =  -1582.24946461     A.U. after    1 cycles
            NFock=  1  Conv=0.16D-08     -V/T= 2.0094

 **********************************************************************

            Population analysis using the SCF Density.

 **********************************************************************

 Alpha  occ. eigenvalues --  -19.32793 -19.27188 -19.24972 -19.21295 -14.56404
 Alpha  occ. eigenvalues --  -14.49737 -14.47145 -14.43172 -14.41642 -14.41354
 Alpha  occ. eigenvalues --  -14.35921 -10.45270 -10.41609 -10.38393 -10.36222
 Alpha  occ. eigenvalues --  -10.35510 -10.35199 -10.35131 -10.34600 -10.33371
 Alpha  occ. eigenvalues --  -10.32974 -10.31698 -10.31472 -10.31143 -10.30404
 Alpha  occ. eigenvalues --  -10.30323 -10.30086 -10.30084 -10.29949 -10.28482
 Alpha  occ. eigenvalues --  -10.27972 -10.26664 -10.25840 -10.25345  -1.23814
 Alpha  occ. eigenvalues --   -1.16976  -1.14562  -1.13331  -1.13256  -1.05972
 Alpha  occ. eigenvalues --   -1.05364  -1.03261  -0.98997  -0.97216  -0.96725
 Alpha  occ. eigenvalues --   -0.93446  -0.91953  -0.91569  -0.90077  -0.86248
 Alpha  occ. eigenvalues --   -0.86054  -0.85194  -0.83660  -0.82648  -0.80014
 Alpha  occ. eigenvalues --   -0.78292  -0.76172  -0.74394  -0.74087  -0.72820
 Alpha  occ. eigenvalues --   -0.72629  -0.71571  -0.70648  -0.69415  -0.69165
 Alpha  occ. eigenvalues --   -0.67917  -0.65924  -0.65104  -0.64755  -0.63041
 Alpha  occ. eigenvalues --   -0.62795  -0.62323  -0.62043  -0.61660  -0.61088
 Alpha  occ. eigenvalues --   -0.60618  -0.59800  -0.59439  -0.59187  -0.57304
 Alpha  occ. eigenvalues --   -0.56408  -0.56031  -0.55808  -0.55097  -0.54901
 Alpha  occ. eigenvalues --   -0.54362  -0.53923  -0.53615  -0.53347  -0.53039
 Alpha  occ. eigenvalues --   -0.52198  -0.51979  -0.51123  -0.50886  -0.50511
 Alpha  occ. eigenvalues --   -0.50292  -0.50029  -0.49314  -0.48394  -0.48141
 Alpha  occ. eigenvalues --   -0.48032  -0.47402  -0.47209  -0.46535  -0.46249
 Alpha  occ. eigenvalues --   -0.45947  -0.45675  -0.45108  -0.44875  -0.44696
 Alpha  occ. eigenvalues --   -0.44224  -0.43765  -0.41850  -0.41617  -0.41335
 Alpha  occ. eigenvalues --   -0.41112  -0.40873  -0.39450  -0.38598  -0.36774
 Alpha  occ. eigenvalues --   -0.36427  -0.35646  -0.34279  -0.33874  -0.33579
 Alpha  occ. eigenvalues --   -0.32319  -0.30366
 Alpha virt. eigenvalues --   -0.15063  -0.13103  -0.11937  -0.10985  -0.07500
 Alpha virt. eigenvalues --   -0.06755  -0.05627  -0.04646  -0.03993  -0.03868
 Alpha virt. eigenvalues --   -0.02724  -0.01868  -0.00937  -0.00163   0.00132
 Alpha virt. eigenvalues --    0.00593   0.01023   0.01797   0.02078   0.02544
 Alpha virt. eigenvalues --    0.02904   0.03536   0.03984   0.04055   0.04976
 Alpha virt. eigenvalues --    0.05208   0.05534   0.06080   0.06712   0.06933
 Alpha virt. eigenvalues --    0.07162   0.07279   0.07636   0.07985   0.08330
 Alpha virt. eigenvalues --    0.08635   0.08821   0.09046   0.09364   0.09986
 Alpha virt. eigenvalues --    0.10224   0.10789   0.11072   0.11118   0.11546
 Alpha virt. eigenvalues --    0.11830   0.12453   0.12681   0.13321   0.13861
 Alpha virt. eigenvalues --    0.14188   0.14421   0.14942   0.15342   0.15842
 Alpha virt. eigenvalues --    0.16112   0.16261   0.17012   0.17589   0.17997
 Alpha virt. eigenvalues --    0.18262   0.19794   0.20404   0.20601   0.20716
 Alpha virt. eigenvalues --    0.21706   0.22339   0.24533   0.24973   0.25200
 Alpha virt. eigenvalues --    0.27078   0.27235   0.27834   0.30165   0.31939
 Alpha virt. eigenvalues --    0.32733   0.36160   0.36672   0.37938   0.39053
 Alpha virt. eigenvalues --    0.39800   0.39916   0.40613   0.40959   0.41161
 Alpha virt. eigenvalues --    0.41732   0.42126   0.43444   0.43798   0.43982
 Alpha virt. eigenvalues --    0.44285   0.45130   0.45422   0.46520   0.46700
 Alpha virt. eigenvalues --    0.47179   0.47222   0.47735   0.48136   0.48348
 Alpha virt. eigenvalues --    0.48535   0.49091   0.49848   0.50116   0.50849
 Alpha virt. eigenvalues --    0.50872   0.51014   0.51312   0.52044   0.52369
 Alpha virt. eigenvalues --    0.52794   0.53507   0.53604   0.54582   0.55034
 Alpha virt. eigenvalues --    0.55514   0.55898   0.56404   0.56547   0.57391
 Alpha virt. eigenvalues --    0.57547   0.58180   0.58820   0.59633   0.59863
 Alpha virt. eigenvalues --    0.60912   0.61606   0.62418   0.62452   0.63164
 Alpha virt. eigenvalues --    0.63515   0.64170   0.64869   0.65249   0.65889
 Alpha virt. eigenvalues --    0.66038   0.66482   0.66660   0.67649   0.68562
 Alpha virt. eigenvalues --    0.69344   0.69819   0.70168   0.70574   0.71642
 Alpha virt. eigenvalues --    0.72014   0.72156   0.73255   0.73552   0.73780
 Alpha virt. eigenvalues --    0.73945   0.74307   0.74643   0.75197   0.75527
 Alpha virt. eigenvalues --    0.76036   0.76658   0.76922   0.77278   0.77922
 Alpha virt. eigenvalues --    0.78192   0.78656   0.79521   0.79611   0.80061
 Alpha virt. eigenvalues --    0.80398   0.80776   0.81215   0.81402   0.81671
 Alpha virt. eigenvalues --    0.82225   0.82736   0.82886   0.83153   0.83736
 Alpha virt. eigenvalues --    0.84213   0.84637   0.84871   0.85404   0.85808
 Alpha virt. eigenvalues --    0.85873   0.86555   0.86737   0.87152   0.87710
 Alpha virt. eigenvalues --    0.87909   0.88717   0.89187   0.89655   0.90380
 Alpha virt. eigenvalues --    0.90732   0.91869   0.92088   0.92517   0.93239
 Alpha virt. eigenvalues --    0.94001   0.94222   0.94859   0.95297   0.96025
 Alpha virt. eigenvalues --    0.97010   0.97546   0.98532   0.98940   0.99401
 Alpha virt. eigenvalues --    1.00293   1.01330   1.01640   1.02693   1.03484
 Alpha virt. eigenvalues --    1.03879   1.05056   1.05712   1.07150   1.07898
 Alpha virt. eigenvalues --    1.09885   1.10842   1.11500   1.13357   1.14153
 Alpha virt. eigenvalues --    1.15084   1.15822   1.17972   1.18853   1.19717
 Alpha virt. eigenvalues --    1.20302   1.21083   1.22587   1.23090   1.23926
 Alpha virt. eigenvalues --    1.24810   1.25959   1.26586   1.27413   1.28327
 Alpha virt. eigenvalues --    1.29259   1.29769   1.30907   1.32369   1.32835
 Alpha virt. eigenvalues --    1.33366   1.33951   1.35397   1.36070   1.36972
 Alpha virt. eigenvalues --    1.37400   1.38124   1.38458   1.39695   1.40520
 Alpha virt. eigenvalues --    1.40914   1.41733   1.43747   1.45411   1.46008
 Alpha virt. eigenvalues --    1.47197   1.48204   1.49187   1.50754   1.51767
 Alpha virt. eigenvalues --    1.52169   1.53502   1.54588   1.54998   1.57018
 Alpha virt. eigenvalues --    1.57444   1.58567   1.60596   1.61051   1.61417
 Alpha virt. eigenvalues --    1.62699   1.63314   1.64335   1.65200   1.66024
 Alpha virt. eigenvalues --    1.66783   1.67383   1.67825   1.68676   1.69526
 Alpha virt. eigenvalues --    1.69981   1.70375   1.71248   1.72113   1.72575
 Alpha virt. eigenvalues --    1.73035   1.73714   1.73991   1.75320   1.75719
 Alpha virt. eigenvalues --    1.76340   1.76760   1.77631   1.78632   1.79414
 Alpha virt. eigenvalues --    1.80556   1.80768   1.80861   1.81644   1.82030
 Alpha virt. eigenvalues --    1.83044   1.83567   1.83928   1.84574   1.85772
 Alpha virt. eigenvalues --    1.86893   1.87211   1.88729   1.89388   1.90575
 Alpha virt. eigenvalues --    1.91271   1.91948   1.92169   1.92877   1.93043
 Alpha virt. eigenvalues --    1.93332   1.93745   1.94278   1.94917   1.95269
 Alpha virt. eigenvalues --    1.96685   1.97221   1.98224   1.98808   2.00154
 Alpha virt. eigenvalues --    2.00741   2.01985   2.02163   2.03033   2.03646
 Alpha virt. eigenvalues --    2.05041   2.06117   2.07270   2.07383   2.07630
 Alpha virt. eigenvalues --    2.09291   2.10007   2.10626   2.11444   2.12240
 Alpha virt. eigenvalues --    2.13722   2.14199   2.15223   2.16345   2.16616
 Alpha virt. eigenvalues --    2.17434   2.18342   2.21004   2.21471   2.21895
 Alpha virt. eigenvalues --    2.23531   2.24053   2.24643   2.25314   2.26024
 Alpha virt. eigenvalues --    2.26861   2.27572   2.28048   2.28934   2.29452
 Alpha virt. eigenvalues --    2.30021   2.30862   2.31381   2.33777   2.34166
 Alpha virt. eigenvalues --    2.34875   2.35553   2.37067   2.37928   2.38740
 Alpha virt. eigenvalues --    2.39668   2.39941   2.40951   2.41587   2.42669
 Alpha virt. eigenvalues --    2.43288   2.46037   2.47125   2.48105   2.48606
 Alpha virt. eigenvalues --    2.49092   2.50261   2.51662   2.53365   2.53990
 Alpha virt. eigenvalues --    2.55095   2.55991   2.56291   2.58599   2.58841
 Alpha virt. eigenvalues --    2.59238   2.59880   2.61091   2.61681   2.62363
 Alpha virt. eigenvalues --    2.62833   2.64644   2.65677   2.67153   2.69454
 Alpha virt. eigenvalues --    2.69611   2.71076   2.72670   2.72774   2.73981
 Alpha virt. eigenvalues --    2.76861   2.78694   2.84440   2.86083   2.87339
 Alpha virt. eigenvalues --    2.90527   2.90669   2.91746   2.94165   2.97236
 Alpha virt. eigenvalues --    2.98409   2.99356   3.04795   3.07051   3.09478
 Alpha virt. eigenvalues --    3.33388   3.72170   3.74213   3.75364   3.85494
 Alpha virt. eigenvalues --    3.87738   3.90603   3.91771   3.93130   3.97760
 Alpha virt. eigenvalues --    4.00552   4.04986   4.05173   4.06909   4.08930
 Alpha virt. eigenvalues --    4.15430   4.17930   4.18843   4.19749   4.21307
 Alpha virt. eigenvalues --    4.22451   4.24132   4.28036   4.28215   4.30553
 Alpha virt. eigenvalues --    4.31853   4.35964   4.41001   4.43398   4.45450
 Alpha virt. eigenvalues --    4.47931   4.55416   4.59996   4.63904   4.68092
          Condensed to atoms (all electrons):
 Mulliken charges:
               1
     1  N   -0.695305
     2  H    0.314087
     3  H    0.321827
     4  C   -0.070058
     5  H    0.129253
     6  C    0.632764
     7  C   -0.339150
     8  H    0.198641
     9  H    0.181761
    10  O   -0.521034
    11  C    0.157476
    12  C   -0.104239
    13  H    0.187335
    14  C    0.160215
    15  C    0.197630
    16  C   -0.185006
    17  H    0.171529
    18  N   -0.742228
    19  H    0.457226
    20  C   -0.138914
    21  H    0.172019
    22  C   -0.150477
    23  H    0.165600
    24  C   -0.119335
    25  H    0.171162
    26  N   -0.622884
    27  H    0.329406
    28  C   -0.039289
    29  H    0.144059
    30  C    0.646412
    31  C   -0.087200
    32  H    0.197605
    33  O   -0.564883
    34  C   -0.289534
    35  H    0.152219
    36  H    0.160240
    37  C   -0.460456
    38  H    0.141618
    39  H    0.164492
    40  H    0.163758
    41  C   -0.464366
    42  H    0.183001
    43  H    0.097536
    44  H    0.163294
    45  N   -0.600143
    46  H    0.353185
    47  C   -0.050186
    48  H    0.208530
    49  C    0.615790
    50  C   -0.303819
    51  H    0.177064
    52  H    0.161462
    53  O   -0.502457
    54  C   -0.287893
    55  H    0.152467
    56  H    0.162062
    57  C   -0.164006
    58  H    0.163320
    59  H    0.176677
    60  N   -0.576156
    61  H    0.320894
    62  N   -0.757948
    63  H    0.344869
    64  H    0.327877
    65  N   -0.635510
    66  H    0.280089
    67  C    0.564826
    68  O   -0.537503
    69  H    0.407901
    70  H    0.430803
 Sum of Mulliken charges =   1.00000
 Mulliken charges with hydrogens summed into heavy atoms:
               1
     1  N   -0.059391
     4  C    0.059195
     6  C    0.632764
     7  C    0.041251
    10  O   -0.521034
    11  C    0.157476
    12  C    0.083097
    14  C    0.160215
    15  C    0.197630
    16  C   -0.013477
    18  N    0.122898
    20  C    0.033105
    22  C    0.015123
    24  C    0.051827
    26  N   -0.293478
    28  C    0.104770
    30  C    0.646412
    31  C    0.110405
    33  O   -0.564883
    34  C    0.022925
    37  C    0.009412
    41  C   -0.020535
    45  N   -0.246958
    47  C    0.158345
    49  C    0.615790
    50  C    0.034707
    53  O   -0.502457
    54  C    0.026635
    57  C    0.175991
    60  N   -0.255262
    62  N   -0.085202
    65  N   -0.355421
    67  C    0.564826
    68  O   -0.106700
 Electronic spatial extent (au):  <R**2>=          21244.1740
 Charge=              1.0000 electrons
 Dipole moment (field-independent basis, Debye):
    X=             11.1391    Y=              1.9062    Z=              6.3996  Tot=             12.9872
 Quadrupole moment (field-independent basis, Debye-Ang):
   XX=           -141.1807   YY=           -141.3612   ZZ=           -161.8201
   XY=              8.2776   XZ=             23.2158   YZ=            -21.0745
 Traceless Quadrupole moment (field-independent basis, Debye-Ang):
   XX=              6.9399   YY=              6.7595   ZZ=            -13.6994
   XY=              8.2776   XZ=             23.2158   YZ=            -21.0745
 Octapole moment (field-independent basis, Debye-Ang**2):
  XXX=           -998.2107  YYY=            206.9246  ZZZ=           -129.0038  XYY=           -218.1625
  XXY=            147.3149  XXZ=             91.5538  XZZ=           -342.7211  YZZ=            162.3579
  YYZ=             -2.4400  XYZ=            -58.8521
 Hexadecapole moment (field-independent basis, Debye-Ang**3):
 XXXX=         -10534.1464 YYYY=          -7049.2370 ZZZZ=          -6407.8251 XXXY=           -564.8876
 XXXZ=           1482.0521 YYYX=          -1058.6982 YYYZ=           1973.6201 ZZZX=            943.9353
 ZZZY=           2173.2591 XXYY=          -2578.9872 XXZZ=          -3202.7115 YYZZ=          -2354.0557
 XXYZ=            662.4183 YYXZ=            302.4942 ZZXY=            -69.5697
 N-N= 3.885671604380D+03 E-N=-1.142588065480D+04  KE= 1.567446709267D+03
 Unable to Open any file for archive entry.
 1\1\GINC-SKL-136\SP\RB3LYP\6-31G(d)\C23H36N7O4(1+)\KENGMITH\23-Jun-202
 2\0\\# B3LYP/6-31G* empiricaldispersion=gd3bj guess=read geom=check no
 symm integral(ultrafinegrid)\\Candidate Structure: Conf:535 Charge cal
 c in gas phase\\1,1\N,0,-2.6673302492,-2.6310520002,2.7542375186\H,0,-
 3.3406343165,-1.9430391841,2.4220286334\H,0,-2.7160927713,-3.423161815
 6,2.1132161164\C,0,-1.3147453485,-2.0868348718,2.7255717459\H,0,-1.325
 6872223,-1.1384210073,3.2781427478\C,0,-0.7805411648,-1.8689795137,1.2
 941245852\C,0,-0.3774026594,-3.0818331599,3.4508619982\H,0,-0.59297105
 13,-3.049523437,4.5228025534\H,0,-0.6277616226,-4.0871370029,3.1036353
 904\O,0,-0.5313442132,-2.8306461906,0.579865729\C,0,1.0721429112,-2.81
 89291154,3.1628807311\C,0,1.7245519408,-1.6507748838,3.2937740865\H,0,
 1.4177297462,-0.6788450547,3.6472554425\C,0,1.9885834758,-3.7935574197
 ,2.5534340327\C,0,3.2079785332,-3.1613532738,2.3048860933\C,0,1.839149
 6524,-5.13317921,2.2013143634\H,0,0.9020299183,-5.6540003864,2.3639152
 764\N,0,3.0667156059,-1.7481690239,2.6819371144\H,0,3.0256811651,-1.16
 5097911,1.7994474419\C,0,4.1404257207,-5.1277290258,1.3924445395\H,0,4
 .9684296376,-5.663595159,0.9407629161\C,0,4.2984434679,-3.7764302183,1
 .7249967497\H,0,5.2278629265,-3.2511409754,1.5303703696\C,0,2.92914429
 83,-5.7899247654,1.6250478005\H,0,2.8344024721,-6.8344281146,1.3468000
 465\N,0,-0.6649990261,-0.5549473553,0.9218905029\H,0,-0.8826320297,0.1
 218962719,1.6403774872\C,0,0.0367936432,-0.0055526179,-0.2403872642\H,
 0,-0.3834976503,0.9959044631,-0.3893841836\C,0,1.5226509131,0.12326848
 03,0.1080491482\C,0,-0.1277907851,-0.7963822805,-1.5587811264\H,0,0.26
 83627144,-1.7966173758,-1.373808867\O,0,2.212394536,-0.8711471356,0.36
 31532681\C,0,0.7176918315,-0.1607709039,-2.6855327467\H,0,1.7801171703
 ,-0.1965315667,-2.4110448545\H,0,0.6256095485,-0.8134011736,-3.5615826
 293\C,0,-1.6084229973,-0.9216340544,-1.9278485056\H,0,-2.096091836,0.0
 567410788,-2.0103394174\H,0,-1.7100315882,-1.4272046828,-2.8936934211\
 H,0,-2.1480859734,-1.513821846,-1.1849892582\C,0,0.3504775402,1.268020
 9603,-3.1017187542\H,0,1.0515145944,1.621672721,-3.8640019393\H,0,0.40
 51032812,1.9788681974,-2.2658830891\H,0,-0.6638634886,1.3268950372,-3.
 5089465617\N,0,2.0346209205,1.3755986073,0.1172573203\H,0,1.4479389642
 ,2.142419481,-0.1849985164\C,0,3.4772443991,1.6185480652,0.1687561473\
 H,0,3.9479483818,0.6743837363,-0.1264354554\C,0,3.8760823199,1.8302609
 476,1.6333587367\C,0,3.87033667,2.7160772386,-0.8209172383\H,0,3.33206
 84785,2.4919280922,-1.7482083565\H,0,3.5271872691,3.6947727174,-0.4637
 088467\O,0,3.756867191,0.9708867876,2.4883017195\C,0,5.3712367907,2.73
 95853324,-1.1239168963\H,0,5.7033819413,1.7079555789,-1.2828319534\H,0
 ,5.9356111341,3.135025545,-0.2728055578\C,0,5.7137208647,3.5762139169,
 -2.3763497285\H,0,5.6008977104,4.6429294288,-2.1605522371\H,0,6.767697
 8289,3.4228504602,-2.6338285236\N,0,4.8906076248,3.2976326007,-3.54656
 03538\H,0,4.0202041336,3.8132316863,-3.5742853325\N,0,3.6319944507,1.8
 389115944,-4.8462034832\H,0,3.6871631245,0.954404625,-5.341643877\H,0,
 3.4731053986,2.5990570475,-5.502070092\N,0,5.5793989007,1.0150426231,-
 3.891109337\H,0,6.3522338478,1.2505193385,-3.2701852357\C,0,4.78881034
 34,2.009022611,-4.065636114\O,0,4.3512384509,3.0536645918,1.8919901511
 \H,0,3.815011129,-1.3703789951,3.271027147\H,0,4.5748860008,3.09277829
 42,2.842783553\\Version=ES64L-G16RevC.01\HF=-1582.2494646\RMSD=1.567e-
 09\Dipole=0.3961237,1.7082141,2.1831652\Quadrupole=5.1596688,5.0255261
 ,-10.185195,6.1541728,17.2603998,-15.6683605\PG=C01 [X(C23H36N7O4)]\\@
 The archive entry for this job was punched.


 PICNIC:  A SNACK IN THE GRASS.
 Job cpu time:       0 days  0 hours  1 minutes 27.9 seconds.
 Elapsed time:       0 days  0 hours  0 minutes 22.6 seconds.
 File lengths (MBytes):  RWF=    296 Int=      0 D2E=      0 Chk=     40 Scr=     16
 Normal termination of Gaussian 16 at Thu Jun 23 13:11:10 2022.
