 Entering Gaussian System, Link 0=/opt/software/Gaussian/g16-AVX2-C.01/g16/g16
 Input=charge-conf-84.com
 Output=charge-conf-84.log
 Initial command:
 /opt/software/Gaussian/g16-AVX2-C.01/g16/l1.exe "/mnt/gs18/scratch/users/kengmith/Gau-12314.inp" -scrdir="/mnt/gs18/scratch/users/kengmith/"
 Entering Link 1 = /opt/software/Gaussian/g16-AVX2-C.01/g16/l1.exe PID=     12324.
  
 Copyright (c) 1988-2019, Gaussian, Inc.  All Rights Reserved.
  
 This is part of the Gaussian(R) 16 program.  It is based on
 the Gaussian(R) 09 system (copyright 2009, Gaussian, Inc.),
 the Gaussian(R) 03 system (copyright 2003, Gaussian, Inc.),
 the Gaussian(R) 98 system (copyright 1998, Gaussian, Inc.),
 the Gaussian(R) 94 system (copyright 1995, Gaussian, Inc.),
 the Gaussian 92(TM) system (copyright 1992, Gaussian, Inc.),
 the Gaussian 90(TM) system (copyright 1990, Gaussian, Inc.),
 the Gaussian 88(TM) system (copyright 1988, Gaussian, Inc.),
 the Gaussian 86(TM) system (copyright 1986, Carnegie Mellon
 University), and the Gaussian 82(TM) system (copyright 1983,
 Carnegie Mellon University). Gaussian is a federally registered
 trademark of Gaussian, Inc.
  
 This software contains proprietary and confidential information,
 including trade secrets, belonging to Gaussian, Inc.
  
 This software is provided under written license and may be
 used, copied, transmitted, or stored only in accord with that
 written license.
  
 The following legend is applicable only to US Government
 contracts under FAR:
  
                    RESTRICTED RIGHTS LEGEND
  
 Use, reproduction and disclosure by the US Government is
 subject to restrictions as set forth in subparagraphs (a)
 and (c) of the Commercial Computer Software - Restricted
 Rights clause in FAR 52.227-19.
  
 Gaussian, Inc.
 340 Quinnipiac St., Bldg. 40, Wallingford CT 06492
  
  
 ---------------------------------------------------------------
 Warning -- This program may not be used in any manner that
 competes with the business of Gaussian, Inc. or will provide
 assistance to any competitor of Gaussian, Inc.  The licensee
 of this program is prohibited from giving any competitor of
 Gaussian, Inc. access to this program.  By using this program,
 the user acknowledges that Gaussian, Inc. is engaged in the
 business of creating and licensing software in the field of
 computational chemistry and represents and warrants to the
 licensee that it is not a competitor of Gaussian, Inc. and that
 it will not use this program in any manner prohibited above.
 ---------------------------------------------------------------
  

 Cite this work as:
 Gaussian 16, Revision C.01,
 M. J. Frisch, G. W. Trucks, H. B. Schlegel, G. E. Scuseria, 
 M. A. Robb, J. R. Cheeseman, G. Scalmani, V. Barone, 
 G. A. Petersson, H. Nakatsuji, X. Li, M. Caricato, A. V. Marenich, 
 J. Bloino, B. G. Janesko, R. Gomperts, B. Mennucci, H. P. Hratchian, 
 J. V. Ortiz, A. F. Izmaylov, J. L. Sonnenberg, D. Williams-Young, 
 F. Ding, F. Lipparini, F. Egidi, J. Goings, B. Peng, A. Petrone, 
 T. Henderson, D. Ranasinghe, V. G. Zakrzewski, J. Gao, N. Rega, 
 G. Zheng, W. Liang, M. Hada, M. Ehara, K. Toyota, R. Fukuda, 
 J. Hasegawa, M. Ishida, T. Nakajima, Y. Honda, O. Kitao, H. Nakai, 
 T. Vreven, K. Throssell, J. A. Montgomery, Jr., J. E. Peralta, 
 F. Ogliaro, M. J. Bearpark, J. J. Heyd, E. N. Brothers, K. N. Kudin, 
 V. N. Staroverov, T. A. Keith, R. Kobayashi, J. Normand, 
 K. Raghavachari, A. P. Rendell, J. C. Burant, S. S. Iyengar, 
 J. Tomasi, M. Cossi, J. M. Millam, M. Klene, C. Adamo, R. Cammi, 
 J. W. Ochterski, R. L. Martin, K. Morokuma, O. Farkas, 
 J. B. Foresman, and D. J. Fox, Gaussian, Inc., Wallingford CT, 2019.
 
 ******************************************
 Gaussian 16:  ES64L-G16RevC.01  3-Jul-2019
                19-Jul-2022 
 ******************************************
 %mem=8gb
 %nproc=4
 Will use up to    4 processors via shared memory.
 %chk=conf-84.chk
 ----------------------------------------------------------------------
 # B3LYP/6-31G* empiricaldispersion=gd3bj guess=read geom=check nosymm 
 integral(ultrafinegrid)
 ----------------------------------------------------------------------
 1/29=2,38=1,172=1/1;
 2/12=2,15=1,40=1/2;
 3/5=1,6=6,7=1,11=2,14=-4,25=1,30=1,74=-5,75=-5,116=-2,124=41/1,2,3;
 4/5=1/1;
 5/5=2,38=6/2;
 6/7=2,8=2,9=2,10=2,28=1/1;
 99/5=1,9=1/99;
 -----------------------------------------------------
 Candidate Structure: Conf:84 Charge calc in gas phase
 -----------------------------------------------------
 Structure from the checkpoint file:  "conf-84.chk"
 Charge =  1 Multiplicity = 1
 Redundant internal coordinates found in file.  (old form).
 N,0,-2.5232437971,2.3384384378,-3.9083335143
 H,0,-3.0241722538,1.4523512411,-4.0014299152
 H,0,-1.770178637,2.4268496151,-4.6129459815
 H,0,-2.0395531536,2.428718078,-2.9638443054
 C,0,-3.3906999818,3.5438919994,-4.0876690385
 H,0,-3.9894931992,3.6804356274,-3.1864722705
 H,0,-4.0428448559,3.3934014891,-4.9518903929
 C,0,-2.3834982907,4.6804126834,-4.3320476661
 O,0,-1.2876587663,4.3863580043,-4.801544069
 N,0,-2.7365699937,5.9242227318,-3.9583794781
 H,0,-3.6605317979,6.1028820279,-3.588067463
 C,0,-1.7165318846,6.9755599567,-3.9195965883
 H,0,-1.2720540574,7.1157107252,-4.9056659016
 H,0,-2.1970009512,7.9072507184,-3.6118516016
 C,0,-0.5644491865,6.6158896879,-2.9583181432
 O,0,0.5808946148,6.9448043954,-3.1941286357
 N,0,-0.9552250461,5.9357163472,-1.8294326125
 H,0,-1.8970964543,5.5696106304,-1.8165559389
 C,0,-0.0096429027,5.1267260798,-1.0975032937
 H,0,-0.063322962,5.3306705469,-0.0202825354
 H,0,0.9953519284,5.3896519727,-1.4383878038
 C,0,-0.3040713042,3.6414432227,-1.3230272441
 O,0,-1.4404379188,3.2769741784,-1.7115598147
 N,0,0.6776491244,2.7955503815,-1.040970526
 H,0,1.5897986777,3.1093043606,-0.6996737067
 C,0,0.5618188216,1.3525854385,-1.0554778637
 H,0,-0.3067138197,1.0275800459,-0.4716759958
 H,0,0.442069669,0.9751089256,-2.0791265574
 C,0,1.8715224868,0.8116499897,-0.4486162552
 O,0,2.759111232,1.5939204915,-0.1099608346
 N,0,1.9424934304,-0.5195187808,-0.3407098918
 H,0,1.1946905727,-1.1502553945,-0.6266116151
 C,0,3.0938554942,-1.214076656,0.1935266015
 H,0,3.2917000708,-0.9077912516,1.2276992103
 H,0,3.9939024876,-0.9867664978,-0.3901352598
 C,0,2.7640421976,-2.711997285,0.1234975253
 O,0,1.6845063982,-3.0944404669,-0.3345257105
 N,0,3.7168507329,-3.5327534204,0.5862956405
 H,0,4.6018046608,-3.2028368589,0.9667127507
 C,0,3.5753156965,-4.9709742771,0.6029020329
 H,0,2.7000878954,-5.2716934694,1.1918896366
 H,0,3.4302740763,-5.3629510895,-0.4114173464
 C,0,4.8606077834,-5.5363353788,1.2194945296
 O,0,5.7676285726,-4.7889918162,1.5863438508
 N,0,4.9098367329,-6.8754526942,1.3210571405
 H,0,4.1551184531,-7.4856344056,1.0178068633
 C,0,6.047223644,-7.5679971612,1.879897205
 H,0,6.9587062383,-7.3499797936,1.3089602178
 H,0,6.2335592267,-7.246341823,2.9123920129
 C,0,5.7315778753,-9.0655855826,1.8335787653
 O,0,4.6678987537,-9.4809354031,1.3774992101
 N,0,6.6933340366,-9.8745122181,2.3225050367
 H,0,7.565438008,-9.516094639,2.6958451204
 C,0,6.5376314052,-11.3112906844,2.3451708556
 H,0,5.66196831,-11.6115320621,2.9333124755
 H,0,6.3876635021,-11.7153934482,1.3366887453
 C,0,7.7862451968,-11.9150806911,2.9519746399
 O,0,8.7356220673,-11.2699391037,3.3417280406
 O,0,7.7086607924,-13.2539899991,3.0035703461
 H,0,8.5397577882,-13.5754405884,3.4023215577
 Recover connectivity data from disk.
                           ----------------------------
                           !    Current Parameters    !
                           ! (Angstroms and Degrees)  !
 --------------------------                            --------------------------
 ! Name  Definition              Value                                          !
 --------------------------------------------------------------------------------
 ! R1    R(1,2)                  1.0221                                         !
 ! R2    R(1,3)                  1.0351                                         !
 ! R3    R(1,4)                  1.065                                          !
 ! R4    R(1,5)                  1.4959                                         !
 ! R5    R(5,6)                  1.0906                                         !
 ! R6    R(5,7)                  1.0931                                         !
 ! R7    R(5,8)                  1.5381                                         !
 ! R8    R(8,9)                  1.2279                                         !
 ! R9    R(8,10)                 1.3459                                         !
 ! R10   R(10,11)                1.0113                                         !
 ! R11   R(10,12)                1.4654                                         !
 ! R12   R(12,13)                1.0907                                         !
 ! R13   R(12,14)                1.0925                                         !
 ! R14   R(12,15)                1.543                                          !
 ! R15   R(15,16)                1.2147                                         !
 ! R16   R(15,17)                1.3747                                         !
 ! R17   R(17,18)                1.0106                                         !
 ! R18   R(17,19)                1.4437                                         !
 ! R19   R(19,20)                1.0977                                         !
 ! R20   R(19,21)                1.0933                                         !
 ! R21   R(19,22)                1.5309                                         !
 ! R22   R(22,23)                1.255                                          !
 ! R23   R(22,24)                1.3262                                         !
 ! R24   R(24,25)                1.0232                                         !
 ! R25   R(24,26)                1.4477                                         !
 ! R26   R(26,27)                1.0958                                         !
 ! R27   R(26,28)                1.0976                                         !
 ! R28   R(26,29)                1.5415                                         !
 ! R29   R(29,30)                1.2306                                         !
 ! R30   R(29,31)                1.3374                                         !
 ! R31   R(31,32)                1.0192                                         !
 ! R32   R(31,33)                1.4469                                         !
 ! R33   R(33,34)                1.0966                                         !
 ! R34   R(33,35)                1.0965                                         !
 ! R35   R(33,36)                1.5354                                         !
 ! R36   R(36,37)                1.2335                                         !
 ! R37   R(36,38)                1.34                                           !
 ! R38   R(38,39)                1.0182                                         !
 ! R39   R(38,40)                1.4453                                         !
 ! R40   R(40,41)                1.097                                          !
 ! R41   R(40,42)                1.0971                                         !
 ! R42   R(40,43)                1.5336                                         !
 ! R43   R(43,44)                1.2312                                         !
 ! R44   R(43,45)                1.3439                                         !
 ! R45   R(45,46)                1.0168                                         !
 ! R46   R(45,47)                1.4441                                         !
 ! R47   R(47,48)                1.0974                                         !
 ! R48   R(47,49)                1.0974                                         !
 ! R49   R(47,50)                1.5312                                         !
 ! R50   R(50,51)                1.2296                                         !
 ! R51   R(50,52)                1.3485                                         !
 ! R52   R(52,53)                1.0141                                         !
 ! R53   R(52,54)                1.4454                                         !
 ! R54   R(54,55)                1.0967                                         !
 ! R55   R(54,56)                1.0967                                         !
 ! R56   R(54,57)                1.5139                                         !
 ! R57   R(57,58)                1.2122                                         !
 ! R58   R(57,59)                1.3421                                         !
 ! R59   R(59,60)                0.9762                                         !
 ! A1    A(2,1,3)              111.6293                                         !
 ! A2    A(2,1,4)              112.1389                                         !
 ! A3    A(2,1,5)              113.7951                                         !
 ! A4    A(3,1,4)              105.4288                                         !
 ! A5    A(3,1,5)              105.7506                                         !
 ! A6    A(4,1,5)              107.5406                                         !
 ! A7    A(1,5,6)              108.6762                                         !
 ! A8    A(1,5,7)              109.257                                          !
 ! A9    A(1,5,8)              103.577                                          !
 ! A10   A(6,5,7)              110.0596                                         !
 ! A11   A(6,5,8)              113.4729                                         !
 ! A12   A(7,5,8)              111.5176                                         !
 ! A13   A(5,8,9)              117.917                                          !
 ! A14   A(5,8,10)             117.8378                                         !
 ! A15   A(9,8,10)             124.1663                                         !
 ! A16   A(8,10,11)            120.3053                                         !
 ! A17   A(8,10,12)            119.1954                                         !
 ! A18   A(11,10,12)           119.9693                                         !
 ! A19   A(10,12,13)           110.6065                                         !
 ! A20   A(10,12,14)           108.2501                                         !
 ! A21   A(10,12,15)           111.6542                                         !
 ! A22   A(13,12,14)           108.9238                                         !
 ! A23   A(13,12,15)           106.7938                                         !
 ! A24   A(14,12,15)           110.5894                                         !
 ! A25   A(12,15,16)           121.3292                                         !
 ! A26   A(12,15,17)           114.5005                                         !
 ! A27   A(16,15,17)           124.1538                                         !
 ! A28   A(15,17,18)           117.0419                                         !
 ! A29   A(15,17,19)           120.4909                                         !
 ! A30   A(18,17,19)           113.6385                                         !
 ! A31   A(17,19,20)           111.1855                                         !
 ! A32   A(17,19,21)           108.0127                                         !
 ! A33   A(17,19,22)           110.0603                                         !
 ! A34   A(20,19,21)           107.8335                                         !
 ! A35   A(20,19,22)           108.3867                                         !
 ! A36   A(21,19,22)           111.357                                          !
 ! A37   A(19,22,23)           120.0992                                         !
 ! A38   A(19,22,24)           116.4313                                         !
 ! A39   A(23,22,24)           123.4258                                         !
 ! A40   A(22,24,25)           122.3613                                         !
 ! A41   A(22,24,26)           125.0566                                         !
 ! A42   A(25,24,26)           112.3529                                         !
 ! A43   A(24,26,27)           110.7138                                         !
 ! A44   A(24,26,28)           111.1538                                         !
 ! A45   A(24,26,29)           106.1318                                         !
 ! A46   A(27,26,28)           107.9626                                         !
 ! A47   A(27,26,29)           111.0754                                         !
 ! A48   A(28,26,29)           109.8267                                         !
 ! A49   A(26,29,30)           119.8721                                         !
 ! A50   A(26,29,31)           115.2219                                         !
 ! A51   A(30,29,31)           124.9052                                         !
 ! A52   A(29,31,32)           123.6689                                         !
 ! A53   A(29,31,33)           123.3542                                         !
 ! A54   A(32,31,33)           112.9768                                         !
 ! A55   A(31,33,34)           110.9599                                         !
 ! A56   A(31,33,35)           110.9231                                         !
 ! A57   A(31,33,36)           106.2929                                         !
 ! A58   A(34,33,35)           107.2172                                         !
 ! A59   A(34,33,36)           110.7484                                         !
 ! A60   A(35,33,36)           110.7489                                         !
 ! A61   A(33,36,37)           120.4923                                         !
 ! A62   A(33,36,38)           115.4076                                         !
 ! A63   A(37,36,38)           124.1001                                         !
 ! A64   A(36,38,39)           123.269                                          !
 ! A65   A(36,38,40)           122.9457                                         !
 ! A66   A(39,38,40)           113.7826                                         !
 ! A67   A(38,40,41)           110.9223                                         !
 ! A68   A(38,40,42)           110.9702                                         !
 ! A69   A(38,40,43)           106.8225                                         !
 ! A70   A(41,40,42)           107.0373                                         !
 ! A71   A(41,40,43)           110.5944                                         !
 ! A72   A(42,40,43)           110.5381                                         !
 ! A73   A(40,43,44)           120.8951                                         !
 ! A74   A(40,43,45)           115.369                                          !
 ! A75   A(44,43,45)           123.736                                          !
 ! A76   A(43,45,46)           123.247                                          !
 ! A77   A(43,45,47)           122.4086                                         !
 ! A78   A(46,45,47)           114.3439                                         !
 ! A79   A(45,47,48)           110.9501                                         !
 ! A80   A(45,47,49)           110.932                                          !
 ! A81   A(45,47,50)           107.1555                                         !
 ! A82   A(48,47,49)           106.8721                                         !
 ! A83   A(48,47,50)           110.4743                                         !
 ! A84   A(49,47,50)           110.4963                                         !
 ! A85   A(47,50,51)           121.3271                                         !
 ! A86   A(47,50,52)           115.3866                                         !
 ! A87   A(51,50,52)           123.2863                                         !
 ! A88   A(50,52,53)           122.3311                                         !
 ! A89   A(50,52,54)           121.6798                                         !
 ! A90   A(53,52,54)           115.989                                          !
 ! A91   A(52,54,55)           111.503                                          !
 ! A92   A(52,54,56)           111.5049                                         !
 ! A93   A(52,54,57)           108.2946                                         !
 ! A94   A(55,54,56)           106.4432                                         !
 ! A95   A(55,54,57)           109.5354                                         !
 ! A96   A(56,54,57)           109.5361                                         !
 ! A97   A(54,57,58)           124.2336                                         !
 ! A98   A(54,57,59)           111.445                                          !
 ! A99   A(58,57,59)           124.3214                                         !
 ! A100  A(57,59,60)           107.1556                                         !
 ! D1    D(2,1,5,6)             75.6742                                         !
 ! D2    D(2,1,5,7)            -44.4323                                         !
 ! D3    D(2,1,5,8)           -163.3835                                         !
 ! D4    D(3,1,5,6)           -161.4428                                         !
 ! D5    D(3,1,5,7)             78.4507                                         !
 ! D6    D(3,1,5,8)            -40.5005                                         !
 ! D7    D(4,1,5,6)            -49.1682                                         !
 ! D8    D(4,1,5,7)           -169.2748                                         !
 ! D9    D(4,1,5,8)             71.774                                          !
 ! D10   D(1,5,8,9)             25.6082                                         !
 ! D11   D(1,5,8,10)          -151.2976                                         !
 ! D12   D(6,5,8,9)            143.2548                                         !
 ! D13   D(6,5,8,10)           -33.6511                                         !
 ! D14   D(7,5,8,9)            -91.7738                                         !
 ! D15   D(7,5,8,10)            91.3203                                         !
 ! D16   D(5,8,10,11)           -4.0381                                         !
 ! D17   D(5,8,10,12)          167.6103                                         !
 ! D18   D(9,8,10,11)          179.2665                                         !
 ! D19   D(9,8,10,12)           -9.0851                                         !
 ! D20   D(8,10,12,13)          59.8141                                         !
 ! D21   D(8,10,12,14)         179.0771                                         !
 ! D22   D(8,10,12,15)         -58.9627                                         !
 ! D23   D(11,10,12,13)       -128.5089                                         !
 ! D24   D(11,10,12,14)         -9.2459                                         !
 ! D25   D(11,10,12,15)        112.7144                                         !
 ! D26   D(10,12,15,16)        145.412                                          !
 ! D27   D(10,12,15,17)        -36.0065                                         !
 ! D28   D(13,12,15,16)         24.3903                                         !
 ! D29   D(13,12,15,17)       -157.0282                                         !
 ! D30   D(14,12,15,16)        -93.9853                                         !
 ! D31   D(14,12,15,17)         84.5962                                         !
 ! D32   D(12,15,17,18)         12.2416                                         !
 ! D33   D(12,15,17,19)        157.6274                                         !
 ! D34   D(16,15,17,18)       -169.2226                                         !
 ! D35   D(16,15,17,19)        -23.8368                                         !
 ! D36   D(15,17,19,20)        132.6636                                         !
 ! D37   D(15,17,19,21)         14.538                                          !
 ! D38   D(15,17,19,22)       -107.2257                                         !
 ! D39   D(18,17,19,20)        -80.8604                                         !
 ! D40   D(18,17,19,21)        161.014                                          !
 ! D41   D(18,17,19,22)         39.2503                                         !
 ! D42   D(17,19,22,23)        -20.8861                                         !
 ! D43   D(17,19,22,24)        161.4358                                         !
 ! D44   D(20,19,22,23)        100.9039                                         !
 ! D45   D(20,19,22,24)        -76.7743                                         !
 ! D46   D(21,19,22,23)       -140.639                                          !
 ! D47   D(21,19,22,24)         41.6828                                         !
 ! D48   D(19,22,24,25)         -0.616                                          !
 ! D49   D(19,22,24,26)        173.4571                                         !
 ! D50   D(23,22,24,25)       -178.2091                                         !
 ! D51   D(23,22,24,26)         -4.136                                          !
 ! D52   D(22,24,26,27)        -50.4645                                         !
 ! D53   D(22,24,26,28)         69.5258                                         !
 ! D54   D(22,24,26,29)       -171.1002                                         !
 ! D55   D(25,24,26,27)        124.124                                          !
 ! D56   D(25,24,26,28)       -115.8858                                         !
 ! D57   D(25,24,26,29)          3.4882                                         !
 ! D58   D(24,26,29,30)         -2.0756                                         !
 ! D59   D(24,26,29,31)        178.239                                          !
 ! D60   D(27,26,29,30)       -122.4772                                         !
 ! D61   D(27,26,29,31)         57.8374                                         !
 ! D62   D(28,26,29,30)        118.1641                                         !
 ! D63   D(28,26,29,31)        -61.5212                                         !
 ! D64   D(26,29,31,32)         -0.3985                                         !
 ! D65   D(26,29,31,33)        179.4852                                         !
 ! D66   D(30,29,31,32)        179.9342                                         !
 ! D67   D(30,29,31,33)         -0.1821                                         !
 ! D68   D(29,31,33,34)         60.084                                          !
 ! D69   D(29,31,33,35)        -58.9807                                         !
 ! D70   D(29,31,33,36)       -179.4383                                         !
 ! D71   D(32,31,33,34)       -120.0211                                         !
 ! D72   D(32,31,33,35)        120.9142                                         !
 ! D73   D(32,31,33,36)          0.4566                                         !
 ! D74   D(31,33,36,37)          0.3792                                         !
 ! D75   D(31,33,36,38)       -179.6244                                         !
 ! D76   D(34,33,36,37)        120.9935                                         !
 ! D77   D(34,33,36,38)        -59.0102                                         !
 ! D78   D(35,33,36,37)       -120.1908                                         !
 ! D79   D(35,33,36,38)         59.8055                                         !
 ! D80   D(33,36,38,39)          0.3592                                         !
 ! D81   D(33,36,38,40)        179.7233                                         !
 ! D82   D(37,36,38,39)       -179.6446                                         !
 ! D83   D(37,36,38,40)         -0.2806                                         !
 ! D84   D(36,38,40,41)        -58.619                                          !
 ! D85   D(36,38,40,42)         60.2266                                         !
 ! D86   D(36,38,40,43)       -179.2167                                         !
 ! D87   D(39,38,40,41)        120.7999                                         !
 ! D88   D(39,38,40,42)       -120.3545                                         !
 ! D89   D(39,38,40,43)          0.2023                                         !
 ! D90   D(38,40,43,44)         -0.1832                                         !
 ! D91   D(38,40,43,45)        179.8392                                         !
 ! D92   D(41,40,43,44)       -120.9901                                         !
 ! D93   D(41,40,43,45)         59.0323                                         !
 ! D94   D(42,40,43,44)        120.6493                                         !
 ! D95   D(42,40,43,45)        -59.3282                                         !
 ! D96   D(40,43,45,46)         -0.188                                          !
 ! D97   D(40,43,45,47)       -179.9219                                         !
 ! D98   D(44,43,45,46)        179.8351                                         !
 ! D99   D(44,43,45,47)          0.1013                                         !
 ! D100  D(43,45,47,48)        -59.6409                                         !
 ! D101  D(43,45,47,49)         58.9914                                         !
 ! D102  D(43,45,47,50)        179.6833                                         !
 ! D103  D(46,45,47,48)        120.6033                                         !
 ! D104  D(46,45,47,49)       -120.7643                                         !
 ! D105  D(46,45,47,50)         -0.0724                                         !
 ! D106  D(45,47,50,51)          0.0933                                         !
 ! D107  D(45,47,50,52)       -179.9142                                         !
 ! D108  D(48,47,50,51)       -120.8839                                         !
 ! D109  D(48,47,50,52)         59.1086                                         !
 ! D110  D(49,47,50,51)        121.0613                                         !
 ! D111  D(49,47,50,52)        -58.9462                                         !
 ! D112  D(47,50,52,53)          0.0416                                         !
 ! D113  D(47,50,52,54)        179.9864                                         !
 ! D114  D(51,50,52,53)       -179.9661                                         !
 ! D115  D(51,50,52,54)         -0.0213                                         !
 ! D116  D(50,52,54,55)        -59.3789                                         !
 ! D117  D(50,52,54,56)         59.4525                                         !
 ! D118  D(50,52,54,57)       -179.9623                                         !
 ! D119  D(53,52,54,55)        120.5692                                         !
 ! D120  D(53,52,54,56)       -120.5994                                         !
 ! D121  D(53,52,54,57)         -0.0142                                         !
 ! D122  D(52,54,57,58)          0.0096                                         !
 ! D123  D(52,54,57,59)       -179.9911                                         !
 ! D124  D(55,54,57,58)       -121.7902                                         !
 ! D125  D(55,54,57,59)         58.2091                                         !
 ! D126  D(56,54,57,58)        121.812                                          !
 ! D127  D(56,54,57,59)        -58.1887                                         !
 ! D128  D(54,57,59,60)       -179.996                                          !
 ! D129  D(58,57,59,60)          0.0033                                         !
 --------------------------------------------------------------------------------
 Symmetry turned off by external request.
 Stoichiometry    C16H27N8O9(1+)
 Framework group  C1[X(C16H27N8O9)]
 Deg. of freedom   174
 Full point group                 C1      NOp   1
                          Input orientation:                          
 ---------------------------------------------------------------------
 Center     Atomic      Atomic             Coordinates (Angstroms)
 Number     Number       Type             X           Y           Z
 ---------------------------------------------------------------------
      1          7           0       -2.523244    2.338438   -3.908334
      2          1           0       -3.024172    1.452351   -4.001430
      3          1           0       -1.770179    2.426850   -4.612946
      4          1           0       -2.039553    2.428718   -2.963844
      5          6           0       -3.390700    3.543892   -4.087669
      6          1           0       -3.989493    3.680436   -3.186472
      7          1           0       -4.042845    3.393401   -4.951890
      8          6           0       -2.383498    4.680413   -4.332048
      9          8           0       -1.287659    4.386358   -4.801544
     10          7           0       -2.736570    5.924223   -3.958379
     11          1           0       -3.660532    6.102882   -3.588067
     12          6           0       -1.716532    6.975560   -3.919597
     13          1           0       -1.272054    7.115711   -4.905666
     14          1           0       -2.197001    7.907251   -3.611852
     15          6           0       -0.564449    6.615890   -2.958318
     16          8           0        0.580895    6.944804   -3.194129
     17          7           0       -0.955225    5.935716   -1.829433
     18          1           0       -1.897096    5.569611   -1.816556
     19          6           0       -0.009643    5.126726   -1.097503
     20          1           0       -0.063323    5.330671   -0.020283
     21          1           0        0.995352    5.389652   -1.438388
     22          6           0       -0.304071    3.641443   -1.323027
     23          8           0       -1.440438    3.276974   -1.711560
     24          7           0        0.677649    2.795550   -1.040971
     25          1           0        1.589799    3.109304   -0.699674
     26          6           0        0.561819    1.352585   -1.055478
     27          1           0       -0.306714    1.027580   -0.471676
     28          1           0        0.442070    0.975109   -2.079127
     29          6           0        1.871522    0.811650   -0.448616
     30          8           0        2.759111    1.593920   -0.109961
     31          7           0        1.942493   -0.519519   -0.340710
     32          1           0        1.194691   -1.150255   -0.626612
     33          6           0        3.093855   -1.214077    0.193527
     34          1           0        3.291700   -0.907791    1.227699
     35          1           0        3.993902   -0.986766   -0.390135
     36          6           0        2.764042   -2.711997    0.123498
     37          8           0        1.684506   -3.094440   -0.334526
     38          7           0        3.716851   -3.532753    0.586296
     39          1           0        4.601805   -3.202837    0.966713
     40          6           0        3.575316   -4.970974    0.602902
     41          1           0        2.700088   -5.271693    1.191890
     42          1           0        3.430274   -5.362951   -0.411417
     43          6           0        4.860608   -5.536335    1.219495
     44          8           0        5.767629   -4.788992    1.586344
     45          7           0        4.909837   -6.875453    1.321057
     46          1           0        4.155118   -7.485634    1.017807
     47          6           0        6.047224   -7.567997    1.879897
     48          1           0        6.958706   -7.349980    1.308960
     49          1           0        6.233559   -7.246342    2.912392
     50          6           0        5.731578   -9.065586    1.833579
     51          8           0        4.667899   -9.480935    1.377499
     52          7           0        6.693334   -9.874512    2.322505
     53          1           0        7.565438   -9.516095    2.695845
     54          6           0        6.537631  -11.311291    2.345171
     55          1           0        5.661968  -11.611532    2.933312
     56          1           0        6.387664  -11.715393    1.336689
     57          6           0        7.786245  -11.915081    2.951975
     58          8           0        8.735622  -11.269939    3.341728
     59          8           0        7.708661  -13.253990    3.003570
     60          1           0        8.539758  -13.575441    3.402322
 ---------------------------------------------------------------------
 Rotational constants (GHZ):           0.5136081           0.0189894           0.0185219
 Standard basis: 6-31G(d) (6D, 7F)
   549 basis functions,  1032 primitive gaussians,   549 cartesian basis functions
   125 alpha electrons      125 beta electrons
       nuclear repulsion energy      3087.3562266402 Hartrees.
 NAtoms=   60 NActive=   60 NUniq=   60 SFac= 1.00D+00 NAtFMM=   60 NAOKFM=T Big=T
 Integral buffers will be    131072 words long.
 Raffenetti 2 integral format.
 Two-electron integral symmetry is turned off.
 Nuclear repulsion after empirical dispersion term =     3087.2466388818 Hartrees.
 One-electron integrals computed using PRISM.
 NBasis=   549 RedAO= T EigKep=  1.86D-03  NBF=   549
 NBsUse=   549 1.00D-06 EigRej= -1.00D+00 NBFU=   549
 Initial guess from the checkpoint file:  "conf-84.chk"
 B after Tr=     0.000000    0.000000    0.000000
         Rot=    1.000000    0.000000    0.000000    0.000000 Ang=   0.00 deg.
 Requested convergence on RMS density matrix=1.00D-08 within 128 cycles.
 Requested convergence on MAX density matrix=1.00D-06.
 Requested convergence on             energy=1.00D-06.
 No special actions if energy rises.
 SCF Done:  E(RB3LYP) =  -1741.01457505     A.U. after    2 cycles
            NFock=  2  Conv=0.77D-08     -V/T= 2.0091

 **********************************************************************

            Population analysis using the SCF Density.

 **********************************************************************

 Alpha  occ. eigenvalues --  -19.27010 -19.26664 -19.26058 -19.21720 -19.21711
 Alpha  occ. eigenvalues --  -19.21301 -19.19895 -19.18782 -19.18719 -14.59095
 Alpha  occ. eigenvalues --  -14.51272 -14.48695 -14.46315 -14.45360 -14.43629
 Alpha  occ. eigenvalues --  -14.43045 -14.42776 -10.44427 -10.42229 -10.40847
 Alpha  occ. eigenvalues --  -10.39466 -10.39252 -10.39088 -10.37101 -10.36035
 Alpha  occ. eigenvalues --  -10.35971 -10.34765 -10.34739 -10.33986 -10.31547
 Alpha  occ. eigenvalues --  -10.30335 -10.30305 -10.29851  -1.19748  -1.17812
 Alpha  occ. eigenvalues --   -1.17029  -1.14016  -1.13852  -1.13368  -1.11897
 Alpha  occ. eigenvalues --   -1.11087  -1.10342  -1.08952  -1.07300  -1.05119
 Alpha  occ. eigenvalues --   -1.02869  -1.01967  -1.00226  -0.99686  -0.99182
 Alpha  occ. eigenvalues --   -0.90584  -0.87901  -0.85279  -0.84261  -0.83103
 Alpha  occ. eigenvalues --   -0.81294  -0.79408  -0.76531  -0.74765  -0.74049
 Alpha  occ. eigenvalues --   -0.73248  -0.71146  -0.69293  -0.68847  -0.68591
 Alpha  occ. eigenvalues --   -0.67065  -0.66858  -0.66227  -0.66142  -0.65300
 Alpha  occ. eigenvalues --   -0.63555  -0.62938  -0.61290  -0.60982  -0.59875
 Alpha  occ. eigenvalues --   -0.59673  -0.59016  -0.58288  -0.57119  -0.56453
 Alpha  occ. eigenvalues --   -0.56199  -0.55932  -0.55804  -0.55744  -0.55132
 Alpha  occ. eigenvalues --   -0.54970  -0.54465  -0.54309  -0.53975  -0.53706
 Alpha  occ. eigenvalues --   -0.53092  -0.52738  -0.52419  -0.52126  -0.51235
 Alpha  occ. eigenvalues --   -0.50503  -0.50182  -0.49246  -0.49083  -0.48419
 Alpha  occ. eigenvalues --   -0.47476  -0.47255  -0.46717  -0.46600  -0.45825
 Alpha  occ. eigenvalues --   -0.45532  -0.45111  -0.43504  -0.41976  -0.41617
 Alpha  occ. eigenvalues --   -0.41118  -0.40548  -0.39165  -0.38913  -0.36452
 Alpha  occ. eigenvalues --   -0.36071  -0.35405  -0.35316  -0.35126  -0.34456
 Alpha  occ. eigenvalues --   -0.33735  -0.33422  -0.32900  -0.32304  -0.31661
 Alpha virt. eigenvalues --   -0.13574  -0.10900  -0.09494  -0.08411  -0.07263
 Alpha virt. eigenvalues --   -0.06385  -0.05944  -0.05421  -0.04531  -0.03642
 Alpha virt. eigenvalues --   -0.03539  -0.02103  -0.01402  -0.00568   0.00078
 Alpha virt. eigenvalues --    0.01404   0.01554   0.01913   0.02138   0.03014
 Alpha virt. eigenvalues --    0.03025   0.03414   0.03751   0.04149   0.04855
 Alpha virt. eigenvalues --    0.05312   0.05479   0.05828   0.06725   0.06882
 Alpha virt. eigenvalues --    0.07457   0.07543   0.08018   0.08983   0.09774
 Alpha virt. eigenvalues --    0.09870   0.10582   0.11180   0.11564   0.12090
 Alpha virt. eigenvalues --    0.12795   0.13350   0.13634   0.14227   0.14275
 Alpha virt. eigenvalues --    0.14693   0.16264   0.16792   0.18229   0.19034
 Alpha virt. eigenvalues --    0.20812   0.21497   0.22312   0.22577   0.23715
 Alpha virt. eigenvalues --    0.24829   0.25210   0.25916   0.27174   0.27703
 Alpha virt. eigenvalues --    0.28082   0.29236   0.29438   0.30553   0.32455
 Alpha virt. eigenvalues --    0.34431   0.34559   0.36715   0.36917   0.37694
 Alpha virt. eigenvalues --    0.41236   0.41818   0.42343   0.42695   0.43415
 Alpha virt. eigenvalues --    0.43495   0.43962   0.44904   0.45718   0.46129
 Alpha virt. eigenvalues --    0.46256   0.46754   0.46977   0.47246   0.47315
 Alpha virt. eigenvalues --    0.48036   0.48185   0.48531   0.48998   0.49527
 Alpha virt. eigenvalues --    0.50092   0.50576   0.50924   0.51943   0.52320
 Alpha virt. eigenvalues --    0.52756   0.52842   0.54748   0.55671   0.56935
 Alpha virt. eigenvalues --    0.57505   0.57929   0.58758   0.58993   0.59490
 Alpha virt. eigenvalues --    0.59943   0.60635   0.60908   0.61935   0.62370
 Alpha virt. eigenvalues --    0.62856   0.63223   0.63454   0.64074   0.65060
 Alpha virt. eigenvalues --    0.66182   0.66322   0.66587   0.67110   0.67509
 Alpha virt. eigenvalues --    0.68711   0.69006   0.70152   0.70369   0.70816
 Alpha virt. eigenvalues --    0.71302   0.72097   0.72397   0.72660   0.72773
 Alpha virt. eigenvalues --    0.73278   0.73553   0.73746   0.74586   0.74838
 Alpha virt. eigenvalues --    0.75305   0.75687   0.75879   0.75945   0.76167
 Alpha virt. eigenvalues --    0.76607   0.77119   0.77253   0.77375   0.77823
 Alpha virt. eigenvalues --    0.78269   0.78837   0.79199   0.79448   0.80015
 Alpha virt. eigenvalues --    0.80587   0.80905   0.81726   0.81921   0.82499
 Alpha virt. eigenvalues --    0.83552   0.83664   0.84507   0.84617   0.84960
 Alpha virt. eigenvalues --    0.85324   0.85845   0.86420   0.86781   0.86813
 Alpha virt. eigenvalues --    0.87743   0.88062   0.88527   0.90393   0.90540
 Alpha virt. eigenvalues --    0.92203   0.93109   0.94465   0.96344   0.97141
 Alpha virt. eigenvalues --    0.97583   0.98031   0.98770   0.99159   0.99870
 Alpha virt. eigenvalues --    1.00541   1.00711   1.01868   1.02185   1.03938
 Alpha virt. eigenvalues --    1.04908   1.05809   1.07169   1.07467   1.10630
 Alpha virt. eigenvalues --    1.11372   1.12973   1.13706   1.15334   1.16367
 Alpha virt. eigenvalues --    1.17891   1.18744   1.19776   1.20725   1.21433
 Alpha virt. eigenvalues --    1.22060   1.22981   1.23182   1.23493   1.23532
 Alpha virt. eigenvalues --    1.23865   1.24537   1.24731   1.25200   1.25685
 Alpha virt. eigenvalues --    1.26478   1.28005   1.29124   1.32379   1.32973
 Alpha virt. eigenvalues --    1.33493   1.34661   1.35098   1.35985   1.36502
 Alpha virt. eigenvalues --    1.36834   1.37265   1.38322   1.38577   1.38943
 Alpha virt. eigenvalues --    1.40850   1.42718   1.44518   1.45569   1.46568
 Alpha virt. eigenvalues --    1.49076   1.51841   1.52767   1.53218   1.55715
 Alpha virt. eigenvalues --    1.56136   1.57184   1.59797   1.60422   1.61538
 Alpha virt. eigenvalues --    1.62248   1.62715   1.64048   1.64578   1.64732
 Alpha virt. eigenvalues --    1.65394   1.66417   1.66759   1.67192   1.67460
 Alpha virt. eigenvalues --    1.67726   1.68357   1.68401   1.68605   1.69284
 Alpha virt. eigenvalues --    1.69519   1.70066   1.70284   1.70796   1.72367
 Alpha virt. eigenvalues --    1.73022   1.74596   1.75082   1.75896   1.77054
 Alpha virt. eigenvalues --    1.77386   1.77711   1.77978   1.78723   1.78958
 Alpha virt. eigenvalues --    1.79021   1.79466   1.80092   1.80195   1.81525
 Alpha virt. eigenvalues --    1.81624   1.82294   1.83306   1.83504   1.83744
 Alpha virt. eigenvalues --    1.84291   1.85058   1.85639   1.86248   1.86481
 Alpha virt. eigenvalues --    1.86532   1.87415   1.88255   1.89163   1.91301
 Alpha virt. eigenvalues --    1.91661   1.92135   1.92481   1.93537   1.94782
 Alpha virt. eigenvalues --    1.95647   1.97055   1.98163   1.98447   1.99512
 Alpha virt. eigenvalues --    1.99650   2.00725   2.01265   2.01938   2.02175
 Alpha virt. eigenvalues --    2.02713   2.03364   2.03777   2.03790   2.05319
 Alpha virt. eigenvalues --    2.08207   2.10104   2.12316   2.13941   2.15142
 Alpha virt. eigenvalues --    2.16080   2.16413   2.17180   2.17855   2.19685
 Alpha virt. eigenvalues --    2.19934   2.20634   2.22592   2.22665   2.23730
 Alpha virt. eigenvalues --    2.24143   2.25649   2.26005   2.27196   2.28311
 Alpha virt. eigenvalues --    2.28987   2.29550   2.31552   2.32175   2.32878
 Alpha virt. eigenvalues --    2.35059   2.35239   2.35381   2.36415   2.37899
 Alpha virt. eigenvalues --    2.39900   2.41828   2.42331   2.42422   2.43128
 Alpha virt. eigenvalues --    2.44452   2.45671   2.46149   2.46974   2.49366
 Alpha virt. eigenvalues --    2.51236   2.51465   2.54861   2.56173   2.56469
 Alpha virt. eigenvalues --    2.57424   2.59364   2.59691   2.61298   2.62045
 Alpha virt. eigenvalues --    2.63104   2.63378   2.65442   2.67292   2.68036
 Alpha virt. eigenvalues --    2.70732   2.72581   2.73936   2.76218   2.76906
 Alpha virt. eigenvalues --    2.79568   2.80946   2.82261   2.84219   2.84899
 Alpha virt. eigenvalues --    2.86524   2.86941   2.88770   2.89126   2.89942
 Alpha virt. eigenvalues --    2.91351   2.92911   2.95027   2.99735   3.01814
 Alpha virt. eigenvalues --    3.02326   3.05048   3.09989   3.13154   3.15241
 Alpha virt. eigenvalues --    3.16277   3.68813   3.78410   3.81966   3.85504
 Alpha virt. eigenvalues --    3.88488   3.92094   3.92494   3.93615   3.94216
 Alpha virt. eigenvalues --    3.95062   3.98029   4.00387   4.02487   4.02981
 Alpha virt. eigenvalues --    4.03469   4.06779   4.07838   4.13589   4.15017
 Alpha virt. eigenvalues --    4.16246   4.18963   4.20601   4.21941   4.22358
 Alpha virt. eigenvalues --    4.23633   4.31197   4.37724   4.39996   4.41941
 Alpha virt. eigenvalues --    4.44806   4.48026   4.48876   4.51405
          Condensed to atoms (all electrons):
 Mulliken charges:
               1
     1  N   -0.752265
     2  H    0.406207
     3  H    0.418312
     4  H    0.446270
     5  C   -0.278663
     6  H    0.225612
     7  H    0.241706
     8  C    0.646069
     9  O   -0.498969
    10  N   -0.610847
    11  H    0.355920
    12  C   -0.233456
    13  H    0.233649
    14  H    0.208195
    15  C    0.596214
    16  O   -0.467753
    17  N   -0.565113
    18  H    0.322871
    19  C   -0.242961
    20  H    0.209844
    21  H    0.229281
    22  C    0.640048
    23  O   -0.618198
    24  N   -0.584562
    25  H    0.386121
    26  C   -0.212715
    27  H    0.199182
    28  H    0.177585
    29  C    0.620245
    30  O   -0.521218
    31  N   -0.623227
    32  H    0.360099
    33  C   -0.198250
    34  H    0.202259
    35  H    0.202517
    36  C    0.611803
    37  O   -0.540229
    38  N   -0.622315
    39  H    0.365803
    40  C   -0.194518
    41  H    0.195934
    42  H    0.195240
    43  C    0.610165
    44  O   -0.531363
    45  N   -0.624550
    46  H    0.362464
    47  C   -0.193115
    48  H    0.196478
    49  H    0.196580
    50  C    0.609915
    51  O   -0.526682
    52  N   -0.625938
    53  H    0.361204
    54  C   -0.177257
    55  H    0.212525
    56  H    0.212453
    57  C    0.569419
    58  O   -0.456708
    59  O   -0.554475
    60  H    0.427157
 Sum of Mulliken charges =   1.00000
 Mulliken charges with hydrogens summed into heavy atoms:
               1
     1  N    0.518524
     5  C    0.188654
     8  C    0.646069
     9  O   -0.498969
    10  N   -0.254927
    12  C    0.208388
    15  C    0.596214
    16  O   -0.467753
    17  N   -0.242243
    19  C    0.196164
    22  C    0.640048
    23  O   -0.618198
    24  N   -0.198441
    26  C    0.164052
    29  C    0.620245
    30  O   -0.521218
    31  N   -0.263128
    33  C    0.206526
    36  C    0.611803
    37  O   -0.540229
    38  N   -0.256512
    40  C    0.196657
    43  C    0.610165
    44  O   -0.531363
    45  N   -0.262086
    47  C    0.199943
    50  C    0.609915
    51  O   -0.526682
    52  N   -0.264733
    54  C    0.247721
    57  C    0.569419
    58  O   -0.456708
    59  O   -0.127317
 Electronic spatial extent (au):  <R**2>=          58990.8390
 Charge=              1.0000 electrons
 Dipole moment (field-independent basis, Debye):
    X=             -6.7562    Y=              2.2072    Z=            -10.0126  Tot=             12.2789
 Quadrupole moment (field-independent basis, Debye-Ang):
   XX=           -104.8004   YY=            -21.9510   ZZ=           -132.6727
   XY=           -136.5841   XZ=             67.1871   YZ=            -65.0648
 Traceless Quadrupole moment (field-independent basis, Debye-Ang):
   XX=            -18.3257   YY=             64.5237   ZZ=            -46.1980
   XY=           -136.5841   XZ=             67.1871   YZ=            -65.0648
 Octapole moment (field-independent basis, Debye-Ang**2):
  XXX=          -1142.0216  YYY=           -317.8767  ZZZ=            116.3815  XYY=            288.5530
  XXY=           -165.9079  XXZ=             22.3073  XZZ=           -582.4548  YZZ=            306.8066
  YYZ=            343.5038  XYZ=            -16.5562
 Hexadecapole moment (field-independent basis, Debye-Ang**3):
 XXXX=         -16923.8584 YYYY=         -26006.0279 ZZZZ=          -5902.9184 XXXY=           8095.9162
 XXXZ=          -2579.0462 YYYX=          -2073.0395 YYYZ=            947.2155 ZZZX=          -2764.6979
 ZZZY=           6352.3657 XXYY=          -2026.6398 XXZZ=          -3354.1271 YYZZ=          -7074.8605
 XXYZ=            128.7663 YYXZ=           3003.3895 ZZXY=           2880.6047
 N-N= 3.087246638882D+03 E-N=-1.021920807763D+04  KE= 1.725261332248D+03
 Unable to Open any file for archive entry.
 1\1\GINC-SKL-132\SP\RB3LYP\6-31G(d)\C16H27N8O9(1+)\KENGMITH\19-Jul-202
 2\0\\# B3LYP/6-31G* empiricaldispersion=gd3bj guess=read geom=check no
 symm integral(ultrafinegrid)\\Candidate Structure: Conf:84 Charge calc
  in gas phase\\1,1\N,0,-2.5232437971,2.3384384378,-3.9083335143\H,0,-3
 .0241722538,1.4523512411,-4.0014299152\H,0,-1.770178637,2.4268496151,-
 4.6129459815\H,0,-2.0395531536,2.428718078,-2.9638443054\C,0,-3.390699
 9818,3.5438919994,-4.0876690385\H,0,-3.9894931992,3.6804356274,-3.1864
 722705\H,0,-4.0428448559,3.3934014891,-4.9518903929\C,0,-2.3834982907,
 4.6804126834,-4.3320476661\O,0,-1.2876587663,4.3863580043,-4.801544069
 \N,0,-2.7365699937,5.9242227318,-3.9583794781\H,0,-3.6605317979,6.1028
 820279,-3.588067463\C,0,-1.7165318846,6.9755599567,-3.9195965883\H,0,-
 1.2720540574,7.1157107252,-4.9056659016\H,0,-2.1970009512,7.9072507184
 ,-3.6118516016\C,0,-0.5644491865,6.6158896879,-2.9583181432\O,0,0.5808
 946148,6.9448043954,-3.1941286357\N,0,-0.9552250461,5.9357163472,-1.82
 94326125\H,0,-1.8970964543,5.5696106304,-1.8165559389\C,0,-0.009642902
 7,5.1267260798,-1.0975032937\H,0,-0.063322962,5.3306705469,-0.02028253
 54\H,0,0.9953519284,5.3896519727,-1.4383878038\C,0,-0.3040713042,3.641
 4432227,-1.3230272441\O,0,-1.4404379188,3.2769741784,-1.7115598147\N,0
 ,0.6776491244,2.7955503815,-1.040970526\H,0,1.5897986777,3.1093043606,
 -0.6996737067\C,0,0.5618188216,1.3525854385,-1.0554778637\H,0,-0.30671
 38197,1.0275800459,-0.4716759958\H,0,0.442069669,0.9751089256,-2.07912
 65574\C,0,1.8715224868,0.8116499897,-0.4486162552\O,0,2.759111232,1.59
 39204915,-0.1099608346\N,0,1.9424934304,-0.5195187808,-0.3407098918\H,
 0,1.1946905727,-1.1502553945,-0.6266116151\C,0,3.0938554942,-1.2140766
 56,0.1935266015\H,0,3.2917000708,-0.9077912516,1.2276992103\H,0,3.9939
 024876,-0.9867664978,-0.3901352598\C,0,2.7640421976,-2.711997285,0.123
 4975253\O,0,1.6845063982,-3.0944404669,-0.3345257105\N,0,3.7168507329,
 -3.5327534204,0.5862956405\H,0,4.6018046608,-3.2028368589,0.9667127507
 \C,0,3.5753156965,-4.9709742771,0.6029020329\H,0,2.7000878954,-5.27169
 34694,1.1918896366\H,0,3.4302740763,-5.3629510895,-0.4114173464\C,0,4.
 8606077834,-5.5363353788,1.2194945296\O,0,5.7676285726,-4.7889918162,1
 .5863438508\N,0,4.9098367329,-6.8754526942,1.3210571405\H,0,4.15511845
 31,-7.4856344056,1.0178068633\C,0,6.047223644,-7.5679971612,1.87989720
 5\H,0,6.9587062383,-7.3499797936,1.3089602178\H,0,6.2335592267,-7.2463
 41823,2.9123920129\C,0,5.7315778753,-9.0655855826,1.8335787653\O,0,4.6
 678987537,-9.4809354031,1.3774992101\N,0,6.6933340366,-9.8745122181,2.
 3225050367\H,0,7.565438008,-9.516094639,2.6958451204\C,0,6.5376314052,
 -11.3112906844,2.3451708556\H,0,5.66196831,-11.6115320621,2.9333124755
 \H,0,6.3876635021,-11.7153934482,1.3366887453\C,0,7.7862451968,-11.915
 0806911,2.9519746399\O,0,8.7356220673,-11.2699391037,3.3417280406\O,0,
 7.7086607924,-13.2539899991,3.0035703461\H,0,8.5397577882,-13.57544058
 84,3.4023215577\\Version=ES64L-G16RevC.01\HF=-1741.0145751\RMSD=7.746e
 -09\Dipole=-6.9173425,3.811338,-3.0065111\Quadrupole=-13.6246969,47.97
 17949,-34.3470981,-101.5469324,49.9519832,-48.374079\PG=C01 [X(C16H27N
 8O9)]\\@
 The archive entry for this job was punched.


 SCIENCE AND PEACE WILL TRIUMPH OVER IGNORANCE AND WAR

                          -- PASTEUR
 Job cpu time:       0 days  0 hours  1 minutes  4.2 seconds.
 Elapsed time:       0 days  0 hours  0 minutes 16.8 seconds.
 File lengths (MBytes):  RWF=    272 Int=      0 D2E=      0 Chk=     40 Scr=     16
 Normal termination of Gaussian 16 at Tue Jul 19 19:28:51 2022.
