 Entering Gaussian System, Link 0=/opt/software/Gaussian/g16-AVX2-C.01/g16/g16
 Input=charge-conf-521.com
 Output=charge-conf-521.log
 Initial command:
 /opt/software/Gaussian/g16-AVX2-C.01/g16/l1.exe "/mnt/gs18/scratch/users/kengmith/Gau-5495.inp" -scrdir="/mnt/gs18/scratch/users/kengmith/"
 Entering Link 1 = /opt/software/Gaussian/g16-AVX2-C.01/g16/l1.exe PID=      5505.
  
 Copyright (c) 1988-2019, Gaussian, Inc.  All Rights Reserved.
  
 This is part of the Gaussian(R) 16 program.  It is based on
 the Gaussian(R) 09 system (copyright 2009, Gaussian, Inc.),
 the Gaussian(R) 03 system (copyright 2003, Gaussian, Inc.),
 the Gaussian(R) 98 system (copyright 1998, Gaussian, Inc.),
 the Gaussian(R) 94 system (copyright 1995, Gaussian, Inc.),
 the Gaussian 92(TM) system (copyright 1992, Gaussian, Inc.),
 the Gaussian 90(TM) system (copyright 1990, Gaussian, Inc.),
 the Gaussian 88(TM) system (copyright 1988, Gaussian, Inc.),
 the Gaussian 86(TM) system (copyright 1986, Carnegie Mellon
 University), and the Gaussian 82(TM) system (copyright 1983,
 Carnegie Mellon University). Gaussian is a federally registered
 trademark of Gaussian, Inc.
  
 This software contains proprietary and confidential information,
 including trade secrets, belonging to Gaussian, Inc.
  
 This software is provided under written license and may be
 used, copied, transmitted, or stored only in accord with that
 written license.
  
 The following legend is applicable only to US Government
 contracts under FAR:
  
                    RESTRICTED RIGHTS LEGEND
  
 Use, reproduction and disclosure by the US Government is
 subject to restrictions as set forth in subparagraphs (a)
 and (c) of the Commercial Computer Software - Restricted
 Rights clause in FAR 52.227-19.
  
 Gaussian, Inc.
 340 Quinnipiac St., Bldg. 40, Wallingford CT 06492
  
  
 ---------------------------------------------------------------
 Warning -- This program may not be used in any manner that
 competes with the business of Gaussian, Inc. or will provide
 assistance to any competitor of Gaussian, Inc.  The licensee
 of this program is prohibited from giving any competitor of
 Gaussian, Inc. access to this program.  By using this program,
 the user acknowledges that Gaussian, Inc. is engaged in the
 business of creating and licensing software in the field of
 computational chemistry and represents and warrants to the
 licensee that it is not a competitor of Gaussian, Inc. and that
 it will not use this program in any manner prohibited above.
 ---------------------------------------------------------------
  

 Cite this work as:
 Gaussian 16, Revision C.01,
 M. J. Frisch, G. W. Trucks, H. B. Schlegel, G. E. Scuseria, 
 M. A. Robb, J. R. Cheeseman, G. Scalmani, V. Barone, 
 G. A. Petersson, H. Nakatsuji, X. Li, M. Caricato, A. V. Marenich, 
 J. Bloino, B. G. Janesko, R. Gomperts, B. Mennucci, H. P. Hratchian, 
 J. V. Ortiz, A. F. Izmaylov, J. L. Sonnenberg, D. Williams-Young, 
 F. Ding, F. Lipparini, F. Egidi, J. Goings, B. Peng, A. Petrone, 
 T. Henderson, D. Ranasinghe, V. G. Zakrzewski, J. Gao, N. Rega, 
 G. Zheng, W. Liang, M. Hada, M. Ehara, K. Toyota, R. Fukuda, 
 J. Hasegawa, M. Ishida, T. Nakajima, Y. Honda, O. Kitao, H. Nakai, 
 T. Vreven, K. Throssell, J. A. Montgomery, Jr., J. E. Peralta, 
 F. Ogliaro, M. J. Bearpark, J. J. Heyd, E. N. Brothers, K. N. Kudin, 
 V. N. Staroverov, T. A. Keith, R. Kobayashi, J. Normand, 
 K. Raghavachari, A. P. Rendell, J. C. Burant, S. S. Iyengar, 
 J. Tomasi, M. Cossi, J. M. Millam, M. Klene, C. Adamo, R. Cammi, 
 J. W. Ochterski, R. L. Martin, K. Morokuma, O. Farkas, 
 J. B. Foresman, and D. J. Fox, Gaussian, Inc., Wallingford CT, 2019.
 
 ******************************************
 Gaussian 16:  ES64L-G16RevC.01  3-Jul-2019
                19-Jul-2022 
 ******************************************
 %mem=8gb
 %nproc=4
 Will use up to    4 processors via shared memory.
 %chk=conf-521.chk
 ----------------------------------------------------------------------
 # B3LYP/6-31G* empiricaldispersion=gd3bj guess=read geom=check nosymm 
 integral(ultrafinegrid)
 ----------------------------------------------------------------------
 1/29=2,38=1,172=1/1;
 2/12=2,15=1,40=1/2;
 3/5=1,6=6,7=1,11=2,14=-4,25=1,30=1,74=-5,75=-5,116=-2,124=41/1,2,3;
 4/5=1/1;
 5/5=2,38=6/2;
 6/7=2,8=2,9=2,10=2,28=1/1;
 99/5=1,9=1/99;
 ------------------------------------------------------
 Candidate Structure: Conf:521 Charge calc in gas phase
 ------------------------------------------------------
 Structure from the checkpoint file:  "conf-521.chk"
 Charge =  1 Multiplicity = 1
 Redundant internal coordinates found in file.  (old form).
 N,0,-1.6862678053,-1.6572547906,0.5414689734
 H,0,-2.0717823953,-2.5303871257,0.9049475244
 H,0,-0.6184749484,-1.6557664384,0.6848803107
 H,0,-2.0736534933,-0.8442309651,1.0614043008
 C,0,-2.0306425345,-1.411287905,-0.8919777661
 H,0,-2.8356403125,-2.0796978851,-1.2041793719
 H,0,-1.1396533748,-1.5692694849,-1.5052898853
 C,0,-2.465537849,0.0602033432,-0.9669402853
 O,0,-2.4826036176,0.7306812371,0.0698034063
 N,0,-2.8131697872,0.5127467374,-2.1802470747
 H,0,-2.6058427069,-0.0394394995,-3.0068038919
 C,0,-3.0865519807,1.9238603552,-2.4350031111
 H,0,-4.0934767948,2.041633307,-2.8495853476
 H,0,-3.0324780843,2.4556736985,-1.484376767
 C,0,-2.0623413472,2.3921582554,-3.4672616339
 O,0,-1.8456772277,1.6880461336,-4.4559600652
 N,0,-1.4114415599,3.5486061044,-3.2114153721
 H,0,-1.5524363221,4.0066771923,-2.3211915983
 C,0,-0.2707258155,3.976933266,-4.0272916185
 H,0,-0.0474271724,5.0190699131,-3.8022769316
 H,0,-0.5357743568,3.8755500326,-5.0819467381
 C,0,0.9369882103,3.1101127985,-3.646111358
 O,0,1.7407355742,3.4620060537,-2.7816925453
 N,0,0.9669391748,1.9014118457,-4.2633877071
 H,0,0.1286521744,1.6323243846,-4.7730003465
 C,0,1.8386399599,0.8371199703,-3.7821753518
 H,0,1.8474085981,0.0244824721,-4.5072851197
 H,0,2.8532925728,1.2228641999,-3.6655027626
 C,0,1.317100354,0.2876542778,-2.454953338
 O,0,0.6227534124,-0.7272963888,-2.3719385711
 N,0,1.6703157672,1.009404602,-1.3541902956
 H,0,2.0299073188,1.9517887443,-1.50533485
 C,0,1.2226890856,0.5661967997,-0.0481918757
 H,0,0.1345126866,0.6144381811,0.0611078933
 H,0,1.6640514905,1.2189486526,0.7106940678
 C,0,1.6733442951,-0.8782623943,0.2003417992
 O,0,0.9456977462,-1.7239072939,0.7526360901
 N,0,2.9250758092,-1.1457483439,-0.1948327884
 H,0,3.355000862,-0.4505131114,-0.8015924612
 C,0,3.3902448971,-2.4885124513,-0.4687455087
 H,0,4.2189685603,-2.7657588551,0.1943340415
 H,0,2.5702337134,-3.1899576086,-0.2916014754
 C,0,3.8556322179,-2.5181061483,-1.9361705338
 O,0,3.9143674065,-1.4822844442,-2.5943455516
 N,0,4.2144883078,-3.7374098007,-2.4053384813
 H,0,4.0809004588,-4.546272306,-1.8117491925
 C,0,4.6114352957,-3.9671641333,-3.788300588
 H,0,3.8806453914,-4.594347303,-4.3064439521
 H,0,4.6290526211,-2.9905906572,-4.2793356128
 C,0,5.9813060806,-4.6253112379,-3.9697469258
 O,0,6.236507248,-5.2336543813,-4.9948428034
 N,0,6.8549624,-4.4813098633,-2.9255632193
 H,0,6.6355126239,-3.7708965585,-2.24053622
 C,0,8.2480469727,-4.8297019768,-3.1060290308
 H,0,8.6826525305,-5.1800645463,-2.1652116663
 H,0,8.2960965602,-5.6536835513,-3.8220175194
 C,0,9.1383312566,-3.714219679,-3.6412876222
 O,0,10.3263278769,-3.835808615,-3.8117490398
 O,0,8.4540785751,-2.5727474185,-3.8933782647
 H,0,9.1082848297,-1.9409299458,-4.2482574399
 Recover connectivity data from disk.
                           ----------------------------
                           !    Current Parameters    !
                           ! (Angstroms and Degrees)  !
 --------------------------                            --------------------------
 ! Name  Definition              Value                                          !
 --------------------------------------------------------------------------------
 ! R1    R(1,2)                  1.0213                                         !
 ! R2    R(1,3)                  1.0774                                         !
 ! R3    R(1,4)                  1.0399                                         !
 ! R4    R(1,5)                  1.4946                                         !
 ! R5    R(5,6)                  1.0919                                         !
 ! R6    R(5,7)                  1.0931                                         !
 ! R7    R(5,8)                  1.5362                                         !
 ! R8    R(8,9)                  1.2348                                         !
 ! R9    R(8,10)                 1.3408                                         !
 ! R10   R(10,11)                1.0154                                         !
 ! R11   R(10,12)                1.4598                                         !
 ! R12   R(12,13)                1.0953                                         !
 ! R13   R(12,14)                1.0906                                         !
 ! R14   R(12,15)                1.5277                                         !
 ! R15   R(15,16)                1.233                                          !
 ! R16   R(15,17)                1.3515                                         !
 ! R17   R(17,18)                1.011                                          !
 ! R18   R(17,19)                1.4664                                         !
 ! R19   R(19,20)                1.0893                                         !
 ! R20   R(19,21)                1.0922                                         !
 ! R21   R(19,22)                1.5347                                         !
 ! R22   R(22,23)                1.2317                                         !
 ! R23   R(22,24)                1.3575                                         !
 ! R24   R(24,25)                1.0173                                         !
 ! R25   R(24,26)                1.4574                                         !
 ! R26   R(26,27)                1.0891                                         !
 ! R27   R(26,28)                1.0918                                         !
 ! R28   R(26,29)                1.5282                                         !
 ! R29   R(29,30)                1.2325                                         !
 ! R30   R(29,31)                1.3629                                         !
 ! R31   R(31,32)                1.0199                                         !
 ! R32   R(31,33)                1.45                                           !
 ! R33   R(33,34)                1.0947                                         !
 ! R34   R(33,35)                1.094                                          !
 ! R35   R(33,36)                1.5334                                         !
 ! R36   R(36,37)                1.2448                                         !
 ! R37   R(36,38)                1.3396                                         !
 ! R38   R(38,39)                1.018                                          !
 ! R39   R(38,40)                1.4472                                         !
 ! R40   R(40,41)                1.097                                          !
 ! R41   R(40,42)                1.0935                                         !
 ! R42   R(40,43)                1.5397                                         !
 ! R43   R(43,44)                1.2286                                         !
 ! R44   R(43,45)                1.3548                                         !
 ! R45   R(45,46)                1.0122                                         !
 ! R46   R(45,47)                1.457                                          !
 ! R47   R(47,48)                1.0936                                         !
 ! R48   R(47,49)                1.0932                                         !
 ! R49   R(47,50)                1.5306                                         !
 ! R50   R(50,51)                1.219                                          !
 ! R51   R(50,52)                1.3691                                         !
 ! R52   R(52,53)                1.011                                          !
 ! R53   R(52,54)                1.4473                                         !
 ! R54   R(54,55)                1.094                                          !
 ! R55   R(54,56)                1.0927                                         !
 ! R56   R(54,57)                1.5243                                         !
 ! R57   R(57,58)                1.2063                                         !
 ! R58   R(57,59)                1.3545                                         !
 ! R59   R(59,60)                0.9763                                         !
 ! A1    A(2,1,3)              109.1423                                         !
 ! A2    A(2,1,4)              110.477                                          !
 ! A3    A(2,1,5)              113.2688                                         !
 ! A4    A(3,1,4)              107.552                                          !
 ! A5    A(3,1,5)              110.8423                                         !
 ! A6    A(4,1,5)              105.3684                                         !
 ! A7    A(1,5,6)              110.0811                                         !
 ! A8    A(1,5,7)              109.0569                                         !
 ! A9    A(1,5,8)              105.644                                          !
 ! A10   A(6,5,7)              110.6106                                         !
 ! A11   A(6,5,8)              111.327                                          !
 ! A12   A(7,5,8)              109.9859                                         !
 ! A13   A(5,8,9)              118.8849                                         !
 ! A14   A(5,8,10)             116.1577                                         !
 ! A15   A(9,8,10)             124.9547                                         !
 ! A16   A(8,10,11)            120.0078                                         !
 ! A17   A(8,10,12)            122.1915                                         !
 ! A18   A(11,10,12)           114.9519                                         !
 ! A19   A(10,12,13)           110.0094                                         !
 ! A20   A(10,12,14)           108.0577                                         !
 ! A21   A(10,12,15)           106.7795                                         !
 ! A22   A(13,12,14)           108.8492                                         !
 ! A23   A(13,12,15)           109.1243                                         !
 ! A24   A(14,12,15)           113.9693                                         !
 ! A25   A(12,15,16)           118.985                                          !
 ! A26   A(12,15,17)           117.2116                                         !
 ! A27   A(16,15,17)           123.7675                                         !
 ! A28   A(15,17,18)           119.1572                                         !
 ! A29   A(15,17,19)           121.283                                          !
 ! A30   A(18,17,19)           117.7772                                         !
 ! A31   A(17,19,20)           108.904                                          !
 ! A32   A(17,19,21)           108.746                                          !
 ! A33   A(17,19,22)           107.9986                                         !
 ! A34   A(20,19,21)           109.7572                                         !
 ! A35   A(20,19,22)           109.132                                          !
 ! A36   A(21,19,22)           112.2342                                         !
 ! A37   A(19,22,23)           121.7675                                         !
 ! A38   A(19,22,24)           114.0367                                         !
 ! A39   A(23,22,24)           123.9936                                         !
 ! A40   A(22,24,25)           116.4316                                         !
 ! A41   A(22,24,26)           120.8806                                         !
 ! A42   A(25,24,26)           117.7174                                         !
 ! A43   A(24,26,27)           109.2597                                         !
 ! A44   A(24,26,28)           109.4591                                         !
 ! A45   A(24,26,29)           110.1935                                         !
 ! A46   A(27,26,28)           109.1043                                         !
 ! A47   A(27,26,29)           108.2208                                         !
 ! A48   A(28,26,29)           110.5728                                         !
 ! A49   A(26,29,30)           123.1497                                         !
 ! A50   A(26,29,31)           114.999                                          !
 ! A51   A(30,29,31)           121.8505                                         !
 ! A52   A(29,31,32)           117.4523                                         !
 ! A53   A(29,31,33)           119.0519                                         !
 ! A54   A(32,31,33)           121.6512                                         !
 ! A55   A(31,33,34)           112.54                                           !
 ! A56   A(31,33,35)           108.5347                                         !
 ! A57   A(31,33,36)           110.0715                                         !
 ! A58   A(34,33,35)           107.7872                                         !
 ! A59   A(34,33,36)           108.5097                                         !
 ! A60   A(35,33,36)           109.3333                                         !
 ! A61   A(33,36,37)           122.6864                                         !
 ! A62   A(33,36,38)           114.5127                                         !
 ! A63   A(37,36,38)           122.7807                                         !
 ! A64   A(36,38,39)           115.7264                                         !
 ! A65   A(36,38,40)           122.7815                                         !
 ! A66   A(39,38,40)           112.6496                                         !
 ! A67   A(38,40,41)           111.2796                                         !
 ! A68   A(38,40,42)           108.8726                                         !
 ! A69   A(38,40,43)           107.1793                                         !
 ! A70   A(41,40,42)           107.8465                                         !
 ! A71   A(41,40,43)           110.0525                                         !
 ! A72   A(42,40,43)           111.6357                                         !
 ! A73   A(40,43,44)           120.5825                                         !
 ! A74   A(40,43,45)           115.3014                                         !
 ! A75   A(44,43,45)           124.0941                                         !
 ! A76   A(43,45,46)           118.7611                                         !
 ! A77   A(43,45,47)           122.8716                                         !
 ! A78   A(46,45,47)           117.8132                                         !
 ! A79   A(45,47,48)           110.9837                                         !
 ! A80   A(45,47,49)           106.8496                                         !
 ! A81   A(45,47,50)           115.0975                                         !
 ! A82   A(48,47,49)           108.076                                          !
 ! A83   A(48,47,50)           107.1766                                         !
 ! A84   A(49,47,50)           108.4485                                         !
 ! A85   A(47,50,51)           120.109                                          !
 ! A86   A(47,50,52)           115.817                                          !
 ! A87   A(51,50,52)           124.0738                                         !
 ! A88   A(50,52,53)           116.8838                                         !
 ! A89   A(50,52,54)           119.5921                                         !
 ! A90   A(53,52,54)           117.5535                                         !
 ! A91   A(52,54,55)           110.6253                                         !
 ! A92   A(52,54,56)           107.7923                                         !
 ! A93   A(52,54,57)           115.4563                                         !
 ! A94   A(55,54,56)           107.7311                                         !
 ! A95   A(55,54,57)           107.7181                                         !
 ! A96   A(56,54,57)           107.2222                                         !
 ! A97   A(54,57,58)           123.4401                                         !
 ! A98   A(54,57,59)           112.7688                                         !
 ! A99   A(58,57,59)           123.7892                                         !
 ! A100  A(57,59,60)           105.9335                                         !
 ! D1    D(2,1,5,6)             14.4573                                         !
 ! D2    D(2,1,5,7)           -107.064                                          !
 ! D3    D(2,1,5,8)            134.7554                                         !
 ! D4    D(3,1,5,6)            137.5267                                         !
 ! D5    D(3,1,5,7)             16.0054                                         !
 ! D6    D(3,1,5,8)           -102.1752                                         !
 ! D7    D(4,1,5,6)           -106.4146                                         !
 ! D8    D(4,1,5,7)            132.0641                                         !
 ! D9    D(4,1,5,8)             13.8835                                         !
 ! D10   D(1,5,8,9)             -1.186                                          !
 ! D11   D(1,5,8,10)           179.3835                                         !
 ! D12   D(6,5,8,9)            118.2928                                         !
 ! D13   D(6,5,8,10)           -61.1377                                         !
 ! D14   D(7,5,8,9)           -118.7437                                         !
 ! D15   D(7,5,8,10)            61.8258                                         !
 ! D16   D(5,8,10,11)          -12.2985                                         !
 ! D17   D(5,8,10,12)         -172.2199                                         !
 ! D18   D(9,8,10,11)          168.3099                                         !
 ! D19   D(9,8,10,12)            8.3885                                         !
 ! D20   D(8,10,12,13)        -123.1536                                         !
 ! D21   D(8,10,12,14)          -4.4437                                         !
 ! D22   D(8,10,12,15)         118.5539                                         !
 ! D23   D(11,10,12,13)         75.9875                                         !
 ! D24   D(11,10,12,14)       -165.3027                                         !
 ! D25   D(11,10,12,15)        -42.3051                                         !
 ! D26   D(10,12,15,16)         45.7028                                         !
 ! D27   D(10,12,15,17)       -132.1989                                         !
 ! D28   D(13,12,15,16)        -73.1673                                         !
 ! D29   D(13,12,15,17)        108.931                                          !
 ! D30   D(14,12,15,16)        164.9362                                         !
 ! D31   D(14,12,15,17)        -12.9655                                         !
 ! D32   D(12,15,17,18)          6.0211                                         !
 ! D33   D(12,15,17,19)        170.4769                                         !
 ! D34   D(16,15,17,18)       -171.7709                                         !
 ! D35   D(16,15,17,19)         -7.3151                                         !
 ! D36   D(15,17,19,20)        167.1452                                         !
 ! D37   D(15,17,19,21)         47.5715                                         !
 ! D38   D(15,17,19,22)        -74.4618                                         !
 ! D39   D(18,17,19,20)        -28.1923                                         !
 ! D40   D(18,17,19,21)       -147.766                                          !
 ! D41   D(18,17,19,22)         90.2007                                         !
 ! D42   D(17,19,22,23)        -92.6881                                         !
 ! D43   D(17,19,22,24)         82.3399                                         !
 ! D44   D(20,19,22,23)         25.5591                                         !
 ! D45   D(20,19,22,24)       -159.4128                                         !
 ! D46   D(21,19,22,23)        147.4531                                         !
 ! D47   D(21,19,22,24)        -37.5189                                         !
 ! D48   D(19,22,24,25)        -10.2278                                         !
 ! D49   D(19,22,24,26)       -164.7129                                         !
 ! D50   D(23,22,24,25)        164.6735                                         !
 ! D51   D(23,22,24,26)         10.1884                                         !
 ! D52   D(22,24,26,27)       -170.0137                                         !
 ! D53   D(22,24,26,28)        -50.5978                                         !
 ! D54   D(22,24,26,29)         71.2081                                         !
 ! D55   D(25,24,26,27)         35.8171                                         !
 ! D56   D(25,24,26,28)        155.233                                          !
 ! D57   D(25,24,26,29)        -82.9611                                         !
 ! D58   D(24,26,29,30)         97.1549                                         !
 ! D59   D(24,26,29,31)        -82.5075                                         !
 ! D60   D(27,26,29,30)        -22.2568                                         !
 ! D61   D(27,26,29,31)        158.0809                                         !
 ! D62   D(28,26,29,30)       -141.702                                          !
 ! D63   D(28,26,29,31)         38.6356                                         !
 ! D64   D(26,29,31,32)         15.2166                                         !
 ! D65   D(26,29,31,33)       -179.9803                                         !
 ! D66   D(30,29,31,32)       -164.4506                                         !
 ! D67   D(30,29,31,33)          0.3525                                         !
 ! D68   D(29,31,33,34)        -65.1121                                         !
 ! D69   D(29,31,33,35)        175.6795                                         !
 ! D70   D(29,31,33,36)         56.0589                                         !
 ! D71   D(32,31,33,34)         99.0293                                         !
 ! D72   D(32,31,33,35)        -20.1791                                         !
 ! D73   D(32,31,33,36)       -139.7997                                         !
 ! D74   D(31,33,36,37)       -139.6404                                         !
 ! D75   D(31,33,36,38)         41.9578                                         !
 ! D76   D(34,33,36,37)        -16.0877                                         !
 ! D77   D(34,33,36,38)        165.5105                                         !
 ! D78   D(35,33,36,37)        101.2257                                         !
 ! D79   D(35,33,36,38)        -77.1761                                         !
 ! D80   D(33,36,38,39)        -13.8336                                         !
 ! D81   D(33,36,38,40)       -158.7924                                         !
 ! D82   D(37,36,38,39)        167.7663                                         !
 ! D83   D(37,36,38,40)         22.8075                                         !
 ! D84   D(36,38,40,41)       -119.1473                                         !
 ! D85   D(36,38,40,42)         -0.4151                                         !
 ! D86   D(36,38,40,43)        120.4842                                         !
 ! D87   D(39,38,40,41)         94.9416                                         !
 ! D88   D(39,38,40,42)       -146.3263                                         !
 ! D89   D(39,38,40,43)        -25.427                                          !
 ! D90   D(38,40,43,44)          7.3488                                         !
 ! D91   D(38,40,43,45)       -174.2908                                         !
 ! D92   D(41,40,43,44)       -113.7975                                         !
 ! D93   D(41,40,43,45)         64.5629                                         !
 ! D94   D(42,40,43,44)        126.4831                                         !
 ! D95   D(42,40,43,45)        -55.1565                                         !
 ! D96   D(40,43,45,46)          5.348                                          !
 ! D97   D(40,43,45,47)        176.6175                                         !
 ! D98   D(44,43,45,46)       -176.3565                                         !
 ! D99   D(44,43,45,47)         -5.087                                          !
 ! D100  D(43,45,47,48)       -113.1946                                         !
 ! D101  D(43,45,47,49)          4.411                                          !
 ! D102  D(43,45,47,50)        124.8735                                         !
 ! D103  D(46,45,47,48)         58.1529                                         !
 ! D104  D(46,45,47,49)        175.7585                                         !
 ! D105  D(46,45,47,50)        -63.779                                          !
 ! D106  D(45,47,50,51)        156.9979                                         !
 ! D107  D(45,47,50,52)        -22.8219                                         !
 ! D108  D(48,47,50,51)         33.0337                                         !
 ! D109  D(48,47,50,52)       -146.7861                                         !
 ! D110  D(49,47,50,51)        -83.4199                                         !
 ! D111  D(49,47,50,52)         96.7603                                         !
 ! D112  D(47,50,52,53)        -15.5049                                         !
 ! D113  D(47,50,52,54)       -167.674                                          !
 ! D114  D(51,50,52,53)        164.6833                                         !
 ! D115  D(51,50,52,54)         12.5142                                         !
 ! D116  D(50,52,54,55)       -149.5812                                         !
 ! D117  D(50,52,54,56)        -32.0301                                         !
 ! D118  D(50,52,54,57)         87.7819                                         !
 ! D119  D(53,52,54,55)         58.4322                                         !
 ! D120  D(53,52,54,56)        175.9833                                         !
 ! D121  D(53,52,54,57)        -64.2047                                         !
 ! D122  D(52,54,57,58)        177.9479                                         !
 ! D123  D(52,54,57,59)         -1.5552                                         !
 ! D124  D(55,54,57,58)         53.778                                          !
 ! D125  D(55,54,57,59)       -125.7251                                         !
 ! D126  D(56,54,57,58)        -61.9283                                         !
 ! D127  D(56,54,57,59)        118.5686                                         !
 ! D128  D(54,57,59,60)       -178.6354                                         !
 ! D129  D(58,57,59,60)          1.8635                                         !
 --------------------------------------------------------------------------------
 Symmetry turned off by external request.
 Stoichiometry    C16H27N8O9(1+)
 Framework group  C1[X(C16H27N8O9)]
 Deg. of freedom   174
 Full point group                 C1      NOp   1
                          Input orientation:                          
 ---------------------------------------------------------------------
 Center     Atomic      Atomic             Coordinates (Angstroms)
 Number     Number       Type             X           Y           Z
 ---------------------------------------------------------------------
      1          7           0       -1.686268   -1.657255    0.541469
      2          1           0       -2.071782   -2.530387    0.904948
      3          1           0       -0.618475   -1.655766    0.684880
      4          1           0       -2.073653   -0.844231    1.061404
      5          6           0       -2.030643   -1.411288   -0.891978
      6          1           0       -2.835640   -2.079698   -1.204179
      7          1           0       -1.139653   -1.569269   -1.505290
      8          6           0       -2.465538    0.060203   -0.966940
      9          8           0       -2.482604    0.730681    0.069803
     10          7           0       -2.813170    0.512747   -2.180247
     11          1           0       -2.605843   -0.039439   -3.006804
     12          6           0       -3.086552    1.923860   -2.435003
     13          1           0       -4.093477    2.041633   -2.849585
     14          1           0       -3.032478    2.455674   -1.484377
     15          6           0       -2.062341    2.392158   -3.467262
     16          8           0       -1.845677    1.688046   -4.455960
     17          7           0       -1.411442    3.548606   -3.211415
     18          1           0       -1.552436    4.006677   -2.321192
     19          6           0       -0.270726    3.976933   -4.027292
     20          1           0       -0.047427    5.019070   -3.802277
     21          1           0       -0.535774    3.875550   -5.081947
     22          6           0        0.936988    3.110113   -3.646111
     23          8           0        1.740736    3.462006   -2.781693
     24          7           0        0.966939    1.901412   -4.263388
     25          1           0        0.128652    1.632324   -4.773000
     26          6           0        1.838640    0.837120   -3.782175
     27          1           0        1.847409    0.024482   -4.507285
     28          1           0        2.853293    1.222864   -3.665503
     29          6           0        1.317100    0.287654   -2.454953
     30          8           0        0.622753   -0.727296   -2.371939
     31          7           0        1.670316    1.009405   -1.354190
     32          1           0        2.029907    1.951789   -1.505335
     33          6           0        1.222689    0.566197   -0.048192
     34          1           0        0.134513    0.614438    0.061108
     35          1           0        1.664051    1.218949    0.710694
     36          6           0        1.673344   -0.878262    0.200342
     37          8           0        0.945698   -1.723907    0.752636
     38          7           0        2.925076   -1.145748   -0.194833
     39          1           0        3.355001   -0.450513   -0.801592
     40          6           0        3.390245   -2.488512   -0.468746
     41          1           0        4.218969   -2.765759    0.194334
     42          1           0        2.570234   -3.189958   -0.291601
     43          6           0        3.855632   -2.518106   -1.936171
     44          8           0        3.914367   -1.482284   -2.594346
     45          7           0        4.214488   -3.737410   -2.405338
     46          1           0        4.080900   -4.546272   -1.811749
     47          6           0        4.611435   -3.967164   -3.788301
     48          1           0        3.880645   -4.594347   -4.306444
     49          1           0        4.629053   -2.990591   -4.279336
     50          6           0        5.981306   -4.625311   -3.969747
     51          8           0        6.236507   -5.233654   -4.994843
     52          7           0        6.854962   -4.481310   -2.925563
     53          1           0        6.635513   -3.770897   -2.240536
     54          6           0        8.248047   -4.829702   -3.106029
     55          1           0        8.682653   -5.180065   -2.165212
     56          1           0        8.296097   -5.653684   -3.822018
     57          6           0        9.138331   -3.714220   -3.641288
     58          8           0       10.326328   -3.835809   -3.811749
     59          8           0        8.454079   -2.572747   -3.893378
     60          1           0        9.108285   -1.940930   -4.248257
 ---------------------------------------------------------------------
 Rotational constants (GHZ):           0.2151631           0.0528567           0.0474735
 Standard basis: 6-31G(d) (6D, 7F)
   549 basis functions,  1032 primitive gaussians,   549 cartesian basis functions
   125 alpha electrons      125 beta electrons
       nuclear repulsion energy      3628.0796311410 Hartrees.
 NAtoms=   60 NActive=   60 NUniq=   60 SFac= 1.00D+00 NAtFMM=   60 NAOKFM=T Big=T
 Integral buffers will be    131072 words long.
 Raffenetti 2 integral format.
 Two-electron integral symmetry is turned off.
 Nuclear repulsion after empirical dispersion term =     3627.9558712174 Hartrees.
 One-electron integrals computed using PRISM.
 NBasis=   549 RedAO= T EigKep=  2.38D-03  NBF=   549
 NBsUse=   549 1.00D-06 EigRej= -1.00D+00 NBFU=   549
 Initial guess from the checkpoint file:  "conf-521.chk"
 B after Tr=     0.000000    0.000000    0.000000
         Rot=    1.000000    0.000000    0.000000    0.000000 Ang=   0.00 deg.
 Requested convergence on RMS density matrix=1.00D-08 within 128 cycles.
 Requested convergence on MAX density matrix=1.00D-06.
 Requested convergence on             energy=1.00D-06.
 No special actions if energy rises.
 SCF Done:  E(RB3LYP) =  -1741.03521344     A.U. after    1 cycles
            NFock=  1  Conv=0.75D-08     -V/T= 2.0091

 **********************************************************************

            Population analysis using the SCF Density.

 **********************************************************************

 Alpha  occ. eigenvalues --  -19.26915 -19.26771 -19.26029 -19.24646 -19.24070
 Alpha  occ. eigenvalues --  -19.23522 -19.22971 -19.20456 -19.19321 -14.56543
 Alpha  occ. eigenvalues --  -14.50565 -14.49648 -14.48262 -14.47926 -14.47742
 Alpha  occ. eigenvalues --  -14.46854 -14.44348 -10.44004 -10.42468 -10.41904
 Alpha  occ. eigenvalues --  -10.40780 -10.40587 -10.39911 -10.38929 -10.38555
 Alpha  occ. eigenvalues --  -10.36929 -10.35876 -10.35551 -10.34862 -10.34327
 Alpha  occ. eigenvalues --  -10.33253 -10.32075 -10.30729  -1.19091  -1.17486
 Alpha  occ. eigenvalues --   -1.17422  -1.16786  -1.15666  -1.15378  -1.14448
 Alpha  occ. eigenvalues --   -1.11546  -1.11430  -1.08386  -1.06819  -1.05850
 Alpha  occ. eigenvalues --   -1.05318  -1.03999  -1.03756  -1.03067  -1.00450
 Alpha  occ. eigenvalues --   -0.90227  -0.88694  -0.87055  -0.85609  -0.83635
 Alpha  occ. eigenvalues --   -0.82335  -0.80537  -0.79294  -0.73278  -0.72798
 Alpha  occ. eigenvalues --   -0.72542  -0.71592  -0.70986  -0.70302  -0.69301
 Alpha  occ. eigenvalues --   -0.69186  -0.68693  -0.67016  -0.66889  -0.65453
 Alpha  occ. eigenvalues --   -0.65096  -0.64077  -0.62984  -0.61932  -0.61716
 Alpha  occ. eigenvalues --   -0.61041  -0.60715  -0.60577  -0.59089  -0.58971
 Alpha  occ. eigenvalues --   -0.58256  -0.57855  -0.57529  -0.56674  -0.56483
 Alpha  occ. eigenvalues --   -0.55574  -0.55385  -0.54650  -0.54213  -0.53893
 Alpha  occ. eigenvalues --   -0.53693  -0.53116  -0.52735  -0.52530  -0.52405
 Alpha  occ. eigenvalues --   -0.51851  -0.51510  -0.50949  -0.50569  -0.50321
 Alpha  occ. eigenvalues --   -0.49701  -0.49027  -0.48902  -0.48749  -0.48287
 Alpha  occ. eigenvalues --   -0.47468  -0.46728  -0.45974  -0.44603  -0.41600
 Alpha  occ. eigenvalues --   -0.40973  -0.40673  -0.40063  -0.39447  -0.39160
 Alpha  occ. eigenvalues --   -0.38456  -0.38104  -0.37898  -0.37755  -0.37451
 Alpha  occ. eigenvalues --   -0.36472  -0.36108  -0.35299  -0.32994  -0.32299
 Alpha virt. eigenvalues --   -0.12484  -0.11573  -0.11009  -0.10300  -0.09087
 Alpha virt. eigenvalues --   -0.08803  -0.08079  -0.05899  -0.05516  -0.04057
 Alpha virt. eigenvalues --   -0.03730  -0.02900  -0.01844  -0.00936   0.00113
 Alpha virt. eigenvalues --    0.00918   0.01135   0.01463   0.01686   0.02339
 Alpha virt. eigenvalues --    0.02772   0.03019   0.03415   0.04342   0.04438
 Alpha virt. eigenvalues --    0.04708   0.04977   0.05293   0.05879   0.06370
 Alpha virt. eigenvalues --    0.06978   0.07220   0.07830   0.08247   0.08518
 Alpha virt. eigenvalues --    0.08700   0.09573   0.09777   0.10243   0.10600
 Alpha virt. eigenvalues --    0.10767   0.10937   0.11843   0.12011   0.12512
 Alpha virt. eigenvalues --    0.14104   0.14739   0.15439   0.16070   0.16999
 Alpha virt. eigenvalues --    0.18383   0.18927   0.20537   0.21093   0.22529
 Alpha virt. eigenvalues --    0.23132   0.23442   0.24859   0.25062   0.25801
 Alpha virt. eigenvalues --    0.26567   0.27847   0.28384   0.29755   0.31118
 Alpha virt. eigenvalues --    0.31272   0.32549   0.33645   0.37065   0.37867
 Alpha virt. eigenvalues --    0.39381   0.39755   0.40456   0.41074   0.41557
 Alpha virt. eigenvalues --    0.42123   0.42440   0.42638   0.42964   0.43578
 Alpha virt. eigenvalues --    0.44208   0.45056   0.45636   0.46096   0.46585
 Alpha virt. eigenvalues --    0.47028   0.47639   0.47893   0.48390   0.48753
 Alpha virt. eigenvalues --    0.49668   0.49966   0.51116   0.51940   0.52625
 Alpha virt. eigenvalues --    0.52942   0.52977   0.53252   0.54175   0.54384
 Alpha virt. eigenvalues --    0.54616   0.55330   0.56071   0.56343   0.56949
 Alpha virt. eigenvalues --    0.57284   0.57858   0.58374   0.58931   0.59260
 Alpha virt. eigenvalues --    0.60227   0.60825   0.61009   0.61988   0.62807
 Alpha virt. eigenvalues --    0.64033   0.64374   0.64537   0.65103   0.66086
 Alpha virt. eigenvalues --    0.67082   0.67151   0.67568   0.67947   0.69056
 Alpha virt. eigenvalues --    0.69557   0.69964   0.70749   0.71135   0.71497
 Alpha virt. eigenvalues --    0.71575   0.72347   0.72510   0.73113   0.73276
 Alpha virt. eigenvalues --    0.73583   0.74215   0.74612   0.75218   0.75915
 Alpha virt. eigenvalues --    0.76594   0.77357   0.77496   0.78153   0.78192
 Alpha virt. eigenvalues --    0.79149   0.79363   0.79726   0.80351   0.80745
 Alpha virt. eigenvalues --    0.81237   0.81829   0.81967   0.82371   0.82676
 Alpha virt. eigenvalues --    0.83281   0.83861   0.84158   0.85204   0.86341
 Alpha virt. eigenvalues --    0.86622   0.87276   0.87829   0.88480   0.88730
 Alpha virt. eigenvalues --    0.89317   0.90197   0.90319   0.90913   0.91932
 Alpha virt. eigenvalues --    0.91988   0.93452   0.94659   0.95549   0.96602
 Alpha virt. eigenvalues --    0.97598   0.97978   0.98302   1.00393   1.02047
 Alpha virt. eigenvalues --    1.02212   1.02929   1.03329   1.03537   1.05283
 Alpha virt. eigenvalues --    1.05720   1.07435   1.07735   1.08035   1.09228
 Alpha virt. eigenvalues --    1.10369   1.11165   1.11797   1.13154   1.14289
 Alpha virt. eigenvalues --    1.14699   1.14882   1.15583   1.16900   1.18166
 Alpha virt. eigenvalues --    1.19563   1.20123   1.21279   1.21363   1.23400
 Alpha virt. eigenvalues --    1.24179   1.24596   1.25254   1.26284   1.27908
 Alpha virt. eigenvalues --    1.29577   1.30406   1.31221   1.31472   1.33051
 Alpha virt. eigenvalues --    1.33655   1.33788   1.34254   1.35404   1.36077
 Alpha virt. eigenvalues --    1.37453   1.37948   1.38943   1.39761   1.41364
 Alpha virt. eigenvalues --    1.42017   1.43132   1.43674   1.45718   1.46297
 Alpha virt. eigenvalues --    1.47300   1.48932   1.49688   1.50920   1.53123
 Alpha virt. eigenvalues --    1.55812   1.58122   1.58535   1.58663   1.60286
 Alpha virt. eigenvalues --    1.61053   1.61597   1.61949   1.62362   1.63105
 Alpha virt. eigenvalues --    1.63379   1.64114   1.64633   1.65786   1.66604
 Alpha virt. eigenvalues --    1.66721   1.67334   1.68494   1.69098   1.69675
 Alpha virt. eigenvalues --    1.69725   1.69911   1.70332   1.71034   1.71077
 Alpha virt. eigenvalues --    1.71932   1.72358   1.72629   1.73686   1.74314
 Alpha virt. eigenvalues --    1.74678   1.75077   1.75963   1.76943   1.77850
 Alpha virt. eigenvalues --    1.78016   1.78339   1.78924   1.79691   1.80055
 Alpha virt. eigenvalues --    1.80841   1.81879   1.82172   1.82402   1.82614
 Alpha virt. eigenvalues --    1.82870   1.84239   1.84629   1.85519   1.86391
 Alpha virt. eigenvalues --    1.86592   1.86872   1.87924   1.88567   1.89161
 Alpha virt. eigenvalues --    1.90144   1.91243   1.92014   1.92138   1.93105
 Alpha virt. eigenvalues --    1.94404   1.94447   1.95143   1.95968   1.97729
 Alpha virt. eigenvalues --    1.98244   1.98910   1.99071   1.99598   2.00608
 Alpha virt. eigenvalues --    2.01694   2.03419   2.05711   2.06138   2.07814
 Alpha virt. eigenvalues --    2.08172   2.09438   2.12343   2.13106   2.13282
 Alpha virt. eigenvalues --    2.14960   2.17328   2.17565   2.18348   2.18762
 Alpha virt. eigenvalues --    2.20019   2.20383   2.22813   2.23900   2.25061
 Alpha virt. eigenvalues --    2.25441   2.25643   2.26832   2.27008   2.28122
 Alpha virt. eigenvalues --    2.28868   2.29944   2.30716   2.31536   2.31980
 Alpha virt. eigenvalues --    2.33466   2.33882   2.34582   2.35396   2.36591
 Alpha virt. eigenvalues --    2.38021   2.38740   2.38969   2.41208   2.42158
 Alpha virt. eigenvalues --    2.43841   2.44346   2.46472   2.47303   2.49454
 Alpha virt. eigenvalues --    2.50294   2.51041   2.52688   2.53425   2.54398
 Alpha virt. eigenvalues --    2.55007   2.55636   2.56855   2.58696   2.58858
 Alpha virt. eigenvalues --    2.60452   2.62219   2.62873   2.63832   2.64609
 Alpha virt. eigenvalues --    2.64945   2.67226   2.73293   2.74761   2.75549
 Alpha virt. eigenvalues --    2.77326   2.78381   2.78817   2.81454   2.85164
 Alpha virt. eigenvalues --    2.85964   2.87514   2.88495   2.89096   2.90548
 Alpha virt. eigenvalues --    2.92074   2.92284   2.94745   2.98111   2.98989
 Alpha virt. eigenvalues --    3.01255   3.03067   3.03779   3.04371   3.04532
 Alpha virt. eigenvalues --    3.07253   3.70910   3.73234   3.83559   3.84542
 Alpha virt. eigenvalues --    3.87383   3.88166   3.89408   3.93365   3.95586
 Alpha virt. eigenvalues --    3.95999   3.98808   4.01258   4.02333   4.03019
 Alpha virt. eigenvalues --    4.06680   4.07464   4.08422   4.09784   4.15054
 Alpha virt. eigenvalues --    4.15079   4.16870   4.20722   4.21175   4.26168
 Alpha virt. eigenvalues --    4.30200   4.35648   4.40078   4.41513   4.42714
 Alpha virt. eigenvalues --    4.44751   4.46859   4.50477   4.51619
          Condensed to atoms (all electrons):
 Mulliken charges:
               1
     1  N   -0.784461
     2  H    0.401169
     3  H    0.459377
     4  H    0.412830
     5  C   -0.292662
     6  H    0.224609
     7  H    0.280237
     8  C    0.624421
     9  O   -0.522482
    10  N   -0.579053
    11  H    0.370235
    12  C   -0.233632
    13  H    0.220696
    14  H    0.207035
    15  C    0.618170
    16  O   -0.531450
    17  N   -0.579159
    18  H    0.357050
    19  C   -0.239623
    20  H    0.208197
    21  H    0.212539
    22  C    0.587840
    23  O   -0.523627
    24  N   -0.573625
    25  H    0.381758
    26  C   -0.230141
    27  H    0.202807
    28  H    0.210706
    29  C    0.602906
    30  O   -0.543575
    31  N   -0.614793
    32  H    0.389552
    33  C   -0.226435
    34  H    0.173450
    35  H    0.210157
    36  C    0.627118
    37  O   -0.585227
    38  N   -0.540975
    39  H    0.371861
    40  C   -0.238162
    41  H    0.202677
    42  H    0.205480
    43  C    0.609940
    44  O   -0.519190
    45  N   -0.613671
    46  H    0.347605
    47  C   -0.235397
    48  H    0.201246
    49  H    0.229219
    50  C    0.594221
    51  O   -0.488507
    52  N   -0.576828
    53  H    0.331755
    54  C   -0.241717
    55  H    0.198396
    56  H    0.239245
    57  C    0.584737
    58  O   -0.437080
    59  O   -0.568733
    60  H    0.420965
 Sum of Mulliken charges =   1.00000
 Mulliken charges with hydrogens summed into heavy atoms:
               1
     1  N    0.488915
     5  C    0.212184
     8  C    0.624421
     9  O   -0.522482
    10  N   -0.208818
    12  C    0.194098
    15  C    0.618170
    16  O   -0.531450
    17  N   -0.222110
    19  C    0.181114
    22  C    0.587840
    23  O   -0.523627
    24  N   -0.191867
    26  C    0.183372
    29  C    0.602906
    30  O   -0.543575
    31  N   -0.225241
    33  C    0.157173
    36  C    0.627118
    37  O   -0.585227
    38  N   -0.169115
    40  C    0.169994
    43  C    0.609940
    44  O   -0.519190
    45  N   -0.266066
    47  C    0.195067
    50  C    0.594221
    51  O   -0.488507
    52  N   -0.245073
    54  C    0.195925
    57  C    0.584737
    58  O   -0.437080
    59  O   -0.147768
 Electronic spatial extent (au):  <R**2>=          31323.4913
 Charge=              1.0000 electrons
 Dipole moment (field-independent basis, Debye):
    X=             -2.9542    Y=             -1.6377    Z=             -3.2135  Tot=              4.6622
 Quadrupole moment (field-independent basis, Debye-Ang):
   XX=           -162.8940   YY=           -149.5702   ZZ=           -184.1975
   XY=              0.0377   XZ=             19.7267   YZ=            -30.1860
 Traceless Quadrupole moment (field-independent basis, Debye-Ang):
   XX=              2.6599   YY=             15.9837   ZZ=            -18.6436
   XY=              0.0377   XZ=             19.7267   YZ=            -30.1860
 Octapole moment (field-independent basis, Debye-Ang**2):
  XXX=          -1415.8001  YYY=            459.2512  ZZZ=           1358.2409  XYY=           -481.5615
  XXY=            226.3794  XXZ=            559.1923  XZZ=           -511.7398  YZZ=            311.7145
  YYZ=            458.4589  XYZ=            -95.6358
 Hexadecapole moment (field-independent basis, Debye-Ang**3):
 XXXX=         -24046.2294 YYYY=          -8386.6274 ZZZZ=          -9712.5030 XXXY=           6703.2232
 XXXZ=           5717.5760 YYYX=           4916.2137 YYYZ=          -1760.4049 ZZZX=           4546.0386
 ZZZY=          -1943.7720 XXYY=          -5348.2418 XXZZ=          -5815.8985 YYZZ=          -3436.5727
 XXYZ=          -1573.7965 YYXZ=           2149.2702 ZZXY=           2519.1658
 N-N= 3.627955871217D+03 E-N=-1.129736375025D+04  KE= 1.725300972427D+03
 Unable to Open any file for archive entry.
 1\1\GINC-SKL-160\SP\RB3LYP\6-31G(d)\C16H27N8O9(1+)\KENGMITH\19-Jul-202
 2\0\\# B3LYP/6-31G* empiricaldispersion=gd3bj guess=read geom=check no
 symm integral(ultrafinegrid)\\Candidate Structure: Conf:521 Charge cal
 c in gas phase\\1,1\N,0,-1.6862678053,-1.6572547906,0.5414689734\H,0,-
 2.0717823953,-2.5303871257,0.9049475244\H,0,-0.6184749484,-1.655766438
 4,0.6848803107\H,0,-2.0736534933,-0.8442309651,1.0614043008\C,0,-2.030
 6425345,-1.411287905,-0.8919777661\H,0,-2.8356403125,-2.0796978851,-1.
 2041793719\H,0,-1.1396533748,-1.5692694849,-1.5052898853\C,0,-2.465537
 849,0.0602033432,-0.9669402853\O,0,-2.4826036176,0.7306812371,0.069803
 4063\N,0,-2.8131697872,0.5127467374,-2.1802470747\H,0,-2.6058427069,-0
 .0394394995,-3.0068038919\C,0,-3.0865519807,1.9238603552,-2.4350031111
 \H,0,-4.0934767948,2.041633307,-2.8495853476\H,0,-3.0324780843,2.45567
 36985,-1.484376767\C,0,-2.0623413472,2.3921582554,-3.4672616339\O,0,-1
 .8456772277,1.6880461336,-4.4559600652\N,0,-1.4114415599,3.5486061044,
 -3.2114153721\H,0,-1.5524363221,4.0066771923,-2.3211915983\C,0,-0.2707
 258155,3.976933266,-4.0272916185\H,0,-0.0474271724,5.0190699131,-3.802
 2769316\H,0,-0.5357743568,3.8755500326,-5.0819467381\C,0,0.9369882103,
 3.1101127985,-3.646111358\O,0,1.7407355742,3.4620060537,-2.7816925453\
 N,0,0.9669391748,1.9014118457,-4.2633877071\H,0,0.1286521744,1.6323243
 846,-4.7730003465\C,0,1.8386399599,0.8371199703,-3.7821753518\H,0,1.84
 74085981,0.0244824721,-4.5072851197\H,0,2.8532925728,1.2228641999,-3.6
 655027626\C,0,1.317100354,0.2876542778,-2.454953338\O,0,0.6227534124,-
 0.7272963888,-2.3719385711\N,0,1.6703157672,1.009404602,-1.3541902956\
 H,0,2.0299073188,1.9517887443,-1.50533485\C,0,1.2226890856,0.566196799
 7,-0.0481918757\H,0,0.1345126866,0.6144381811,0.0611078933\H,0,1.66405
 14905,1.2189486526,0.7106940678\C,0,1.6733442951,-0.8782623943,0.20034
 17992\O,0,0.9456977462,-1.7239072939,0.7526360901\N,0,2.9250758092,-1.
 1457483439,-0.1948327884\H,0,3.355000862,-0.4505131114,-0.8015924612\C
 ,0,3.3902448971,-2.4885124513,-0.4687455087\H,0,4.2189685603,-2.765758
 8551,0.1943340415\H,0,2.5702337134,-3.1899576086,-0.2916014754\C,0,3.8
 556322179,-2.5181061483,-1.9361705338\O,0,3.9143674065,-1.4822844442,-
 2.5943455516\N,0,4.2144883078,-3.7374098007,-2.4053384813\H,0,4.080900
 4588,-4.546272306,-1.8117491925\C,0,4.6114352957,-3.9671641333,-3.7883
 00588\H,0,3.8806453914,-4.594347303,-4.3064439521\H,0,4.6290526211,-2.
 9905906572,-4.2793356128\C,0,5.9813060806,-4.6253112379,-3.9697469258\
 O,0,6.236507248,-5.2336543813,-4.9948428034\N,0,6.8549624,-4.481309863
 3,-2.9255632193\H,0,6.6355126239,-3.7708965585,-2.24053622\C,0,8.24804
 69727,-4.8297019768,-3.1060290308\H,0,8.6826525305,-5.1800645463,-2.16
 52116663\H,0,8.2960965602,-5.6536835513,-3.8220175194\C,0,9.1383312566
 ,-3.714219679,-3.6412876222\O,0,10.3263278769,-3.835808615,-3.81174903
 98\O,0,8.4540785751,-2.5727474185,-3.8933782647\H,0,9.1082848297,-1.94
 09299458,-4.2482574399\\Version=ES64L-G16RevC.01\HF=-1741.0352134\RMSD
 =7.540e-09\Dipole=-5.1949885,0.8111026,3.1870412\Quadrupole=1.9776006,
 11.8834618,-13.8610624,0.0280088,14.6663323,-22.4425647\PG=C01 [X(C16H
 27N8O9)]\\@
 The archive entry for this job was punched.


 NEVER LOSE YOUR IGNORANCE, IT CAN'T BE REPLACED.
   -- ANDY CAPP
 Job cpu time:       0 days  0 hours  1 minutes 23.2 seconds.
 Elapsed time:       0 days  0 hours  0 minutes 21.5 seconds.
 File lengths (MBytes):  RWF=    272 Int=      0 D2E=      0 Chk=     40 Scr=     16
 Normal termination of Gaussian 16 at Tue Jul 19 19:28:55 2022.
