 Entering Gaussian System, Link 0=/opt/software/Gaussian/g16-AVX2-C.01/g16/g16
 Input=charge-conf-950.com
 Output=charge-conf-950.log
 Initial command:
 /opt/software/Gaussian/g16-AVX2-C.01/g16/l1.exe "/mnt/gs18/scratch/users/kengmith/Gau-38235.inp" -scrdir="/mnt/gs18/scratch/users/kengmith/"
 Entering Link 1 = /opt/software/Gaussian/g16-AVX2-C.01/g16/l1.exe PID=     38245.
  
 Copyright (c) 1988-2019, Gaussian, Inc.  All Rights Reserved.
  
 This is part of the Gaussian(R) 16 program.  It is based on
 the Gaussian(R) 09 system (copyright 2009, Gaussian, Inc.),
 the Gaussian(R) 03 system (copyright 2003, Gaussian, Inc.),
 the Gaussian(R) 98 system (copyright 1998, Gaussian, Inc.),
 the Gaussian(R) 94 system (copyright 1995, Gaussian, Inc.),
 the Gaussian 92(TM) system (copyright 1992, Gaussian, Inc.),
 the Gaussian 90(TM) system (copyright 1990, Gaussian, Inc.),
 the Gaussian 88(TM) system (copyright 1988, Gaussian, Inc.),
 the Gaussian 86(TM) system (copyright 1986, Carnegie Mellon
 University), and the Gaussian 82(TM) system (copyright 1983,
 Carnegie Mellon University). Gaussian is a federally registered
 trademark of Gaussian, Inc.
  
 This software contains proprietary and confidential information,
 including trade secrets, belonging to Gaussian, Inc.
  
 This software is provided under written license and may be
 used, copied, transmitted, or stored only in accord with that
 written license.
  
 The following legend is applicable only to US Government
 contracts under FAR:
  
                    RESTRICTED RIGHTS LEGEND
  
 Use, reproduction and disclosure by the US Government is
 subject to restrictions as set forth in subparagraphs (a)
 and (c) of the Commercial Computer Software - Restricted
 Rights clause in FAR 52.227-19.
  
 Gaussian, Inc.
 340 Quinnipiac St., Bldg. 40, Wallingford CT 06492
  
  
 ---------------------------------------------------------------
 Warning -- This program may not be used in any manner that
 competes with the business of Gaussian, Inc. or will provide
 assistance to any competitor of Gaussian, Inc.  The licensee
 of this program is prohibited from giving any competitor of
 Gaussian, Inc. access to this program.  By using this program,
 the user acknowledges that Gaussian, Inc. is engaged in the
 business of creating and licensing software in the field of
 computational chemistry and represents and warrants to the
 licensee that it is not a competitor of Gaussian, Inc. and that
 it will not use this program in any manner prohibited above.
 ---------------------------------------------------------------
  

 Cite this work as:
 Gaussian 16, Revision C.01,
 M. J. Frisch, G. W. Trucks, H. B. Schlegel, G. E. Scuseria, 
 M. A. Robb, J. R. Cheeseman, G. Scalmani, V. Barone, 
 G. A. Petersson, H. Nakatsuji, X. Li, M. Caricato, A. V. Marenich, 
 J. Bloino, B. G. Janesko, R. Gomperts, B. Mennucci, H. P. Hratchian, 
 J. V. Ortiz, A. F. Izmaylov, J. L. Sonnenberg, D. Williams-Young, 
 F. Ding, F. Lipparini, F. Egidi, J. Goings, B. Peng, A. Petrone, 
 T. Henderson, D. Ranasinghe, V. G. Zakrzewski, J. Gao, N. Rega, 
 G. Zheng, W. Liang, M. Hada, M. Ehara, K. Toyota, R. Fukuda, 
 J. Hasegawa, M. Ishida, T. Nakajima, Y. Honda, O. Kitao, H. Nakai, 
 T. Vreven, K. Throssell, J. A. Montgomery, Jr., J. E. Peralta, 
 F. Ogliaro, M. J. Bearpark, J. J. Heyd, E. N. Brothers, K. N. Kudin, 
 V. N. Staroverov, T. A. Keith, R. Kobayashi, J. Normand, 
 K. Raghavachari, A. P. Rendell, J. C. Burant, S. S. Iyengar, 
 J. Tomasi, M. Cossi, J. M. Millam, M. Klene, C. Adamo, R. Cammi, 
 J. W. Ochterski, R. L. Martin, K. Morokuma, O. Farkas, 
 J. B. Foresman, and D. J. Fox, Gaussian, Inc., Wallingford CT, 2019.
 
 ******************************************
 Gaussian 16:  ES64L-G16RevC.01  3-Jul-2019
                14-Jul-2022 
 ******************************************
 %mem=8gb
 %nproc=4
 Will use up to    4 processors via shared memory.
 %chk=conf-950.chk
 ----------------------------------------------------------------------
 # B3LYP/6-31G* empiricaldispersion=gd3bj guess=read geom=check nosymm 
 integral(ultrafinegrid)
 ----------------------------------------------------------------------
 1/29=2,38=1,172=1/1;
 2/12=2,15=1,40=1/2;
 3/5=1,6=6,7=1,11=2,14=-4,25=1,30=1,74=-5,75=-5,116=-2,124=41/1,2,3;
 4/5=1/1;
 5/5=2,38=6/2;
 6/7=2,8=2,9=2,10=2,28=1/1;
 99/5=1,9=1/99;
 ------------------------------------------------------
 Candidate Structure: Conf:950 Charge calc in gas phase
 ------------------------------------------------------
 Structure from the checkpoint file:  "conf-950.chk"
 Charge =  1 Multiplicity = 1
 Redundant internal coordinates found in file.  (old form).
 N,0,-5.4064773444,4.2872770158,-2.2546701537
 H,0,-6.043131543,4.5641659224,-2.9975960137
 H,0,-4.7468292176,2.7302404543,-2.4847738649
 H,0,-4.6629905529,4.9827647842,-2.1908376489
 C,0,-6.1013385158,4.2649704396,-0.9528226405
 H,0,-6.6602078747,5.2022284362,-0.7892406868
 C,0,-4.9477559509,4.2748262114,0.0726464957
 C,0,-7.0999351587,3.0868949848,-0.8482050003
 H,0,-6.5281885046,2.1761335743,-0.6220943134
 O,0,-3.9448185232,4.9510405783,-0.1593128765
 C,0,-8.13744809,3.3471270026,0.2577060573
 H,0,-8.7998817305,4.1702964284,-0.0362918842
 H,0,-8.7597000116,2.4610216972,0.4173355389
 H,0,-7.6936173111,3.6240036168,1.2193520654
 C,0,-7.8289312911,2.8333036141,-2.1761476753
 H,0,-8.3523136492,3.73473195,-2.521866579
 H,0,-7.1428473874,2.4982213344,-2.9581550018
 H,0,-8.5830940666,2.0512696581,-2.0417466821
 N,0,-5.0808460276,3.5289756993,1.1983156299
 H,0,-5.8169824832,2.8373534873,1.2533923021
 C,0,-3.9437734057,3.2735243091,2.0705041736
 H,0,-3.107604106,3.8669210657,1.6981266107
 C,0,-3.6682153637,1.7695902517,1.990682724
 C,0,-4.250404851,3.6754688992,3.5105406361
 H,0,-5.1136596157,3.0939301458,3.8645703042
 H,0,-4.510538314,4.743333893,3.5324970104
 O,0,-4.5566721461,0.9603030273,2.2554648412
 O,0,-3.0775355195,3.3902877348,4.2587437642
 H,0,-3.268947376,3.5497724186,5.1946257646
 N,0,-2.4368470312,1.4163708238,1.5682514964
 H,0,-1.7322467019,2.1086872573,1.3455336138
 C,0,-2.0482830198,0.0309171681,1.419994481
 H,0,-2.3312041195,-0.5129545398,2.3297156565
 C,0,-0.5361200621,0.0158257067,1.2447891582
 C,0,-2.7183422406,-0.6380285176,0.2021905945
 H,0,-2.4880296408,-1.7088961,0.1625101094
 H,0,-2.3864701383,-0.168529784,-0.72631839
 H,0,-3.7994728366,-0.5224403612,0.2955406918
 O,0,0.1007360646,1.0361592211,0.9643305325
 N,0,0.0699782487,-1.1949695574,1.3469643249
 H,0,-0.4955505356,-2.0218999866,1.484967749
 C,0,1.5011565536,-1.3549789182,1.1008230478
 H,0,1.9693731165,-0.425693905,1.4376749877
 C,0,1.7706094852,-1.4621156663,-0.4111673769
 C,0,2.0713982059,-2.5392435171,1.8780865395
 H,0,1.6657929105,-3.4721679848,1.4619401214
 H,0,3.155731903,-2.5560755393,1.6976254925
 O,0,2.2858128341,-2.4729201462,-0.9423455217
 C,0,1.8294763745,-2.4969427675,3.3970042816
 H,0,0.7457448197,-2.5443343278,3.5706434412
 C,0,2.464750127,-3.7299188765,4.0509682521
 H,0,3.5560585542,-3.7180399613,3.9292606504
 H,0,2.2552488395,-3.7562972901,5.1247774679
 H,0,2.0830301137,-4.6607703107,3.6138240798
 C,0,2.3533294138,-1.2028390067,4.0308931966
 H,0,3.4235524372,-1.0699747719,3.8259164196
 H,0,2.2259145618,-1.229572104,5.1176899615
 H,0,1.8246576263,-0.3181152459,3.661588266
 N,0,1.3899956837,-0.4122970503,-1.1337308143
 H,0,0.9953389744,0.3917142628,-0.6444676311
 C,0,1.6560161862,-0.3205153442,-2.5563789743
 H,0,1.1430904813,-1.1445802813,-3.0648327742
 C,0,3.1677831903,-0.4660306084,-2.7880536549
 C,0,1.1346986744,1.0268314775,-3.0949993276
 H,0,1.4045927251,1.0840292188,-4.1573392679
 H,0,1.6825660531,1.8324563911,-2.5923485606
 O,0,3.9904787642,-0.153011181,-1.9336669233
 C,0,-0.3562444486,1.2072621648,-2.9111943961
 C,0,-1.2661678724,0.3279821837,-3.5171849343
 H,0,-0.8990312942,-0.5083277668,-4.1095939896
 C,0,-0.8734120128,2.2736291155,-2.1678167892
 H,0,-0.1913998359,2.9645608596,-1.6776644952
 C,0,-2.637063298,0.5196897021,-3.4081881674
 H,0,-3.3395088303,-0.1484585597,-3.8958571848
 C,0,-2.2477913778,2.486723874,-2.0529417614
 H,0,-2.6218361734,3.3271287141,-1.4758183776
 O,0,-4.4859396942,1.7667050141,-2.640337228
 C,0,-3.1476022389,1.6163871307,-2.6908983489
 N,0,3.5040871653,-0.9819824245,-4.001290362
 H,0,2.8068968335,-1.0270954848,-4.7359374005
 C,0,4.8842955567,-1.0681290625,-4.4353322356
 H,0,5.4847905917,-0.4928509728,-3.7262657535
 C,0,4.9886989971,-0.4328740544,-5.8151038961
 C,0,5.4021453495,-2.5288195526,-4.5036201598
 H,0,4.9417639006,-3.024643636,-5.3669313085
 H,0,6.4805141921,-2.4982570832,-4.6927177374
 O,0,4.0347887259,-0.1680296339,-6.512543024
 C,0,5.0982365152,-3.364551383,-3.2533194261
 H,0,5.4521206939,-4.3881739326,-3.4442749531
 H,0,4.0075399336,-3.4084403625,-3.1368685228
 C,0,5.728038584,-2.8221428609,-1.9624916264
 H,0,6.8021748096,-2.6535975986,-2.1100268688
 H,0,5.2835239097,-1.8557940651,-1.7077809834
 C,0,5.6033621781,-3.7707088902,-0.773249165
 H,0,5.8983454525,-3.2822794143,0.1581786735
 H,0,6.206063501,-4.6746779174,-0.8993609007
 N,0,4.1754901068,-4.2356201536,-0.5775047391
 H,0,4.0732594157,-4.7726879408,0.2874187309
 H,0,3.4549541756,-3.4359218702,-0.5687024361
 H,0,3.890379942,-4.8427212871,-1.3512047067
 O,0,6.2689536488,-0.2492908214,-6.1794641024
 H,0,6.2644569635,0.1257437493,-7.0814745176
 Recover connectivity data from disk.
                           ----------------------------
                           !    Current Parameters    !
                           ! (Angstroms and Degrees)  !
 --------------------------                            --------------------------
 ! Name  Definition              Value                                          !
 --------------------------------------------------------------------------------
 ! R1    R(1,2)                  1.0168                                         !
 ! R2    R(1,3)                  1.7066                                         !
 ! R3    R(1,4)                  1.0201                                         !
 ! R4    R(1,5)                  1.4759                                         !
 ! R5    R(5,6)                  1.1034                                         !
 ! R6    R(5,7)                  1.5435                                         !
 ! R7    R(5,8)                  1.5479                                         !
 ! R8    R(7,10)                 1.2316                                         !
 ! R9    R(7,19)                 1.3569                                         !
 ! R10   R(8,9)                  1.0989                                         !
 ! R11   R(8,11)                 1.5386                                         !
 ! R12   R(8,15)                 1.536                                          !
 ! R13   R(11,12)                1.0968                                         !
 ! R14   R(11,13)                1.0945                                         !
 ! R15   R(11,14)                1.0947                                         !
 ! R16   R(15,16)                1.0982                                         !
 ! R17   R(15,17)                1.0929                                         !
 ! R18   R(15,18)                1.0947                                         !
 ! R19   R(19,20)                1.0116                                         !
 ! R20   R(19,21)                1.4556                                         !
 ! R21   R(21,22)                1.0909                                         !
 ! R22   R(21,23)                1.5311                                         !
 ! R23   R(21,24)                1.5262                                         !
 ! R24   R(23,27)                1.2306                                         !
 ! R25   R(23,30)                1.3489                                         !
 ! R26   R(24,25)                1.0994                                         !
 ! R27   R(24,26)                1.0993                                         !
 ! R28   R(24,28)                1.4201                                         !
 ! R29   R(28,29)                0.9685                                         !
 ! R30   R(30,31)                1.0126                                         !
 ! R31   R(30,32)                1.4465                                         !
 ! R32   R(32,33)                1.097                                          !
 ! R33   R(32,34)                1.5224                                         !
 ! R34   R(32,35)                1.5426                                         !
 ! R35   R(34,39)                1.235                                          !
 ! R36   R(34,40)                1.3579                                         !
 ! R37   R(35,36)                1.0961                                         !
 ! R38   R(35,37)                1.0921                                         !
 ! R39   R(35,38)                1.0913                                         !
 ! R40   R(40,41)                1.0113                                         !
 ! R41   R(40,42)                1.461                                          !
 ! R42   R(42,43)                1.0937                                         !
 ! R43   R(42,44)                1.5395                                         !
 ! R44   R(42,45)                1.527                                          !
 ! R45   R(44,48)                1.2527                                         !
 ! R46   R(44,59)                1.3301                                         !
 ! R47   R(45,46)                1.0991                                         !
 ! R48   R(45,47)                1.0994                                         !
 ! R49   R(45,49)                1.5386                                         !
 ! R50   R(49,50)                1.0986                                         !
 ! R51   R(49,51)                1.5335                                         !
 ! R52   R(49,55)                1.5333                                         !
 ! R53   R(51,52)                1.0981                                         !
 ! R54   R(51,53)                1.0944                                         !
 ! R55   R(51,54)                1.0969                                         !
 ! R56   R(55,56)                1.0977                                         !
 ! R57   R(55,57)                1.0946                                         !
 ! R58   R(55,58)                1.0948                                         !
 ! R59   R(59,60)                1.0206                                         !
 ! R60   R(59,61)                1.4502                                         !
 ! R61   R(61,62)                1.0958                                         !
 ! R62   R(61,63)                1.5363                                         !
 ! R63   R(61,64)                1.5418                                         !
 ! R64   R(63,67)                1.2267                                         !
 ! R65   R(63,79)                1.3606                                         !
 ! R66   R(64,65)                1.0976                                         !
 ! R67   R(64,66)                1.0963                                         !
 ! R68   R(64,68)                1.513                                          !
 ! R69   R(68,69)                1.403                                          !
 ! R70   R(68,71)                1.399                                          !
 ! R71   R(69,70)                1.0886                                         !
 ! R72   R(69,73)                1.3885                                         !
 ! R73   R(71,72)                1.0876                                         !
 ! R74   R(71,75)                1.3955                                         !
 ! R75   R(73,74)                1.0852                                         !
 ! R76   R(73,78)                1.4064                                         !
 ! R77   R(75,76)                1.0859                                         !
 ! R78   R(75,78)                1.405                                          !
 ! R79   R(77,78)                1.3477                                         !
 ! R80   R(79,80)                1.0138                                         !
 ! R81   R(79,81)                1.4494                                         !
 ! R82   R(81,82)                1.0928                                         !
 ! R83   R(81,83)                1.5226                                         !
 ! R84   R(81,84)                1.5513                                         !
 ! R85   R(83,87)                1.211                                          !
 ! R86   R(83,101)               1.3437                                         !
 ! R87   R(84,85)                1.0969                                         !
 ! R88   R(84,86)                1.0952                                         !
 ! R89   R(84,88)                1.5343                                         !
 ! R90   R(88,89)                1.0998                                         !
 ! R91   R(88,90)                1.0978                                         !
 ! R92   R(88,91)                1.5353                                         !
 ! R93   R(91,92)                1.0972                                         !
 ! R94   R(91,93)                1.0938                                         !
 ! R95   R(91,94)                1.5263                                         !
 ! R96   R(94,95)                1.0923                                         !
 ! R97   R(94,96)                1.0938                                         !
 ! R98   R(94,97)                1.5144                                         !
 ! R99   R(97,98)                1.0232                                         !
 ! R100  R(97,99)                1.0765                                         !
 ! R101  R(97,100)               1.0239                                         !
 ! R102  R(101,102)              0.9769                                         !
 ! A1    A(2,1,3)              113.0756                                         !
 ! A2    A(2,1,4)              108.4461                                         !
 ! A3    A(2,1,5)              110.7209                                         !
 ! A4    A(3,1,4)              110.4119                                         !
 ! A5    A(3,1,5)              106.6863                                         !
 ! A6    A(4,1,5)              107.3535                                         !
 ! A7    A(1,5,6)              110.8791                                         !
 ! A8    A(1,5,7)              103.5367                                         !
 ! A9    A(1,5,8)              112.0158                                         !
 ! A10   A(6,5,7)              105.9393                                         !
 ! A11   A(6,5,8)              108.041                                          !
 ! A12   A(7,5,8)              116.2386                                         !
 ! A13   A(5,7,10)             119.1419                                         !
 ! A14   A(5,7,19)             118.3168                                         !
 ! A15   A(10,7,19)            122.541                                          !
 ! A16   A(5,8,9)              108.0013                                         !
 ! A17   A(5,8,11)             110.7865                                         !
 ! A18   A(5,8,15)             111.9263                                         !
 ! A19   A(9,8,11)             110.0685                                         !
 ! A20   A(9,8,15)             106.7387                                         !
 ! A21   A(11,8,15)            109.2273                                         !
 ! A22   A(8,11,12)            109.9722                                         !
 ! A23   A(8,11,13)            110.5661                                         !
 ! A24   A(8,11,14)            113.6282                                         !
 ! A25   A(12,11,13)           107.6597                                         !
 ! A26   A(12,11,14)           106.8894                                         !
 ! A27   A(13,11,14)           107.8877                                         !
 ! A28   A(8,15,16)            111.2752                                         !
 ! A29   A(8,15,17)            111.7949                                         !
 ! A30   A(8,15,18)            109.802                                          !
 ! A31   A(16,15,17)           109.0008                                         !
 ! A32   A(16,15,18)           107.2596                                         !
 ! A33   A(17,15,18)           107.5348                                         !
 ! A34   A(7,19,20)            119.4964                                         !
 ! A35   A(7,19,21)            121.1259                                         !
 ! A36   A(20,19,21)           114.5726                                         !
 ! A37   A(19,21,22)           107.3838                                         !
 ! A38   A(19,21,23)           106.3637                                         !
 ! A39   A(19,21,24)           111.2348                                         !
 ! A40   A(22,21,23)           112.2459                                         !
 ! A41   A(22,21,24)           109.4408                                         !
 ! A42   A(23,21,24)           110.1238                                         !
 ! A43   A(21,23,27)           120.3197                                         !
 ! A44   A(21,23,30)           115.9668                                         !
 ! A45   A(27,23,30)           123.6585                                         !
 ! A46   A(21,24,25)           108.801                                          !
 ! A47   A(21,24,26)           108.797                                          !
 ! A48   A(21,24,28)           106.1584                                         !
 ! A49   A(25,24,26)           108.7588                                         !
 ! A50   A(25,24,28)           111.8763                                         !
 ! A51   A(26,24,28)           112.3324                                         !
 ! A52   A(24,28,29)           108.2295                                         !
 ! A53   A(23,30,31)           121.6721                                         !
 ! A54   A(23,30,32)           121.8785                                         !
 ! A55   A(31,30,32)           116.4475                                         !
 ! A56   A(30,32,33)           108.6976                                         !
 ! A57   A(30,32,34)           106.7449                                         !
 ! A58   A(30,32,35)           112.3076                                         !
 ! A59   A(33,32,34)           110.2856                                         !
 ! A60   A(33,32,35)           109.1267                                         !
 ! A61   A(34,32,35)           109.6525                                         !
 ! A62   A(32,34,39)           122.0156                                         !
 ! A63   A(32,34,40)           116.3306                                         !
 ! A64   A(39,34,40)           121.5733                                         !
 ! A65   A(32,35,36)           111.1611                                         !
 ! A66   A(32,35,37)           110.657                                          !
 ! A67   A(32,35,38)           108.4738                                         !
 ! A68   A(36,35,37)           108.9888                                         !
 ! A69   A(36,35,38)           108.3456                                         !
 ! A70   A(37,35,38)           109.1623                                         !
 ! A71   A(34,40,41)           119.327                                          !
 ! A72   A(34,40,42)           121.4823                                         !
 ! A73   A(41,40,42)           118.767                                          !
 ! A74   A(40,42,43)           105.9271                                         !
 ! A75   A(40,42,44)           110.1534                                         !
 ! A76   A(40,42,45)           111.4075                                         !
 ! A77   A(43,42,44)           106.6588                                         !
 ! A78   A(43,42,45)           110.0172                                         !
 ! A79   A(44,42,45)           112.3688                                         !
 ! A80   A(42,44,48)           122.9947                                         !
 ! A81   A(42,44,59)           115.3736                                         !
 ! A82   A(48,44,59)           121.6152                                         !
 ! A83   A(42,45,46)           109.1322                                         !
 ! A84   A(42,45,47)           107.2562                                         !
 ! A85   A(42,45,49)           114.989                                          !
 ! A86   A(46,45,47)           106.7883                                         !
 ! A87   A(46,45,49)           109.8208                                         !
 ! A88   A(47,45,49)           108.5145                                         !
 ! A89   A(45,49,50)           108.0563                                         !
 ! A90   A(45,49,51)           109.4969                                         !
 ! A91   A(45,49,55)           112.1854                                         !
 ! A92   A(50,49,51)           107.8536                                         !
 ! A93   A(50,49,55)           107.945                                          !
 ! A94   A(51,49,55)           111.1481                                         !
 ! A95   A(49,51,52)           110.8386                                         !
 ! A96   A(49,51,53)           111.0097                                         !
 ! A97   A(49,51,54)           111.6043                                         !
 ! A98   A(52,51,53)           107.4128                                         !
 ! A99   A(52,51,54)           108.1094                                         !
 ! A100  A(53,51,54)           107.6951                                         !
 ! A101  A(49,55,56)           110.9803                                         !
 ! A102  A(49,55,57)           110.4935                                         !
 ! A103  A(49,55,58)           112.1858                                         !
 ! A104  A(56,55,57)           107.5684                                         !
 ! A105  A(56,55,58)           108.0584                                         !
 ! A106  A(57,55,58)           107.3647                                         !
 ! A107  A(44,59,60)           118.1664                                         !
 ! A108  A(44,59,61)           122.0317                                         !
 ! A109  A(60,59,61)           119.4303                                         !
 ! A110  A(59,61,62)           108.7679                                         !
 ! A111  A(59,61,63)           108.8106                                         !
 ! A112  A(59,61,64)           109.6323                                         !
 ! A113  A(62,61,63)           108.6274                                         !
 ! A114  A(62,61,64)           109.6829                                         !
 ! A115  A(63,61,64)           111.2724                                         !
 ! A116  A(61,63,67)           122.0555                                         !
 ! A117  A(61,63,79)           114.4314                                         !
 ! A118  A(67,63,79)           123.5078                                         !
 ! A119  A(61,64,65)           107.4888                                         !
 ! A120  A(61,64,66)           108.2418                                         !
 ! A121  A(61,64,68)           113.2631                                         !
 ! A122  A(65,64,66)           106.4153                                         !
 ! A123  A(65,64,68)           110.7124                                         !
 ! A124  A(66,64,68)           110.4335                                         !
 ! A125  A(64,68,69)           120.79                                           !
 ! A126  A(64,68,71)           121.3135                                         !
 ! A127  A(69,68,71)           117.8703                                         !
 ! A128  A(68,69,70)           119.8533                                         !
 ! A129  A(68,69,73)           121.3257                                         !
 ! A130  A(70,69,73)           118.7992                                         !
 ! A131  A(68,71,72)           119.4663                                         !
 ! A132  A(68,71,75)           121.614                                          !
 ! A133  A(72,71,75)           118.9135                                         !
 ! A134  A(69,73,74)           121.2515                                         !
 ! A135  A(69,73,78)           120.405                                          !
 ! A136  A(74,73,78)           118.3159                                         !
 ! A137  A(71,75,76)           120.0755                                         !
 ! A138  A(71,75,78)           119.917                                          !
 ! A139  A(76,75,78)           120.0066                                         !
 ! A140  A(73,78,75)           118.825                                          !
 ! A141  A(73,78,77)           117.8142                                         !
 ! A142  A(75,78,77)           123.3562                                         !
 ! A143  A(63,79,80)           119.5411                                         !
 ! A144  A(63,79,81)           121.6639                                         !
 ! A145  A(80,79,81)           115.7988                                         !
 ! A146  A(79,81,82)           107.317                                          !
 ! A147  A(79,81,83)           108.1722                                         !
 ! A148  A(79,81,84)           112.7699                                         !
 ! A149  A(82,81,83)           109.3092                                         !
 ! A150  A(82,81,84)           109.9256                                         !
 ! A151  A(83,81,84)           109.2737                                         !
 ! A152  A(81,83,87)           123.9965                                         !
 ! A153  A(81,83,101)          111.5965                                         !
 ! A154  A(87,83,101)          124.3654                                         !
 ! A155  A(81,84,85)           108.6737                                         !
 ! A156  A(81,84,86)           108.0594                                         !
 ! A157  A(81,84,88)           114.2613                                         !
 ! A158  A(85,84,86)           106.8568                                         !
 ! A159  A(85,84,88)           108.1813                                         !
 ! A160  A(86,84,88)           110.5435                                         !
 ! A161  A(84,88,89)           107.563                                          !
 ! A162  A(84,88,90)           107.7595                                         !
 ! A163  A(84,88,91)           114.2962                                         !
 ! A164  A(89,88,90)           107.5124                                         !
 ! A165  A(89,88,91)           110.0486                                         !
 ! A166  A(90,88,91)           109.4212                                         !
 ! A167  A(88,91,92)           110.0475                                         !
 ! A168  A(88,91,93)           109.9513                                         !
 ! A169  A(88,91,94)           113.7049                                         !
 ! A170  A(92,91,93)           107.0646                                         !
 ! A171  A(92,91,94)           106.2718                                         !
 ! A172  A(93,91,94)           109.5383                                         !
 ! A173  A(91,94,95)           111.3737                                         !
 ! A174  A(91,94,96)           112.2586                                         !
 ! A175  A(91,94,97)           111.6249                                         !
 ! A176  A(95,94,96)           108.6068                                         !
 ! A177  A(95,94,97)           106.361                                          !
 ! A178  A(96,94,97)           106.3043                                         !
 ! A179  A(94,97,98)           111.3833                                         !
 ! A180  A(94,97,99)           113.8357                                         !
 ! A181  A(94,97,100)          110.2974                                         !
 ! A182  A(98,97,99)           108.4298                                         !
 ! A183  A(98,97,100)          107.4388                                         !
 ! A184  A(99,97,100)          105.0859                                         !
 ! A185  A(83,101,102)         107.3644                                         !
 ! D1    D(2,1,5,6)            -49.6161                                         !
 ! D2    D(2,1,5,7)           -162.8291                                         !
 ! D3    D(2,1,5,8)             71.1657                                         !
 ! D4    D(3,1,5,6)           -173.0425                                         !
 ! D5    D(3,1,5,7)             73.7445                                         !
 ! D6    D(3,1,5,8)            -52.2607                                         !
 ! D7    D(4,1,5,6)             68.5896                                         !
 ! D8    D(4,1,5,7)            -44.6235                                         !
 ! D9    D(4,1,5,8)           -170.6286                                         !
 ! D10   D(1,5,7,10)            37.7074                                         !
 ! D11   D(1,5,7,19)          -142.0874                                         !
 ! D12   D(6,5,7,10)           -79.0361                                         !
 ! D13   D(6,5,7,19)           101.1692                                         !
 ! D14   D(8,5,7,10)           160.9738                                         !
 ! D15   D(8,5,7,19)           -18.8209                                         !
 ! D16   D(1,5,8,9)             79.0962                                         !
 ! D17   D(1,5,8,11)          -160.2885                                         !
 ! D18   D(1,5,8,15)           -38.1133                                         !
 ! D19   D(6,5,8,9)           -158.4917                                         !
 ! D20   D(6,5,8,11)           -37.8763                                         !
 ! D21   D(6,5,8,15)            84.2989                                         !
 ! D22   D(7,5,8,9)            -39.6404                                         !
 ! D23   D(7,5,8,11)            80.975                                          !
 ! D24   D(7,5,8,15)          -156.8498                                         !
 ! D25   D(5,7,19,20)           13.3194                                         !
 ! D26   D(5,7,19,21)          167.4404                                         !
 ! D27   D(10,7,19,20)        -166.4679                                         !
 ! D28   D(10,7,19,21)         -12.3469                                         !
 ! D29   D(5,8,11,12)           68.5792                                         !
 ! D30   D(5,8,11,13)         -172.6634                                         !
 ! D31   D(5,8,11,14)          -51.1822                                         !
 ! D32   D(9,8,11,12)         -172.0409                                         !
 ! D33   D(9,8,11,13)          -53.2835                                         !
 ! D34   D(9,8,11,14)           68.1977                                         !
 ! D35   D(15,8,11,12)         -55.159                                          !
 ! D36   D(15,8,11,13)          63.5984                                         !
 ! D37   D(15,8,11,14)        -174.9204                                         !
 ! D38   D(5,8,15,16)          -56.7454                                         !
 ! D39   D(5,8,15,17)           65.3947                                         !
 ! D40   D(5,8,15,18)         -175.3404                                         !
 ! D41   D(9,8,15,16)         -174.7108                                         !
 ! D42   D(9,8,15,17)          -52.5706                                         !
 ! D43   D(9,8,15,18)           66.6943                                         !
 ! D44   D(11,8,15,16)          66.3169                                         !
 ! D45   D(11,8,15,17)        -171.543                                          !
 ! D46   D(11,8,15,18)         -52.2781                                         !
 ! D47   D(7,19,21,22)           6.4077                                         !
 ! D48   D(7,19,21,23)        -113.9487                                         !
 ! D49   D(7,19,21,24)         126.1314                                         !
 ! D50   D(20,19,21,22)        161.7163                                         !
 ! D51   D(20,19,21,23)         41.3599                                         !
 ! D52   D(20,19,21,24)        -78.5601                                         !
 ! D53   D(19,21,23,27)        -56.1082                                         !
 ! D54   D(19,21,23,30)        121.2917                                         !
 ! D55   D(22,21,23,27)       -173.2714                                         !
 ! D56   D(22,21,23,30)          4.1284                                         !
 ! D57   D(24,21,23,27)         64.53                                           !
 ! D58   D(24,21,23,30)       -118.0701                                         !
 ! D59   D(19,21,24,25)         59.7657                                         !
 ! D60   D(19,21,24,26)        -58.5759                                         !
 ! D61   D(19,21,24,28)       -179.6746                                         !
 ! D62   D(22,21,24,25)        178.2595                                         !
 ! D63   D(22,21,24,26)         59.9179                                         !
 ! D64   D(22,21,24,28)        -61.1809                                         !
 ! D65   D(23,21,24,25)        -57.8985                                         !
 ! D66   D(23,21,24,26)       -176.2401                                         !
 ! D67   D(23,21,24,28)         62.6612                                         !
 ! D68   D(21,23,30,31)          1.7742                                         !
 ! D69   D(21,23,30,32)       -178.7609                                         !
 ! D70   D(27,23,30,31)        179.0776                                         !
 ! D71   D(27,23,30,32)         -1.4575                                         !
 ! D72   D(21,24,28,29)       -174.3185                                         !
 ! D73   D(25,24,28,29)        -55.7695                                         !
 ! D74   D(26,24,28,29)         66.8854                                         !
 ! D75   D(23,30,32,33)        -48.3445                                         !
 ! D76   D(23,30,32,34)       -167.2946                                         !
 ! D77   D(23,30,32,35)         72.5028                                         !
 ! D78   D(31,30,32,33)        131.1469                                         !
 ! D79   D(31,30,32,34)         12.1967                                         !
 ! D80   D(31,30,32,35)       -108.0058                                         !
 ! D81   D(30,32,34,39)        -15.5514                                         !
 ! D82   D(30,32,34,40)        167.6648                                         !
 ! D83   D(33,32,34,39)       -133.4633                                         !
 ! D84   D(33,32,34,40)         49.7529                                         !
 ! D85   D(35,32,34,39)        106.3426                                         !
 ! D86   D(35,32,34,40)        -70.4411                                         !
 ! D87   D(30,32,35,36)       -174.5554                                         !
 ! D88   D(30,32,35,37)         64.1913                                         !
 ! D89   D(30,32,35,38)        -55.532                                          !
 ! D90   D(33,32,35,36)        -53.9555                                         !
 ! D91   D(33,32,35,37)       -175.2088                                         !
 ! D92   D(33,32,35,38)         65.0679                                         !
 ! D93   D(34,32,35,36)         66.942                                          !
 ! D94   D(34,32,35,37)        -54.3113                                         !
 ! D95   D(34,32,35,38)       -174.0346                                         !
 ! D96   D(32,34,40,41)          2.9832                                         !
 ! D97   D(32,34,40,42)        175.4202                                         !
 ! D98   D(39,34,40,41)       -173.816                                          !
 ! D99   D(39,34,40,42)         -1.3789                                         !
 ! D100  D(34,40,42,43)         33.1407                                         !
 ! D101  D(34,40,42,44)        -81.8386                                         !
 ! D102  D(34,40,42,45)        152.7592                                         !
 ! D103  D(41,40,42,43)       -154.3811                                         !
 ! D104  D(41,40,42,44)         90.6396                                         !
 ! D105  D(41,40,42,45)        -34.7626                                         !
 ! D106  D(40,42,44,48)       -118.4476                                         !
 ! D107  D(40,42,44,59)         60.0954                                         !
 ! D108  D(43,42,44,48)        127.0371                                         !
 ! D109  D(43,42,44,59)        -54.4199                                         !
 ! D110  D(45,42,44,48)          6.4056                                         !
 ! D111  D(45,42,44,59)       -175.0514                                         !
 ! D112  D(40,42,45,46)         68.3591                                         !
 ! D113  D(40,42,45,47)       -176.3071                                         !
 ! D114  D(40,42,45,49)        -55.5348                                         !
 ! D115  D(43,42,45,46)       -174.4777                                         !
 ! D116  D(43,42,45,47)        -59.1439                                         !
 ! D117  D(43,42,45,49)         61.6284                                         !
 ! D118  D(44,42,45,46)        -55.8018                                         !
 ! D119  D(44,42,45,47)         59.532                                          !
 ! D120  D(44,42,45,49)       -179.6957                                         !
 ! D121  D(42,44,59,60)          2.7783                                         !
 ! D122  D(42,44,59,61)        175.7361                                         !
 ! D123  D(48,44,59,60)       -178.6566                                         !
 ! D124  D(48,44,59,61)         -5.6988                                         !
 ! D125  D(42,45,49,50)         63.4328                                         !
 ! D126  D(42,45,49,51)       -179.3408                                         !
 ! D127  D(42,45,49,55)        -55.4433                                         !
 ! D128  D(46,45,49,50)        -60.096                                          !
 ! D129  D(46,45,49,51)         57.1304                                         !
 ! D130  D(46,45,49,55)       -178.9722                                         !
 ! D131  D(47,45,49,50)       -176.4863                                         !
 ! D132  D(47,45,49,51)        -59.2599                                         !
 ! D133  D(47,45,49,55)         64.6376                                         !
 ! D134  D(45,49,51,52)         64.1525                                         !
 ! D135  D(45,49,51,53)       -176.5603                                         !
 ! D136  D(45,49,51,54)        -56.4085                                         !
 ! D137  D(50,49,51,52)       -178.4938                                         !
 ! D138  D(50,49,51,53)        -59.2066                                         !
 ! D139  D(50,49,51,54)         60.9452                                         !
 ! D140  D(55,49,51,52)        -60.3514                                         !
 ! D141  D(55,49,51,53)         58.9358                                         !
 ! D142  D(55,49,51,54)        179.0876                                         !
 ! D143  D(45,49,55,56)        -57.1098                                         !
 ! D144  D(45,49,55,57)       -176.348                                          !
 ! D145  D(45,49,55,58)         63.8825                                         !
 ! D146  D(50,49,55,56)       -176.0514                                         !
 ! D147  D(50,49,55,57)         64.7104                                         !
 ! D148  D(50,49,55,58)        -55.0591                                         !
 ! D149  D(51,49,55,56)         65.8614                                         !
 ! D150  D(51,49,55,57)        -53.3768                                         !
 ! D151  D(51,49,55,58)       -173.1463                                         !
 ! D152  D(44,59,61,62)         61.8895                                         !
 ! D153  D(44,59,61,63)        -56.2833                                         !
 ! D154  D(44,59,61,64)       -178.1834                                         !
 ! D155  D(60,59,61,62)       -125.2391                                         !
 ! D156  D(60,59,61,63)        116.5881                                         !
 ! D157  D(60,59,61,64)         -5.3119                                         !
 ! D158  D(59,61,63,67)        -26.9386                                         !
 ! D159  D(59,61,63,79)        152.2513                                         !
 ! D160  D(62,61,63,67)       -145.2                                            !
 ! D161  D(62,61,63,79)         33.9898                                         !
 ! D162  D(64,61,63,67)         93.9593                                         !
 ! D163  D(64,61,63,79)        -86.8508                                         !
 ! D164  D(59,61,64,65)        176.8015                                         !
 ! D165  D(59,61,64,66)         62.2304                                         !
 ! D166  D(59,61,64,68)        -60.5769                                         !
 ! D167  D(62,61,64,65)        -63.8321                                         !
 ! D168  D(62,61,64,66)       -178.4031                                         !
 ! D169  D(62,61,64,68)         58.7896                                         !
 ! D170  D(63,61,64,65)         56.3869                                         !
 ! D171  D(63,61,64,66)        -58.1842                                         !
 ! D172  D(63,61,64,68)        179.0085                                         !
 ! D173  D(61,63,79,80)         14.4226                                         !
 ! D174  D(61,63,79,81)        174.0174                                         !
 ! D175  D(67,63,79,80)       -166.4009                                         !
 ! D176  D(67,63,79,81)         -6.8061                                         !
 ! D177  D(61,64,68,69)        -61.2447                                         !
 ! D178  D(61,64,68,71)        120.6553                                         !
 ! D179  D(65,64,68,69)         59.5705                                         !
 ! D180  D(65,64,68,71)       -118.5295                                         !
 ! D181  D(66,64,68,69)        177.1697                                         !
 ! D182  D(66,64,68,71)         -0.9303                                         !
 ! D183  D(64,68,69,70)          1.3574                                         !
 ! D184  D(64,68,69,73)       -176.9217                                         !
 ! D185  D(71,68,69,70)        179.5212                                         !
 ! D186  D(71,68,69,73)          1.2422                                         !
 ! D187  D(64,68,71,72)         -2.532                                          !
 ! D188  D(64,68,71,75)        176.5577                                         !
 ! D189  D(69,68,71,72)        179.3143                                         !
 ! D190  D(69,68,71,75)         -1.596                                          !
 ! D191  D(68,69,73,74)        178.6159                                         !
 ! D192  D(68,69,73,78)          0.5599                                         !
 ! D193  D(70,69,73,74)          0.3192                                         !
 ! D194  D(70,69,73,78)       -177.7368                                         !
 ! D195  D(68,71,75,76)       -179.5218                                         !
 ! D196  D(68,71,75,78)          0.1454                                         !
 ! D197  D(72,71,75,76)         -0.4272                                         !
 ! D198  D(72,71,75,78)        179.24                                           !
 ! D199  D(69,73,78,75)         -2.0216                                         !
 ! D200  D(69,73,78,77)        178.7349                                         !
 ! D201  D(74,73,78,75)        179.8662                                         !
 ! D202  D(74,73,78,77)          0.6227                                         !
 ! D203  D(71,75,78,73)          1.6704                                         !
 ! D204  D(71,75,78,77)       -179.1306                                         !
 ! D205  D(76,75,78,73)       -178.6623                                         !
 ! D206  D(76,75,78,77)          0.5367                                         !
 ! D207  D(63,79,81,82)        -10.6362                                         !
 ! D208  D(63,79,81,83)       -128.469                                          !
 ! D209  D(63,79,81,84)        110.5636                                         !
 ! D210  D(80,79,81,82)        149.6749                                         !
 ! D211  D(80,79,81,83)         31.8421                                         !
 ! D212  D(80,79,81,84)        -89.1253                                         !
 ! D213  D(79,81,83,87)        -13.7908                                         !
 ! D214  D(79,81,83,101)       168.4675                                         !
 ! D215  D(82,81,83,87)       -130.34                                           !
 ! D216  D(82,81,83,101)        51.9183                                         !
 ! D217  D(84,81,83,87)        109.3239                                         !
 ! D218  D(84,81,83,101)       -68.4179                                         !
 ! D219  D(79,81,84,85)         72.6123                                         !
 ! D220  D(79,81,84,86)       -171.7832                                         !
 ! D221  D(79,81,84,88)        -48.2913                                         !
 ! D222  D(82,81,84,85)       -167.683                                          !
 ! D223  D(82,81,84,86)        -52.0785                                         !
 ! D224  D(82,81,84,88)         71.4134                                         !
 ! D225  D(83,81,84,85)        -47.7251                                         !
 ! D226  D(83,81,84,86)         67.8794                                         !
 ! D227  D(83,81,84,88)       -168.6287                                         !
 ! D228  D(81,83,101,102)      177.803                                          !
 ! D229  D(87,83,101,102)        0.0711                                         !
 ! D230  D(81,84,88,89)        176.4107                                         !
 ! D231  D(81,84,88,90)         60.7659                                         !
 ! D232  D(81,84,88,91)        -61.0821                                         !
 ! D233  D(85,84,88,89)         55.2345                                         !
 ! D234  D(85,84,88,90)        -60.4103                                         !
 ! D235  D(85,84,88,91)        177.7417                                         !
 ! D236  D(86,84,88,89)        -61.4466                                         !
 ! D237  D(86,84,88,90)       -177.0915                                         !
 ! D238  D(86,84,88,91)         61.0606                                         !
 ! D239  D(84,88,91,92)        -51.9098                                         !
 ! D240  D(84,88,91,93)         65.7866                                         !
 ! D241  D(84,88,91,94)       -170.986                                          !
 ! D242  D(89,88,91,92)         69.2334                                         !
 ! D243  D(89,88,91,93)       -173.0701                                         !
 ! D244  D(89,88,91,94)        -49.8428                                         !
 ! D245  D(90,88,91,92)       -172.8417                                         !
 ! D246  D(90,88,91,93)        -55.1452                                         !
 ! D247  D(90,88,91,94)         68.0821                                         !
 ! D248  D(88,91,94,95)       -169.8017                                         !
 ! D249  D(88,91,94,96)         68.1655                                         !
 ! D250  D(88,91,94,97)        -51.0807                                         !
 ! D251  D(92,91,94,95)         68.9889                                         !
 ! D252  D(92,91,94,96)        -53.0439                                         !
 ! D253  D(92,91,94,97)       -172.2901                                         !
 ! D254  D(93,91,94,95)        -46.349                                          !
 ! D255  D(93,91,94,96)       -168.3819                                         !
 ! D256  D(93,91,94,97)         72.3719                                         !
 ! D257  D(91,94,97,98)       -172.7036                                         !
 ! D258  D(91,94,97,99)        -49.7362                                         !
 ! D259  D(91,94,97,100)        68.0891                                         !
 ! D260  D(95,94,97,98)        -51.0374                                         !
 ! D261  D(95,94,97,99)         71.9301                                         !
 ! D262  D(95,94,97,100)      -170.2447                                         !
 ! D263  D(96,94,97,98)         64.579                                          !
 ! D264  D(96,94,97,99)       -172.4536                                         !
 ! D265  D(96,94,97,100)       -54.6284                                         !
 --------------------------------------------------------------------------------
 Symmetry turned off by external request.
 Stoichiometry    C32H54N7O9(1+)
 Framework group  C1[X(C32H54N7O9)]
 Deg. of freedom   300
 Full point group                 C1      NOp   1
                          Input orientation:                          
 ---------------------------------------------------------------------
 Center     Atomic      Atomic             Coordinates (Angstroms)
 Number     Number       Type             X           Y           Z
 ---------------------------------------------------------------------
      1          7           0       -5.406477    4.287277   -2.254670
      2          1           0       -6.043132    4.564166   -2.997596
      3          1           0       -4.746829    2.730240   -2.484774
      4          1           0       -4.662991    4.982765   -2.190838
      5          6           0       -6.101339    4.264970   -0.952823
      6          1           0       -6.660208    5.202228   -0.789241
      7          6           0       -4.947756    4.274826    0.072646
      8          6           0       -7.099935    3.086895   -0.848205
      9          1           0       -6.528189    2.176134   -0.622094
     10          8           0       -3.944819    4.951041   -0.159313
     11          6           0       -8.137448    3.347127    0.257706
     12          1           0       -8.799882    4.170296   -0.036292
     13          1           0       -8.759700    2.461022    0.417336
     14          1           0       -7.693617    3.624004    1.219352
     15          6           0       -7.828931    2.833304   -2.176148
     16          1           0       -8.352314    3.734732   -2.521867
     17          1           0       -7.142847    2.498221   -2.958155
     18          1           0       -8.583094    2.051270   -2.041747
     19          7           0       -5.080846    3.528976    1.198316
     20          1           0       -5.816982    2.837353    1.253392
     21          6           0       -3.943773    3.273524    2.070504
     22          1           0       -3.107604    3.866921    1.698127
     23          6           0       -3.668215    1.769590    1.990683
     24          6           0       -4.250405    3.675469    3.510541
     25          1           0       -5.113660    3.093930    3.864570
     26          1           0       -4.510538    4.743334    3.532497
     27          8           0       -4.556672    0.960303    2.255465
     28          8           0       -3.077536    3.390288    4.258744
     29          1           0       -3.268947    3.549772    5.194626
     30          7           0       -2.436847    1.416371    1.568251
     31          1           0       -1.732247    2.108687    1.345534
     32          6           0       -2.048283    0.030917    1.419994
     33          1           0       -2.331204   -0.512955    2.329716
     34          6           0       -0.536120    0.015826    1.244789
     35          6           0       -2.718342   -0.638029    0.202191
     36          1           0       -2.488030   -1.708896    0.162510
     37          1           0       -2.386470   -0.168530   -0.726318
     38          1           0       -3.799473   -0.522440    0.295541
     39          8           0        0.100736    1.036159    0.964331
     40          7           0        0.069978   -1.194970    1.346964
     41          1           0       -0.495551   -2.021900    1.484968
     42          6           0        1.501157   -1.354979    1.100823
     43          1           0        1.969373   -0.425694    1.437675
     44          6           0        1.770609   -1.462116   -0.411167
     45          6           0        2.071398   -2.539244    1.878087
     46          1           0        1.665793   -3.472168    1.461940
     47          1           0        3.155732   -2.556076    1.697625
     48          8           0        2.285813   -2.472920   -0.942346
     49          6           0        1.829476   -2.496943    3.397004
     50          1           0        0.745745   -2.544334    3.570643
     51          6           0        2.464750   -3.729919    4.050968
     52          1           0        3.556059   -3.718040    3.929261
     53          1           0        2.255249   -3.756297    5.124777
     54          1           0        2.083030   -4.660770    3.613824
     55          6           0        2.353329   -1.202839    4.030893
     56          1           0        3.423552   -1.069975    3.825916
     57          1           0        2.225915   -1.229572    5.117690
     58          1           0        1.824658   -0.318115    3.661588
     59          7           0        1.389996   -0.412297   -1.133731
     60          1           0        0.995339    0.391714   -0.644468
     61          6           0        1.656016   -0.320515   -2.556379
     62          1           0        1.143090   -1.144580   -3.064833
     63          6           0        3.167783   -0.466031   -2.788054
     64          6           0        1.134699    1.026831   -3.094999
     65          1           0        1.404593    1.084029   -4.157339
     66          1           0        1.682566    1.832456   -2.592349
     67          8           0        3.990479   -0.153011   -1.933667
     68          6           0       -0.356244    1.207262   -2.911194
     69          6           0       -1.266168    0.327982   -3.517185
     70          1           0       -0.899031   -0.508328   -4.109594
     71          6           0       -0.873412    2.273629   -2.167817
     72          1           0       -0.191400    2.964561   -1.677664
     73          6           0       -2.637063    0.519690   -3.408188
     74          1           0       -3.339509   -0.148459   -3.895857
     75          6           0       -2.247791    2.486724   -2.052942
     76          1           0       -2.621836    3.327129   -1.475818
     77          8           0       -4.485940    1.766705   -2.640337
     78          6           0       -3.147602    1.616387   -2.690898
     79          7           0        3.504087   -0.981982   -4.001290
     80          1           0        2.806897   -1.027095   -4.735937
     81          6           0        4.884296   -1.068129   -4.435332
     82          1           0        5.484791   -0.492851   -3.726266
     83          6           0        4.988699   -0.432874   -5.815104
     84          6           0        5.402145   -2.528820   -4.503620
     85          1           0        4.941764   -3.024644   -5.366931
     86          1           0        6.480514   -2.498257   -4.692718
     87          8           0        4.034789   -0.168030   -6.512543
     88          6           0        5.098237   -3.364551   -3.253319
     89          1           0        5.452121   -4.388174   -3.444275
     90          1           0        4.007540   -3.408440   -3.136869
     91          6           0        5.728039   -2.822143   -1.962492
     92          1           0        6.802175   -2.653598   -2.110027
     93          1           0        5.283524   -1.855794   -1.707781
     94          6           0        5.603362   -3.770709   -0.773249
     95          1           0        5.898345   -3.282279    0.158179
     96          1           0        6.206064   -4.674678   -0.899361
     97          7           0        4.175490   -4.235620   -0.577505
     98          1           0        4.073259   -4.772688    0.287419
     99          1           0        3.454954   -3.435922   -0.568702
    100          1           0        3.890380   -4.842721   -1.351205
    101          8           0        6.268954   -0.249291   -6.179464
    102          1           0        6.264457    0.125744   -7.081475
 ---------------------------------------------------------------------
 Rotational constants (GHZ):           0.0910922           0.0323571           0.0259308
 Standard basis: 6-31G(d) (6D, 7F)
   828 basis functions,  1560 primitive gaussians,   828 cartesian basis functions
   183 alpha electrons      183 beta electrons
       nuclear repulsion energy      6739.5643357500 Hartrees.
 NAtoms=  102 NActive=  102 NUniq=  102 SFac= 1.00D+00 NAtFMM=   60 NAOKFM=T Big=T
 Integral buffers will be    131072 words long.
 Raffenetti 2 integral format.
 Two-electron integral symmetry is turned off.
 Nuclear repulsion after empirical dispersion term =     6739.3378836295 Hartrees.
 One-electron integrals computed using PRISM.
 NBasis=   828 RedAO= T EigKep=  4.12D-04  NBF=   828
 NBsUse=   828 1.00D-06 EigRej= -1.00D+00 NBFU=   828
 Initial guess from the checkpoint file:  "conf-950.chk"
 B after Tr=     0.000000    0.000000    0.000000
         Rot=    1.000000    0.000000    0.000000    0.000000 Ang=   0.00 deg.
 Requested convergence on RMS density matrix=1.00D-08 within 128 cycles.
 Requested convergence on MAX density matrix=1.00D-06.
 Requested convergence on             energy=1.00D-06.
 No special actions if energy rises.
 SCF Done:  E(RB3LYP) =  -2312.34488889     A.U. after    2 cycles
            NFock=  2  Conv=0.79D-08     -V/T= 2.0093
 Hyperfine terms turned off by default for NAtoms > 100.

 **********************************************************************

            Population analysis using the SCF Density.

 **********************************************************************

 Alpha  occ. eigenvalues --  -19.29143 -19.24688 -19.23599 -19.22576 -19.21315
 Alpha  occ. eigenvalues --  -19.20879 -19.19751 -19.18481 -19.17982 -14.57174
 Alpha  occ. eigenvalues --  -14.47299 -14.46511 -14.45865 -14.43085 -14.42928
 Alpha  occ. eigenvalues --  -14.40151 -10.41595 -10.40516 -10.39302 -10.38495
 Alpha  occ. eigenvalues --  -10.37580 -10.35681 -10.35156 -10.34374 -10.33545
 Alpha  occ. eigenvalues --  -10.33085 -10.31872 -10.30335 -10.30228 -10.30007
 Alpha  occ. eigenvalues --  -10.29880 -10.29634 -10.29590 -10.29432 -10.29350
 Alpha  occ. eigenvalues --  -10.28844 -10.28033 -10.26663 -10.26028 -10.25862
 Alpha  occ. eigenvalues --  -10.25454 -10.25350 -10.25244 -10.25038 -10.23977
 Alpha  occ. eigenvalues --  -10.23758 -10.23751 -10.23322  -1.20163  -1.16034
 Alpha  occ. eigenvalues --   -1.14556  -1.13319  -1.12002  -1.11295  -1.10871
 Alpha  occ. eigenvalues --   -1.09925  -1.08454  -1.08096  -1.04180  -1.03115
 Alpha  occ. eigenvalues --   -1.02659  -0.99758  -0.99497  -0.96749  -0.92490
 Alpha  occ. eigenvalues --   -0.91761  -0.91375  -0.88798  -0.87452  -0.86343
 Alpha  occ. eigenvalues --   -0.85795  -0.83973  -0.83032  -0.81890  -0.80417
 Alpha  occ. eigenvalues --   -0.79939  -0.77420  -0.76628  -0.75951  -0.75539
 Alpha  occ. eigenvalues --   -0.74256  -0.74202  -0.73654  -0.71990  -0.71436
 Alpha  occ. eigenvalues --   -0.70886  -0.70551  -0.69781  -0.68753  -0.68297
 Alpha  occ. eigenvalues --   -0.67948  -0.67253  -0.66552  -0.65900  -0.65249
 Alpha  occ. eigenvalues --   -0.64990  -0.63845  -0.62972  -0.62656  -0.62000
 Alpha  occ. eigenvalues --   -0.61305  -0.60194  -0.59639  -0.59097  -0.58948
 Alpha  occ. eigenvalues --   -0.58647  -0.58098  -0.58009  -0.57583  -0.56778
 Alpha  occ. eigenvalues --   -0.56350  -0.56230  -0.55166  -0.54902  -0.54643
 Alpha  occ. eigenvalues --   -0.54300  -0.53764  -0.53415  -0.53168  -0.52951
 Alpha  occ. eigenvalues --   -0.52686  -0.52640  -0.52393  -0.51827  -0.51575
 Alpha  occ. eigenvalues --   -0.50950  -0.50630  -0.50609  -0.50133  -0.49857
 Alpha  occ. eigenvalues --   -0.49615  -0.49398  -0.49086  -0.49050  -0.48771
 Alpha  occ. eigenvalues --   -0.48526  -0.48252  -0.48008  -0.47789  -0.47575
 Alpha  occ. eigenvalues --   -0.47415  -0.47214  -0.46391  -0.46202  -0.45907
 Alpha  occ. eigenvalues --   -0.45633  -0.45404  -0.45341  -0.45255  -0.44739
 Alpha  occ. eigenvalues --   -0.44689  -0.44256  -0.44216  -0.43908  -0.43501
 Alpha  occ. eigenvalues --   -0.42849  -0.42547  -0.42338  -0.42280  -0.42206
 Alpha  occ. eigenvalues --   -0.41240  -0.41113  -0.40505  -0.40211  -0.39860
 Alpha  occ. eigenvalues --   -0.39819  -0.39625  -0.38842  -0.37948  -0.37275
 Alpha  occ. eigenvalues --   -0.37026  -0.36358  -0.35794  -0.35598  -0.34849
 Alpha  occ. eigenvalues --   -0.33726  -0.33432  -0.33153  -0.32366  -0.31861
 Alpha  occ. eigenvalues --   -0.30958  -0.30849  -0.26915
 Alpha virt. eigenvalues --   -0.10802  -0.09847  -0.08390  -0.07891  -0.07672
 Alpha virt. eigenvalues --   -0.06105  -0.05649  -0.04647  -0.04336  -0.03780
 Alpha virt. eigenvalues --   -0.02656  -0.02129  -0.01303  -0.00749  -0.00590
 Alpha virt. eigenvalues --    0.00478   0.00709   0.01631   0.01837   0.02055
 Alpha virt. eigenvalues --    0.02363   0.02920   0.03023   0.03392   0.03836
 Alpha virt. eigenvalues --    0.03954   0.04446   0.04661   0.05006   0.05473
 Alpha virt. eigenvalues --    0.05589   0.05937   0.06026   0.06448   0.06607
 Alpha virt. eigenvalues --    0.06788   0.06911   0.07268   0.07665   0.07991
 Alpha virt. eigenvalues --    0.08247   0.08522   0.08660   0.08722   0.08834
 Alpha virt. eigenvalues --    0.09179   0.09536   0.09759   0.09915   0.10254
 Alpha virt. eigenvalues --    0.10442   0.10676   0.10779   0.11046   0.11098
 Alpha virt. eigenvalues --    0.11375   0.11465   0.11797   0.11926   0.12125
 Alpha virt. eigenvalues --    0.12304   0.12379   0.12726   0.13150   0.13468
 Alpha virt. eigenvalues --    0.13691   0.13869   0.14120   0.14351   0.14717
 Alpha virt. eigenvalues --    0.15059   0.15199   0.15347   0.15663   0.15996
 Alpha virt. eigenvalues --    0.16120   0.16375   0.16498   0.16691   0.17169
 Alpha virt. eigenvalues --    0.17239   0.17649   0.17920   0.18825   0.19248
 Alpha virt. eigenvalues --    0.19834   0.20146   0.20562   0.20638   0.21776
 Alpha virt. eigenvalues --    0.22481   0.22791   0.23578   0.24595   0.25695
 Alpha virt. eigenvalues --    0.26123   0.27091   0.27828   0.28627   0.29023
 Alpha virt. eigenvalues --    0.29516   0.30223   0.30455   0.30863   0.31773
 Alpha virt. eigenvalues --    0.32894   0.33638   0.36144   0.36705   0.37557
 Alpha virt. eigenvalues --    0.37635   0.38326   0.39359   0.39691   0.40431
 Alpha virt. eigenvalues --    0.41076   0.41839   0.42046   0.42501   0.43015
 Alpha virt. eigenvalues --    0.43572   0.43671   0.44090   0.44422   0.44756
 Alpha virt. eigenvalues --    0.45171   0.45783   0.45999   0.46346   0.46995
 Alpha virt. eigenvalues --    0.47172   0.47488   0.47807   0.48121   0.48553
 Alpha virt. eigenvalues --    0.49106   0.49363   0.49381   0.49723   0.49948
 Alpha virt. eigenvalues --    0.50626   0.50664   0.51326   0.51740   0.51842
 Alpha virt. eigenvalues --    0.52058   0.52633   0.53034   0.53554   0.53915
 Alpha virt. eigenvalues --    0.54327   0.54796   0.54903   0.55110   0.55199
 Alpha virt. eigenvalues --    0.55755   0.56004   0.56400   0.56568   0.56839
 Alpha virt. eigenvalues --    0.56971   0.57191   0.58008   0.58298   0.58696
 Alpha virt. eigenvalues --    0.58979   0.59047   0.59466   0.60082   0.60607
 Alpha virt. eigenvalues --    0.60938   0.61711   0.61967   0.62054   0.62436
 Alpha virt. eigenvalues --    0.62845   0.63290   0.63336   0.63865   0.64011
 Alpha virt. eigenvalues --    0.64509   0.64862   0.65192   0.66032   0.66146
 Alpha virt. eigenvalues --    0.66486   0.67337   0.67543   0.68269   0.68560
 Alpha virt. eigenvalues --    0.69051   0.69222   0.70046   0.70101   0.70776
 Alpha virt. eigenvalues --    0.70907   0.71644   0.71943   0.72248   0.72898
 Alpha virt. eigenvalues --    0.73020   0.73248   0.73435   0.73621   0.73739
 Alpha virt. eigenvalues --    0.74188   0.74371   0.74844   0.75321   0.75534
 Alpha virt. eigenvalues --    0.76012   0.76201   0.76451   0.76777   0.77037
 Alpha virt. eigenvalues --    0.77154   0.77178   0.77855   0.78149   0.78297
 Alpha virt. eigenvalues --    0.78824   0.79473   0.79858   0.80185   0.80274
 Alpha virt. eigenvalues --    0.80415   0.80724   0.80852   0.81065   0.81261
 Alpha virt. eigenvalues --    0.81700   0.81898   0.82406   0.82640   0.82646
 Alpha virt. eigenvalues --    0.82982   0.83124   0.83420   0.83808   0.83935
 Alpha virt. eigenvalues --    0.84126   0.84404   0.84557   0.84877   0.85019
 Alpha virt. eigenvalues --    0.85087   0.85480   0.85725   0.85794   0.86567
 Alpha virt. eigenvalues --    0.86743   0.87176   0.87464   0.87718   0.87853
 Alpha virt. eigenvalues --    0.88109   0.88555   0.88634   0.89131   0.89502
 Alpha virt. eigenvalues --    0.89824   0.90543   0.90891   0.91288   0.92011
 Alpha virt. eigenvalues --    0.92318   0.92537   0.93094   0.93196   0.93444
 Alpha virt. eigenvalues --    0.93907   0.94297   0.94741   0.95153   0.95291
 Alpha virt. eigenvalues --    0.95552   0.97090   0.97689   0.98010   0.98650
 Alpha virt. eigenvalues --    0.98757   0.99266   0.99392   1.00395   1.00750
 Alpha virt. eigenvalues --    1.01549   1.01821   1.02463   1.02920   1.04271
 Alpha virt. eigenvalues --    1.05392   1.06332   1.06655   1.07340   1.07789
 Alpha virt. eigenvalues --    1.08031   1.08380   1.08974   1.10150   1.10624
 Alpha virt. eigenvalues --    1.10705   1.11935   1.12770   1.13052   1.13611
 Alpha virt. eigenvalues --    1.14237   1.14515   1.16219   1.17146   1.17921
 Alpha virt. eigenvalues --    1.18224   1.18576   1.19502   1.19984   1.20425
 Alpha virt. eigenvalues --    1.20717   1.21834   1.22562   1.23238   1.23420
 Alpha virt. eigenvalues --    1.23743   1.24525   1.25159   1.26012   1.26520
 Alpha virt. eigenvalues --    1.27395   1.28105   1.29486   1.30268   1.31267
 Alpha virt. eigenvalues --    1.31449   1.31750   1.32722   1.32925   1.33757
 Alpha virt. eigenvalues --    1.34772   1.35546   1.35969   1.35988   1.36999
 Alpha virt. eigenvalues --    1.37157   1.38039   1.38793   1.39614   1.39802
 Alpha virt. eigenvalues --    1.40898   1.41247   1.41594   1.42064   1.43192
 Alpha virt. eigenvalues --    1.43781   1.44413   1.44947   1.45726   1.46632
 Alpha virt. eigenvalues --    1.47083   1.47494   1.48165   1.49025   1.49610
 Alpha virt. eigenvalues --    1.50439   1.50915   1.51666   1.51913   1.53210
 Alpha virt. eigenvalues --    1.53734   1.55281   1.55335   1.55705   1.56484
 Alpha virt. eigenvalues --    1.57880   1.58352   1.58574   1.59009   1.59502
 Alpha virt. eigenvalues --    1.60987   1.61608   1.61946   1.62957   1.63404
 Alpha virt. eigenvalues --    1.64437   1.64759   1.64943   1.65881   1.66121
 Alpha virt. eigenvalues --    1.66722   1.67420   1.68398   1.68736   1.68888
 Alpha virt. eigenvalues --    1.69303   1.69879   1.70077   1.70570   1.70874
 Alpha virt. eigenvalues --    1.71298   1.71754   1.72019   1.72576   1.73000
 Alpha virt. eigenvalues --    1.73112   1.73541   1.74249   1.74505   1.74990
 Alpha virt. eigenvalues --    1.75445   1.76848   1.77420   1.77665   1.78164
 Alpha virt. eigenvalues --    1.78413   1.78963   1.79510   1.79698   1.80427
 Alpha virt. eigenvalues --    1.80508   1.80729   1.81851   1.82462   1.82677
 Alpha virt. eigenvalues --    1.83045   1.83502   1.83894   1.84626   1.85027
 Alpha virt. eigenvalues --    1.85323   1.85474   1.85827   1.86293   1.86479
 Alpha virt. eigenvalues --    1.86788   1.87197   1.87595   1.88498   1.88908
 Alpha virt. eigenvalues --    1.89363   1.89605   1.89777   1.90051   1.90412
 Alpha virt. eigenvalues --    1.90834   1.91786   1.92161   1.92282   1.92941
 Alpha virt. eigenvalues --    1.93013   1.93583   1.93816   1.94188   1.95250
 Alpha virt. eigenvalues --    1.95540   1.96282   1.96737   1.97326   1.98100
 Alpha virt. eigenvalues --    1.98699   1.99090   1.99691   2.00088   2.00178
 Alpha virt. eigenvalues --    2.00928   2.01232   2.01455   2.01688   2.02646
 Alpha virt. eigenvalues --    2.03037   2.03546   2.03930   2.04380   2.04623
 Alpha virt. eigenvalues --    2.05162   2.05412   2.06350   2.07845   2.08624
 Alpha virt. eigenvalues --    2.09099   2.09980   2.10443   2.10878   2.11715
 Alpha virt. eigenvalues --    2.12666   2.12772   2.13369   2.14807   2.15207
 Alpha virt. eigenvalues --    2.15448   2.15940   2.16433   2.16942   2.17943
 Alpha virt. eigenvalues --    2.18638   2.19328   2.19906   2.20599   2.21944
 Alpha virt. eigenvalues --    2.22238   2.22317   2.22706   2.22996   2.24544
 Alpha virt. eigenvalues --    2.25218   2.25240   2.25542   2.26733   2.27171
 Alpha virt. eigenvalues --    2.27467   2.28330   2.28855   2.29436   2.30244
 Alpha virt. eigenvalues --    2.30408   2.31284   2.32078   2.32932   2.33269
 Alpha virt. eigenvalues --    2.33908   2.34811   2.35896   2.36189   2.36829
 Alpha virt. eigenvalues --    2.37237   2.38201   2.38413   2.39285   2.39762
 Alpha virt. eigenvalues --    2.40506   2.41648   2.41951   2.42162   2.42789
 Alpha virt. eigenvalues --    2.43665   2.44300   2.45160   2.45787   2.46719
 Alpha virt. eigenvalues --    2.47562   2.47954   2.48675   2.49459   2.50096
 Alpha virt. eigenvalues --    2.51301   2.51966   2.52777   2.53523   2.54550
 Alpha virt. eigenvalues --    2.55394   2.55691   2.56857   2.57009   2.57292
 Alpha virt. eigenvalues --    2.57944   2.58186   2.60075   2.61028   2.61839
 Alpha virt. eigenvalues --    2.62395   2.63185   2.63631   2.64388   2.64961
 Alpha virt. eigenvalues --    2.67331   2.68033   2.68551   2.69319   2.70703
 Alpha virt. eigenvalues --    2.71110   2.71322   2.72171   2.72796   2.73654
 Alpha virt. eigenvalues --    2.76018   2.76896   2.77382   2.78630   2.80805
 Alpha virt. eigenvalues --    2.84085   2.84230   2.85304   2.86277   2.86795
 Alpha virt. eigenvalues --    2.88359   2.89791   2.91116   2.92653   2.94005
 Alpha virt. eigenvalues --    2.95624   2.96228   2.96868   2.97560   3.02422
 Alpha virt. eigenvalues --    3.06484   3.07414   3.08646   3.09048   3.12190
 Alpha virt. eigenvalues --    3.14047   3.36072   3.72571   3.72967   3.76433
 Alpha virt. eigenvalues --    3.87939   3.92864   3.93839   3.96596   3.99875
 Alpha virt. eigenvalues --    4.01428   4.01732   4.04005   4.04653   4.05078
 Alpha virt. eigenvalues --    4.07132   4.08192   4.09640   4.11504   4.13103
 Alpha virt. eigenvalues --    4.15064   4.16129   4.16885   4.19241   4.19995
 Alpha virt. eigenvalues --    4.20720   4.22258   4.23751   4.25757   4.25992
 Alpha virt. eigenvalues --    4.26829   4.28691   4.29225   4.31371   4.33245
 Alpha virt. eigenvalues --    4.33628   4.37046   4.40341   4.42078   4.44439
 Alpha virt. eigenvalues --    4.45651   4.49562   4.49911   4.52418   4.54393
 Alpha virt. eigenvalues --    4.58280   4.62077   4.63120   4.66000   4.71683
          Condensed to atoms (all electrons):
 Mulliken charges:
               1
     1  N   -0.794030
     2  H    0.331422
     3  H    0.483279
     4  H    0.351825
     5  C   -0.051727
     6  H    0.163292
     7  C    0.626296
     8  C   -0.107653
     9  H    0.152398
    10  O   -0.531185
    11  C   -0.469510
    12  H    0.156182
    13  H    0.164331
    14  H    0.147446
    15  C   -0.470668
    16  H    0.140805
    17  H    0.173202
    18  H    0.160765
    19  N   -0.614177
    20  H    0.360652
    21  C   -0.074598
    22  H    0.191817
    23  C    0.654077
    24  C   -0.027284
    25  H    0.145442
    26  H    0.146416
    27  O   -0.551616
    28  O   -0.625132
    29  H    0.406198
    30  N   -0.615526
    31  H    0.365171
    32  C   -0.026713
    33  H    0.182016
    34  C    0.633344
    35  C   -0.468272
    36  H    0.127028
    37  H    0.193103
    38  H    0.208905
    39  O   -0.550021
    40  N   -0.607172
    41  H    0.345417
    42  C   -0.078609
    43  H    0.216970
    44  C    0.678736
    45  C   -0.295175
    46  H    0.132455
    47  H    0.122973
    48  O   -0.622074
    49  C   -0.069758
    50  H    0.136051
    51  C   -0.448107
    52  H    0.135493
    53  H    0.171717
    54  H    0.137542
    55  C   -0.459911
    56  H    0.144552
    57  H    0.167108
    58  H    0.165847
    59  N   -0.600314
    60  H    0.403724
    61  C   -0.038685
    62  H    0.171483
    63  C    0.641019
    64  C   -0.403519
    65  H    0.175676
    66  H    0.175432
    67  O   -0.533707
    68  C    0.162745
    69  C   -0.190329
    70  H    0.113592
    71  C   -0.203755
    72  H    0.135445
    73  C   -0.170716
    74  H    0.140513
    75  C   -0.219250
    76  H    0.163943
    77  O   -0.703469
    78  C    0.345886
    79  N   -0.605433
    80  H    0.352396
    81  C   -0.057968
    82  H    0.212606
    83  C    0.589189
    84  C   -0.275448
    85  H    0.160539
    86  H    0.178763
    87  O   -0.456729
    88  C   -0.299055
    89  H    0.145645
    90  H    0.153290
    91  C   -0.307468
    92  H    0.175980
    93  H    0.229351
    94  C   -0.196697
    95  H    0.207649
    96  H    0.198684
    97  N   -0.773306
    98  H    0.398658
    99  H    0.467347
   100  H    0.401646
   101  O   -0.556921
   102  H    0.430211
 Sum of Mulliken charges =   1.00000
 Mulliken charges with hydrogens summed into heavy atoms:
               1
     1  N   -0.110784
     5  C    0.111566
     7  C    0.626296
     8  C    0.044745
    10  O   -0.531185
    11  C   -0.001551
    15  C    0.004104
    19  N   -0.253525
    21  C    0.117219
    23  C    0.654077
    24  C    0.264573
    27  O   -0.551616
    28  O   -0.218934
    30  N   -0.250355
    32  C    0.155303
    34  C    0.633344
    35  C    0.060763
    39  O   -0.550021
    40  N   -0.261755
    42  C    0.138361
    44  C    0.678736
    45  C   -0.039746
    48  O   -0.622074
    49  C    0.066292
    51  C   -0.003355
    55  C    0.017596
    59  N   -0.196590
    61  C    0.132798
    63  C    0.641019
    64  C   -0.052410
    67  O   -0.533707
    68  C    0.162745
    69  C   -0.076736
    71  C   -0.068310
    73  C   -0.030203
    75  C   -0.055307
    77  O   -0.220190
    78  C    0.345886
    79  N   -0.253036
    81  C    0.154638
    83  C    0.589189
    84  C    0.063855
    87  O   -0.456729
    88  C   -0.000120
    91  C    0.097863
    94  C    0.209636
    97  N    0.494346
   101  O   -0.126709
 Electronic spatial extent (au):  <R**2>=          41618.8352
 Charge=              1.0000 electrons
 Dipole moment (field-independent basis, Debye):
    X=             10.6947    Y=            -11.6407    Z=             -3.0064  Tot=             16.0910
 Quadrupole moment (field-independent basis, Debye-Ang):
   XX=           -155.1235   YY=           -202.0434   ZZ=           -228.6828
   XY=            -95.7471   XZ=            -34.2428   YZ=              7.6520
 Traceless Quadrupole moment (field-independent basis, Debye-Ang):
   XX=             40.1598   YY=             -6.7602   ZZ=            -33.3996
   XY=            -95.7471   XZ=            -34.2428   YZ=              7.6520
 Octapole moment (field-independent basis, Debye-Ang**2):
  XXX=            408.8542  YYY=           -524.7646  ZZZ=            578.6139  XYY=            212.4891
  XXY=           -139.0205  XXZ=            -35.5468  XZZ=            273.5950  YZZ=            -76.9847
  YYZ=            177.9046  XYZ=             43.9121
 Hexadecapole moment (field-independent basis, Debye-Ang**3):
 XXXX=         -23497.9979 YYYY=          -9474.1809 ZZZZ=         -12079.1184 XXXY=           3996.5990
 XXXZ=           1774.0770 YYYX=           5367.8715 YYYZ=            -98.9835 ZZZX=           1047.7127
 ZZZY=            210.1497 XXYY=          -4239.5941 XXZZ=          -5285.0298 YYZZ=          -3581.6523
 XXYZ=             28.0765 YYXZ=            814.4275 ZZXY=           1836.6829
 N-N= 6.739337883629D+03 E-N=-1.883502170296D+04  KE= 2.291004709262D+03
 Unable to Open any file for archive entry.
 1\1\GINC-AMR-011\SP\RB3LYP\6-31G(d)\C32H54N7O9(1+)\KENGMITH\14-Jul-202
 2\0\\# B3LYP/6-31G* empiricaldispersion=gd3bj guess=read geom=check no
 symm integral(ultrafinegrid)\\Candidate Structure: Conf:950 Charge cal
 c in gas phase\\1,1\N,0,-5.4064773444,4.2872770158,-2.2546701537\H,0,-
 6.043131543,4.5641659224,-2.9975960137\H,0,-4.7468292176,2.7302404543,
 -2.4847738649\H,0,-4.6629905529,4.9827647842,-2.1908376489\C,0,-6.1013
 385158,4.2649704396,-0.9528226405\H,0,-6.6602078747,5.2022284362,-0.78
 92406868\C,0,-4.9477559509,4.2748262114,0.0726464957\C,0,-7.0999351587
 ,3.0868949848,-0.8482050003\H,0,-6.5281885046,2.1761335743,-0.62209431
 34\O,0,-3.9448185232,4.9510405783,-0.1593128765\C,0,-8.13744809,3.3471
 270026,0.2577060573\H,0,-8.7998817305,4.1702964284,-0.0362918842\H,0,-
 8.7597000116,2.4610216972,0.4173355389\H,0,-7.6936173111,3.6240036168,
 1.2193520654\C,0,-7.8289312911,2.8333036141,-2.1761476753\H,0,-8.35231
 36492,3.73473195,-2.521866579\H,0,-7.1428473874,2.4982213344,-2.958155
 0018\H,0,-8.5830940666,2.0512696581,-2.0417466821\N,0,-5.0808460276,3.
 5289756993,1.1983156299\H,0,-5.8169824832,2.8373534873,1.2533923021\C,
 0,-3.9437734057,3.2735243091,2.0705041736\H,0,-3.107604106,3.866921065
 7,1.6981266107\C,0,-3.6682153637,1.7695902517,1.990682724\C,0,-4.25040
 4851,3.6754688992,3.5105406361\H,0,-5.1136596157,3.0939301458,3.864570
 3042\H,0,-4.510538314,4.743333893,3.5324970104\O,0,-4.5566721461,0.960
 3030273,2.2554648412\O,0,-3.0775355195,3.3902877348,4.2587437642\H,0,-
 3.268947376,3.5497724186,5.1946257646\N,0,-2.4368470312,1.4163708238,1
 .5682514964\H,0,-1.7322467019,2.1086872573,1.3455336138\C,0,-2.0482830
 198,0.0309171681,1.419994481\H,0,-2.3312041195,-0.5129545398,2.3297156
 565\C,0,-0.5361200621,0.0158257067,1.2447891582\C,0,-2.7183422406,-0.6
 380285176,0.2021905945\H,0,-2.4880296408,-1.7088961,0.1625101094\H,0,-
 2.3864701383,-0.168529784,-0.72631839\H,0,-3.7994728366,-0.5224403612,
 0.2955406918\O,0,0.1007360646,1.0361592211,0.9643305325\N,0,0.06997824
 87,-1.1949695574,1.3469643249\H,0,-0.4955505356,-2.0218999866,1.484967
 749\C,0,1.5011565536,-1.3549789182,1.1008230478\H,0,1.9693731165,-0.42
 5693905,1.4376749877\C,0,1.7706094852,-1.4621156663,-0.4111673769\C,0,
 2.0713982059,-2.5392435171,1.8780865395\H,0,1.6657929105,-3.4721679848
 ,1.4619401214\H,0,3.155731903,-2.5560755393,1.6976254925\O,0,2.2858128
 341,-2.4729201462,-0.9423455217\C,0,1.8294763745,-2.4969427675,3.39700
 42816\H,0,0.7457448197,-2.5443343278,3.5706434412\C,0,2.464750127,-3.7
 299188765,4.0509682521\H,0,3.5560585542,-3.7180399613,3.9292606504\H,0
 ,2.2552488395,-3.7562972901,5.1247774679\H,0,2.0830301137,-4.660770310
 7,3.6138240798\C,0,2.3533294138,-1.2028390067,4.0308931966\H,0,3.42355
 24372,-1.0699747719,3.8259164196\H,0,2.2259145618,-1.229572104,5.11768
 99615\H,0,1.8246576263,-0.3181152459,3.661588266\N,0,1.3899956837,-0.4
 122970503,-1.1337308143\H,0,0.9953389744,0.3917142628,-0.6444676311\C,
 0,1.6560161862,-0.3205153442,-2.5563789743\H,0,1.1430904813,-1.1445802
 813,-3.0648327742\C,0,3.1677831903,-0.4660306084,-2.7880536549\C,0,1.1
 346986744,1.0268314775,-3.0949993276\H,0,1.4045927251,1.0840292188,-4.
 1573392679\H,0,1.6825660531,1.8324563911,-2.5923485606\O,0,3.990478764
 2,-0.153011181,-1.9336669233\C,0,-0.3562444486,1.2072621648,-2.9111943
 961\C,0,-1.2661678724,0.3279821837,-3.5171849343\H,0,-0.8990312942,-0.
 5083277668,-4.1095939896\C,0,-0.8734120128,2.2736291155,-2.1678167892\
 H,0,-0.1913998359,2.9645608596,-1.6776644952\C,0,-2.637063298,0.519689
 7021,-3.4081881674\H,0,-3.3395088303,-0.1484585597,-3.8958571848\C,0,-
 2.2477913778,2.486723874,-2.0529417614\H,0,-2.6218361734,3.3271287141,
 -1.4758183776\O,0,-4.4859396942,1.7667050141,-2.640337228\C,0,-3.14760
 22389,1.6163871307,-2.6908983489\N,0,3.5040871653,-0.9819824245,-4.001
 290362\H,0,2.8068968335,-1.0270954848,-4.7359374005\C,0,4.8842955567,-
 1.0681290625,-4.4353322356\H,0,5.4847905917,-0.4928509728,-3.726265753
 5\C,0,4.9886989971,-0.4328740544,-5.8151038961\C,0,5.4021453495,-2.528
 8195526,-4.5036201598\H,0,4.9417639006,-3.024643636,-5.3669313085\H,0,
 6.4805141921,-2.4982570832,-4.6927177374\O,0,4.0347887259,-0.168029633
 9,-6.512543024\C,0,5.0982365152,-3.364551383,-3.2533194261\H,0,5.45212
 06939,-4.3881739326,-3.4442749531\H,0,4.0075399336,-3.4084403625,-3.13
 68685228\C,0,5.728038584,-2.8221428609,-1.9624916264\H,0,6.8021748096,
 -2.6535975986,-2.1100268688\H,0,5.2835239097,-1.8557940651,-1.70778098
 34\C,0,5.6033621781,-3.7707088902,-0.773249165\H,0,5.8983454525,-3.282
 2794143,0.1581786735\H,0,6.206063501,-4.6746779174,-0.8993609007\N,0,4
 .1754901068,-4.2356201536,-0.5775047391\H,0,4.0732594157,-4.7726879408
 ,0.2874187309\H,0,3.4549541756,-3.4359218702,-0.5687024361\H,0,3.89037
 9942,-4.8427212871,-1.3512047067\O,0,6.2689536488,-0.2492908214,-6.179
 4641024\H,0,6.2644569635,0.1257437493,-7.0814745176\\Version=ES64L-G16
 RevC.01\HF=-2312.3448889\RMSD=7.869e-09\Dipole=4.8017756,-5.267809,0.2
 886307\Quadrupole=29.8577907,-5.0260283,-24.8317624,-71.1856229,-25.45
 86791,5.6890939\PG=C01 [X(C32H54N7O9)]\\@
 The archive entry for this job was punched.


 IT IS UNWORTHY OF EXCELLENT MEN TO LOSE HOURS LIKE SLAVES IN THE LABOR
 OF CALCULATION WHICH COULD BE SAFELY RELEGATED TO ANYONE ELSE
 IF A MACHINE WERE USED.
    -- G.W. VON LEIBNIZ
 Job cpu time:       0 days  0 hours  4 minutes  2.5 seconds.
 Elapsed time:       0 days  0 hours  1 minutes  1.2 seconds.
 File lengths (MBytes):  RWF=    472 Int=      0 D2E=      0 Chk=     72 Scr=     16
 Normal termination of Gaussian 16 at Thu Jul 14 00:52:37 2022.
