 Entering Gaussian System, Link 0=/opt/software/Gaussian/g16-AVX2-C.01/g16/g16
 Input=charge-conf-879.com
 Output=charge-conf-879.log
 Initial command:
 /opt/software/Gaussian/g16-AVX2-C.01/g16/l1.exe "/mnt/gs18/scratch/users/kengmith/Gau-19033.inp" -scrdir="/mnt/gs18/scratch/users/kengmith/"
 Entering Link 1 = /opt/software/Gaussian/g16-AVX2-C.01/g16/l1.exe PID=     19043.
  
 Copyright (c) 1988-2019, Gaussian, Inc.  All Rights Reserved.
  
 This is part of the Gaussian(R) 16 program.  It is based on
 the Gaussian(R) 09 system (copyright 2009, Gaussian, Inc.),
 the Gaussian(R) 03 system (copyright 2003, Gaussian, Inc.),
 the Gaussian(R) 98 system (copyright 1998, Gaussian, Inc.),
 the Gaussian(R) 94 system (copyright 1995, Gaussian, Inc.),
 the Gaussian 92(TM) system (copyright 1992, Gaussian, Inc.),
 the Gaussian 90(TM) system (copyright 1990, Gaussian, Inc.),
 the Gaussian 88(TM) system (copyright 1988, Gaussian, Inc.),
 the Gaussian 86(TM) system (copyright 1986, Carnegie Mellon
 University), and the Gaussian 82(TM) system (copyright 1983,
 Carnegie Mellon University). Gaussian is a federally registered
 trademark of Gaussian, Inc.
  
 This software contains proprietary and confidential information,
 including trade secrets, belonging to Gaussian, Inc.
  
 This software is provided under written license and may be
 used, copied, transmitted, or stored only in accord with that
 written license.
  
 The following legend is applicable only to US Government
 contracts under FAR:
  
                    RESTRICTED RIGHTS LEGEND
  
 Use, reproduction and disclosure by the US Government is
 subject to restrictions as set forth in subparagraphs (a)
 and (c) of the Commercial Computer Software - Restricted
 Rights clause in FAR 52.227-19.
  
 Gaussian, Inc.
 340 Quinnipiac St., Bldg. 40, Wallingford CT 06492
  
  
 ---------------------------------------------------------------
 Warning -- This program may not be used in any manner that
 competes with the business of Gaussian, Inc. or will provide
 assistance to any competitor of Gaussian, Inc.  The licensee
 of this program is prohibited from giving any competitor of
 Gaussian, Inc. access to this program.  By using this program,
 the user acknowledges that Gaussian, Inc. is engaged in the
 business of creating and licensing software in the field of
 computational chemistry and represents and warrants to the
 licensee that it is not a competitor of Gaussian, Inc. and that
 it will not use this program in any manner prohibited above.
 ---------------------------------------------------------------
  

 Cite this work as:
 Gaussian 16, Revision C.01,
 M. J. Frisch, G. W. Trucks, H. B. Schlegel, G. E. Scuseria, 
 M. A. Robb, J. R. Cheeseman, G. Scalmani, V. Barone, 
 G. A. Petersson, H. Nakatsuji, X. Li, M. Caricato, A. V. Marenich, 
 J. Bloino, B. G. Janesko, R. Gomperts, B. Mennucci, H. P. Hratchian, 
 J. V. Ortiz, A. F. Izmaylov, J. L. Sonnenberg, D. Williams-Young, 
 F. Ding, F. Lipparini, F. Egidi, J. Goings, B. Peng, A. Petrone, 
 T. Henderson, D. Ranasinghe, V. G. Zakrzewski, J. Gao, N. Rega, 
 G. Zheng, W. Liang, M. Hada, M. Ehara, K. Toyota, R. Fukuda, 
 J. Hasegawa, M. Ishida, T. Nakajima, Y. Honda, O. Kitao, H. Nakai, 
 T. Vreven, K. Throssell, J. A. Montgomery, Jr., J. E. Peralta, 
 F. Ogliaro, M. J. Bearpark, J. J. Heyd, E. N. Brothers, K. N. Kudin, 
 V. N. Staroverov, T. A. Keith, R. Kobayashi, J. Normand, 
 K. Raghavachari, A. P. Rendell, J. C. Burant, S. S. Iyengar, 
 J. Tomasi, M. Cossi, J. M. Millam, M. Klene, C. Adamo, R. Cammi, 
 J. W. Ochterski, R. L. Martin, K. Morokuma, O. Farkas, 
 J. B. Foresman, and D. J. Fox, Gaussian, Inc., Wallingford CT, 2019.
 
 ******************************************
 Gaussian 16:  ES64L-G16RevC.01  3-Jul-2019
                 2-Jul-2022 
 ******************************************
 %mem=8gb
 %nproc=4
 Will use up to    4 processors via shared memory.
 %chk=conf-879.chk
 -------------------------------------------------------------------
 # B3LYP/6-31G* guess=read geom=check nosymm integral(ultrafinegrid)
 -------------------------------------------------------------------
 1/29=2,38=1,172=1/1;
 2/12=2,15=1,40=1/2;
 3/5=1,6=6,7=1,11=2,14=-4,25=1,30=1,74=-5,75=-5,116=-2/1,2,3;
 4/5=1/1;
 5/5=2,38=6/2;
 6/7=2,8=2,9=2,10=2,28=1/1;
 99/5=1,9=1/99;
 ------------------------------------------------------
 Candidate Structure: Conf:879 Charge calc in gas phase
 ------------------------------------------------------
 Structure from the checkpoint file:  "conf-879.chk"
 Charge =  1 Multiplicity = 1
 Redundant internal coordinates found in file.  (old form).
 N,0,-7.1701267896,-6.497239356,-3.5196417968
 H,0,-7.3797765946,-6.7114241309,-2.5439896085
 H,0,-7.0218201367,-7.3619822065,-4.0437473477
 H,0,-7.9597010194,-5.9880225154,-3.92481249
 C,0,-5.9660663768,-5.6545348862,-3.6394759847
 H,0,-5.1744091944,-6.049041458,-2.9909763687
 C,0,-6.30887912,-4.2250450129,-3.2409554888
 C,0,-5.4570826748,-5.7145854041,-5.0919139785
 H,0,-6.2574677531,-5.3487271472,-5.7381929719
 O,0,-7.3909690772,-3.7237442588,-3.5220529923
 C,0,-4.1876635811,-4.9256397297,-5.334140089
 H,0,-4.3382315362,-3.8550428896,-5.1845513137
 H,0,-3.3914972608,-5.2624103699,-4.6595945663
 H,0,-3.8566088406,-5.0824443486,-6.3624327916
 O,0,-5.2703785965,-7.0785012893,-5.4588998084
 H,0,-4.472512954,-7.3859050773,-5.0221041598
 N,0,-5.3258554595,-3.560072964,-2.5735893792
 H,0,-4.3895562566,-3.9375251322,-2.5939229811
 C,0,-5.3447390867,-2.1179012739,-2.4493997295
 H,0,-6.0965500189,-1.7270546553,-3.138964368
 C,0,-3.9678502694,-1.6240639914,-2.8747142512
 C,0,-5.7195714024,-1.6293446483,-1.0308951926
 H,0,-5.5951620128,-0.5413824775,-1.0544959603
 O,0,-2.9853060499,-2.3580137981,-2.8665399905
 C,0,-4.7792519695,-2.1809448092,0.0427070433
 H,0,-3.750581731,-2.1115686812,-0.3283755964
 H,0,-4.9975345663,-3.242968256,0.1773502507
 C,0,-7.1797648342,-1.9700172798,-0.7350777644
 H,0,-7.3087565847,-3.0507294491,-0.6743388778
 H,0,-7.8386790285,-1.5974747735,-1.523482822
 H,0,-7.5014551046,-1.5420330097,0.2148336105
 C,0,-4.8800767236,-1.4572180878,1.3792830478
 H,0,-4.2211086544,-1.9175522911,2.1163966682
 H,0,-5.8928543609,-1.4779928358,1.7822481478
 H,0,-4.5856288564,-0.4102538504,1.2770815319
 N,0,-3.9044576585,-0.3198943488,-3.2644543675
 H,0,-4.6844769715,0.2604317203,-3.0146181721
 C,0,-2.6195284762,0.3655234591,-3.2992970106
 H,0,-1.9319407932,-0.2710138132,-3.860371175
 C,0,-2.1054395473,0.5194645386,-1.8646346828
 C,0,-2.7756694677,1.7243335519,-3.9605009242
 H,0,-1.8135355552,2.2383237953,-4.0180398714
 H,0,-3.4617075028,2.3464604118,-3.3825028951
 H,0,-3.1702558634,1.6058316577,-4.9712786792
 O,0,-2.8672696821,0.7769777085,-0.9329603251
 N,0,-0.7736222228,0.3678948201,-1.705325062
 H,0,-0.1499099616,0.2046051646,-2.4802295994
 C,0,-0.169591377,0.3711953444,-0.3923885212
 H,0,-0.4498249251,1.2991646484,0.1195285092
 C,0,1.3487544886,0.3430191642,-0.6211895307
 C,0,-0.6492674343,-0.796652409,0.4870892889
 H,0,-1.6751999012,-0.5777188642,0.7934762573
 H,0,-0.0412991612,-0.8366101524,1.3917371176
 O,0,1.8333047612,0.057873018,-1.704109726
 C,0,-0.5956963425,-2.1464618858,-0.2226383861
 H,0,-1.3154811437,-2.2003856534,-1.0350489569
 H,0,0.3904749826,-2.3048582614,-0.6606011436
 C,0,-0.8221439742,-3.2978642342,0.744706508
 N,0,-1.4557656871,-4.3836081003,0.2150251643
 H,0,-1.7734432272,-4.4086735996,-0.7356680428
 H,0,-1.5787500445,-5.1826288235,0.8107687235
 O,0,-0.4217966438,-3.2778566737,1.895601112
 N,0,2.0976460688,0.6150317325,0.4722723062
 H,0,1.6847041331,0.8777666208,1.3512451479
 C,0,3.5316291048,0.7582376851,0.387572686
 H,0,3.9377157996,-0.1214109815,-0.1189495092
 C,0,4.0509911844,0.8138140329,1.8222570503
 C,0,3.9457028569,1.9943786264,-0.433383106
 H,0,3.6891909956,1.7919564202,-1.4705183183
 H,0,5.0334780497,2.097476883,-0.3722614546
 O,0,3.313801125,0.9703707723,2.7811084306
 C,0,3.2648689424,3.2404562527,0.0273133036
 C,0,2.1602465444,3.762209997,-0.663661413
 H,0,1.8058167897,3.2594462133,-1.5551971778
 C,0,3.696734271,3.9212113526,1.1669371383
 H,0,4.5464055187,3.5381990775,1.723411107
 C,0,1.5082572189,4.9019742376,-0.2415366547
 H,0,0.6662869836,5.3024994338,-0.7887582932
 C,0,3.0748019713,5.0654472589,1.6242906843
 H,0,3.4475086008,5.5807067865,2.4964681751
 O,0,1.3357419288,6.6464472816,1.3247114749
 C,0,1.9296342003,5.6175025825,0.9377426375
 N,0,5.3948477915,0.6764896579,1.9539674599
 H,0,5.9768265906,0.6891070687,1.1362832079
 C,0,6.0358442416,0.654820213,3.2537472827
 H,0,5.4784906438,-0.0500306159,3.8776192452
 C,0,5.9790799228,2.0328001348,3.9294417941
 C,0,7.4861063141,0.212130274,3.1066370206
 H,0,7.9735106275,0.1454554949,4.0819588543
 H,0,7.5391930939,-0.7672951079,2.6288836529
 H,0,8.0325429629,0.9353096483,2.4992799884
 O,0,6.1183321822,3.0856415776,3.3180072959
 N,0,5.821404487,1.9706637509,5.2785443405
 H,0,5.9166315748,1.0790061818,5.7359129265
 C,0,5.927842527,3.1278881677,6.1334036748
 H,0,6.3552428492,3.9524861828,5.5584250365
 C,0,6.8483099678,2.8021319787,7.2876173144
 C,0,4.5467201335,3.5460935114,6.6527692874
 H,0,4.6642269373,4.4118828971,7.3056533063
 H,0,4.1404304255,2.735623833,7.261590287
 O,0,7.1913070043,1.6945352409,7.617245074
 C,0,3.5846036832,3.8673740098,5.5148426977
 H,0,3.480750761,2.9998491139,4.8702806747
 H,0,3.9916710138,4.6707341447,4.8989493248
 C,0,2.2029494108,4.2490318694,6.0228409147
 H,0,2.2638445493,5.0868946091,6.7284552195
 H,0,1.7832615935,3.4010546126,6.5681248792
 N,0,1.2409383185,4.5363432327,4.9473138545
 H,0,0.4672350852,3.895530812,4.8552504519
 N,0,2.1084298664,6.6336674376,4.4336412272
 H,0,1.8074371849,7.5847169985,4.2684718325
 H,0,2.6935921126,6.5281861337,5.2512879715
 N,0,0.1304066756,5.9411713715,3.4299140473
 H,0,0.4485936772,6.4015118889,2.5704038073
 H,0,-0.5128727314,5.1732565549,3.261876367
 C,0,1.1439756863,5.6858388611,4.2778471525
 O,0,7.227318447,3.9166135245,7.9433311898
 H,0,7.7888098996,3.6184553313,8.6707174145
 Recover connectivity data from disk.
                           ----------------------------
                           !    Current Parameters    !
                           ! (Angstroms and Degrees)  !
 --------------------------                            --------------------------
 ! Name  Definition              Value                                          !
 --------------------------------------------------------------------------------
 ! R1    R(1,2)                  1.0206                                         !
 ! R2    R(1,3)                  1.022                                          !
 ! R3    R(1,4)                  1.0232                                         !
 ! R4    R(1,5)                  1.4745                                         !
 ! R5    R(5,6)                  1.0968                                         !
 ! R6    R(5,7)                  1.5231                                         !
 ! R7    R(5,8)                  1.5402                                         !
 ! R8    R(7,10)                 1.2252                                         !
 ! R9    R(7,17)                 1.3616                                         !
 ! R10   R(8,9)                  1.0919                                         !
 ! R11   R(8,11)                 1.5141                                         !
 ! R12   R(8,15)                 1.4247                                         !
 ! R13   R(11,12)                1.0914                                         !
 ! R14   R(11,13)                1.0965                                         !
 ! R15   R(11,14)                1.0916                                         !
 ! R16   R(15,16)                0.9601                                         !
 ! R17   R(17,18)                1.0097                                         !
 ! R18   R(17,19)                1.4476                                         !
 ! R19   R(19,20)                1.0925                                         !
 ! R20   R(19,21)                1.5233                                         !
 ! R21   R(19,22)                1.5464                                         !
 ! R22   R(21,24)                1.2264                                         !
 ! R23   R(21,36)                1.3626                                         !
 ! R24   R(22,23)                1.0953                                         !
 ! R25   R(22,25)                1.5301                                         !
 ! R26   R(22,28)                1.5283                                         !
 ! R27   R(25,26)                1.0958                                         !
 ! R28   R(25,27)                1.0926                                         !
 ! R29   R(25,32)                1.5233                                         !
 ! R30   R(28,29)                1.0901                                         !
 ! R31   R(28,30)                1.0929                                         !
 ! R32   R(28,31)                1.0904                                         !
 ! R33   R(32,33)                1.0906                                         !
 ! R34   R(32,34)                1.0902                                         !
 ! R35   R(32,35)                1.0924                                         !
 ! R36   R(36,37)                1.0038                                         !
 ! R37   R(36,38)                1.4567                                         !
 ! R38   R(38,39)                1.0921                                         !
 ! R39   R(38,40)                1.5317                                         !
 ! R40   R(38,41)                1.5192                                         !
 ! R41   R(40,45)                1.2307                                         !
 ! R42   R(40,46)                1.3498                                         !
 ! R43   R(41,42)                1.0923                                         !
 ! R44   R(41,43)                1.0917                                         !
 ! R45   R(41,44)                1.0915                                         !
 ! R46   R(46,47)                1.008                                          !
 ! R47   R(46,48)                1.4452                                         !
 ! R48   R(48,49)                1.0962                                         !
 ! R49   R(48,50)                1.5357                                         !
 ! R50   R(48,51)                1.5386                                         !
 ! R51   R(50,54)                1.2202                                         !
 ! R52   R(50,63)                1.353                                          !
 ! R53   R(51,52)                1.0929                                         !
 ! R54   R(51,53)                1.0907                                         !
 ! R55   R(51,55)                1.526                                          !
 ! R56   R(55,56)                1.0867                                         !
 ! R57   R(55,57)                1.0906                                         !
 ! R58   R(55,58)                1.5208                                         !
 ! R59   R(58,59)                1.3641                                         !
 ! R60   R(58,62)                1.2187                                         !
 ! R61   R(59,60)                1.0027                                         !
 ! R62   R(59,61)                1.0042                                         !
 ! R63   R(63,64)                1.0061                                         !
 ! R64   R(63,65)                1.4436                                         !
 ! R65   R(65,66)                1.0933                                         !
 ! R66   R(65,67)                1.5268                                         !
 ! R67   R(65,68)                1.5406                                         !
 ! R68   R(67,71)                1.2196                                         !
 ! R69   R(67,83)                1.3573                                         !
 ! R70   R(68,69)                1.0874                                         !
 ! R71   R(68,70)                1.0944                                         !
 ! R72   R(68,72)                1.4928                                         !
 ! R73   R(72,73)                1.4035                                         !
 ! R74   R(72,75)                1.396                                          !
 ! R75   R(73,74)                1.0832                                         !
 ! R76   R(73,77)                1.3793                                         !
 ! R77   R(75,76)                1.0855                                         !
 ! R78   R(75,79)                1.3803                                         !
 ! R79   R(77,78)                1.0811                                         !
 ! R80   R(77,82)                1.4423                                         !
 ! R81   R(79,80)                1.0794                                         !
 ! R82   R(79,82)                1.4448                                         !
 ! R83   R(81,82)                1.2495                                         !
 ! R84   R(83,84)                1.0037                                         !
 ! R85   R(83,85)                1.4494                                         !
 ! R86   R(85,86)                1.0939                                         !
 ! R87   R(85,87)                1.5358                                         !
 ! R88   R(85,88)                1.5234                                         !
 ! R89   R(87,92)                1.2254                                         !
 ! R90   R(87,93)                1.3597                                         !
 ! R91   R(88,89)                1.0924                                         !
 ! R92   R(88,90)                1.091                                          !
 ! R93   R(88,91)                1.0911                                         !
 ! R94   R(93,94)                1.0066                                         !
 ! R95   R(93,95)                1.4427                                         !
 ! R96   R(95,96)                1.0924                                         !
 ! R97   R(95,97)                1.5118                                         !
 ! R98   R(95,98)                1.5337                                         !
 ! R99   R(97,101)               1.2054                                         !
 ! R100  R(97,117)               1.3475                                         !
 ! R101  R(98,99)                1.0907                                         !
 ! R102  R(98,100)               1.0921                                         !
 ! R103  R(98,102)               1.5244                                         !
 ! R104  R(102,103)              1.0857                                         !
 ! R105  R(102,104)              1.0911                                         !
 ! R106  R(102,105)              1.5208                                         !
 ! R107  R(105,106)              1.0971                                         !
 ! R108  R(105,107)              1.092                                          !
 ! R109  R(105,108)              1.4713                                         !
 ! R110  R(108,109)              1.0088                                         !
 ! R111  R(108,116)              1.3338                                         !
 ! R112  R(110,111)              1.0111                                         !
 ! R113  R(110,112)              1.011                                          !
 ! R114  R(110,116)              1.3612                                         !
 ! R115  R(113,114)              1.0256                                         !
 ! R116  R(113,115)              1.0157                                         !
 ! R117  R(113,116)              1.3459                                         !
 ! R118  R(117,118)              0.9661                                         !
 ! A1    A(2,1,3)              110.0271                                         !
 ! A2    A(2,1,4)              108.933                                          !
 ! A3    A(2,1,5)              111.4289                                         !
 ! A4    A(3,1,4)              109.2697                                         !
 ! A5    A(3,1,5)              108.8684                                         !
 ! A6    A(4,1,5)              108.2719                                         !
 ! A7    A(1,5,6)              109.6201                                         !
 ! A8    A(1,5,7)              109.3494                                         !
 ! A9    A(1,5,8)              108.9172                                         !
 ! A10   A(6,5,7)              110.203                                          !
 ! A11   A(6,5,8)              107.76                                           !
 ! A12   A(7,5,8)              110.96                                           !
 ! A13   A(5,7,10)             121.517                                          !
 ! A14   A(5,7,17)             115.0949                                         !
 ! A15   A(10,7,17)            123.384                                          !
 ! A16   A(5,8,9)              107.6299                                         !
 ! A17   A(5,8,11)             114.0545                                         !
 ! A18   A(5,8,15)             108.877                                          !
 ! A19   A(9,8,11)             110.1997                                         !
 ! A20   A(9,8,15)             105.33                                           !
 ! A21   A(11,8,15)            110.3497                                         !
 ! A22   A(8,11,12)            111.9334                                         !
 ! A23   A(8,11,13)            110.5059                                         !
 ! A24   A(8,11,14)            109.276                                          !
 ! A25   A(12,11,13)           108.489                                          !
 ! A26   A(12,11,14)           108.171                                          !
 ! A27   A(13,11,14)           108.3717                                         !
 ! A28   A(8,15,16)            107.3506                                         !
 ! A29   A(7,17,18)            118.4921                                         !
 ! A30   A(7,17,19)            121.2767                                         !
 ! A31   A(18,17,19)           112.7202                                         !
 ! A32   A(17,19,20)           108.1342                                         !
 ! A33   A(17,19,21)           106.6912                                         !
 ! A34   A(17,19,22)           113.3655                                         !
 ! A35   A(20,19,21)           109.257                                          !
 ! A36   A(20,19,22)           107.4072                                         !
 ! A37   A(21,19,22)           111.8868                                         !
 ! A38   A(19,21,24)           121.8874                                         !
 ! A39   A(19,21,36)           115.6056                                         !
 ! A40   A(24,21,36)           122.5069                                         !
 ! A41   A(19,22,23)           105.4571                                         !
 ! A42   A(19,22,25)           112.3821                                         !
 ! A43   A(19,22,28)           109.7986                                         !
 ! A44   A(23,22,25)           107.6623                                         !
 ! A45   A(23,22,28)           109.5182                                         !
 ! A46   A(25,22,28)           111.7771                                         !
 ! A47   A(22,25,26)           108.4507                                         !
 ! A48   A(22,25,27)           108.3079                                         !
 ! A49   A(22,25,32)           113.8104                                         !
 ! A50   A(26,25,27)           106.9082                                         !
 ! A51   A(26,25,32)           109.2204                                         !
 ! A52   A(27,25,32)           109.906                                          !
 ! A53   A(22,28,29)           110.1718                                         !
 ! A54   A(22,28,30)           111.1249                                         !
 ! A55   A(22,28,31)           111.2844                                         !
 ! A56   A(29,28,30)           107.8656                                         !
 ! A57   A(29,28,31)           107.7989                                         !
 ! A58   A(30,28,31)           108.4673                                         !
 ! A59   A(25,32,33)           110.6399                                         !
 ! A60   A(25,32,34)           112.1329                                         !
 ! A61   A(25,32,35)           110.8197                                         !
 ! A62   A(33,32,34)           107.6644                                         !
 ! A63   A(33,32,35)           107.7524                                         !
 ! A64   A(34,32,35)           107.6531                                         !
 ! A65   A(21,36,37)           116.4862                                         !
 ! A66   A(21,36,38)           119.8815                                         !
 ! A67   A(37,36,38)           114.7938                                         !
 ! A68   A(36,38,39)           107.0606                                         !
 ! A69   A(36,38,40)           108.719                                          !
 ! A70   A(36,38,41)           109.9134                                         !
 ! A71   A(39,38,40)           109.1749                                         !
 ! A72   A(39,38,41)           111.2488                                         !
 ! A73   A(40,38,41)           110.6252                                         !
 ! A74   A(38,40,45)           121.4868                                         !
 ! A75   A(38,40,46)           115.4927                                         !
 ! A76   A(45,40,46)           123.0169                                         !
 ! A77   A(38,41,42)           110.6872                                         !
 ! A78   A(38,41,43)           110.1127                                         !
 ! A79   A(38,41,44)           110.0652                                         !
 ! A80   A(42,41,43)           108.2554                                         !
 ! A81   A(42,41,44)           108.7064                                         !
 ! A82   A(43,41,44)           108.9647                                         !
 ! A83   A(40,46,47)           122.543                                          !
 ! A84   A(40,46,48)           121.2872                                         !
 ! A85   A(47,46,48)           116.1119                                         !
 ! A86   A(46,48,49)           108.6222                                         !
 ! A87   A(46,48,50)           106.1305                                         !
 ! A88   A(46,48,51)           112.783                                          !
 ! A89   A(49,48,50)           109.7454                                         !
 ! A90   A(49,48,51)           107.2111                                         !
 ! A91   A(50,48,51)           112.2997                                         !
 ! A92   A(48,50,54)           121.9467                                         !
 ! A93   A(48,50,63)           115.0338                                         !
 ! A94   A(54,50,63)           122.988                                          !
 ! A95   A(48,51,52)           107.5089                                         !
 ! A96   A(48,51,53)           109.1549                                         !
 ! A97   A(48,51,55)           113.2409                                         !
 ! A98   A(52,51,53)           107.3427                                         !
 ! A99   A(52,51,55)           109.9106                                         !
 ! A100  A(53,51,55)           109.4991                                         !
 ! A101  A(51,55,56)           111.6128                                         !
 ! A102  A(51,55,57)           110.3032                                         !
 ! A103  A(51,55,58)           111.6319                                         !
 ! A104  A(56,55,57)           106.9475                                         !
 ! A105  A(56,55,58)           109.8357                                         !
 ! A106  A(57,55,58)           106.2673                                         !
 ! A107  A(55,58,59)           115.1367                                         !
 ! A108  A(55,58,62)           122.6394                                         !
 ! A109  A(59,58,62)           122.1634                                         !
 ! A110  A(58,59,60)           122.3586                                         !
 ! A111  A(58,59,61)           117.3752                                         !
 ! A112  A(60,59,61)           120.2509                                         !
 ! A113  A(50,63,64)           122.1015                                         !
 ! A114  A(50,63,65)           121.4906                                         !
 ! A115  A(64,63,65)           115.663                                          !
 ! A116  A(63,65,66)           108.4412                                         !
 ! A117  A(63,65,67)           106.641                                          !
 ! A118  A(63,65,68)           112.2001                                         !
 ! A119  A(66,65,67)           109.7727                                         !
 ! A120  A(66,65,68)           107.3897                                         !
 ! A121  A(67,65,68)           112.3394                                         !
 ! A122  A(65,67,71)           122.5365                                         !
 ! A123  A(65,67,83)           115.1067                                         !
 ! A124  A(71,67,83)           122.3567                                         !
 ! A125  A(65,68,69)           107.1865                                         !
 ! A126  A(65,68,70)           108.2392                                         !
 ! A127  A(65,68,72)           112.5025                                         !
 ! A128  A(69,68,70)           107.7753                                         !
 ! A129  A(69,68,72)           110.0077                                         !
 ! A130  A(70,68,72)           110.9441                                         !
 ! A131  A(68,72,73)           121.1526                                         !
 ! A132  A(68,72,75)           121.1921                                         !
 ! A133  A(73,72,75)           117.6529                                         !
 ! A134  A(72,73,74)           119.3539                                         !
 ! A135  A(72,73,77)           121.9086                                         !
 ! A136  A(74,73,77)           118.7375                                         !
 ! A137  A(72,75,76)           119.2487                                         !
 ! A138  A(72,75,79)           122.3687                                         !
 ! A139  A(76,75,79)           118.3805                                         !
 ! A140  A(73,77,78)           121.291                                          !
 ! A141  A(73,77,82)           121.4728                                         !
 ! A142  A(78,77,82)           117.2324                                         !
 ! A143  A(75,79,80)           120.522                                          !
 ! A144  A(75,79,82)           121.0926                                         !
 ! A145  A(80,79,82)           118.3748                                         !
 ! A146  A(77,82,79)           115.5011                                         !
 ! A147  A(77,82,81)           121.5271                                         !
 ! A148  A(79,82,81)           122.9715                                         !
 ! A149  A(67,83,84)           119.5884                                         !
 ! A150  A(67,83,85)           121.7637                                         !
 ! A151  A(84,83,85)           118.3148                                         !
 ! A152  A(83,85,86)           107.2019                                         !
 ! A153  A(83,85,87)           111.3946                                         !
 ! A154  A(83,85,88)           109.8009                                         !
 ! A155  A(86,85,87)           107.9616                                         !
 ! A156  A(86,85,88)           110.6625                                         !
 ! A157  A(87,85,88)           109.7794                                         !
 ! A158  A(85,87,92)           123.1718                                         !
 ! A159  A(85,87,93)           113.567                                          !
 ! A160  A(92,87,93)           123.1954                                         !
 ! A161  A(85,88,89)           110.8717                                         !
 ! A162  A(85,88,90)           110.4547                                         !
 ! A163  A(85,88,91)           109.7498                                         !
 ! A164  A(89,88,90)           108.3288                                         !
 ! A165  A(89,88,91)           108.3008                                         !
 ! A166  A(90,88,91)           109.0798                                         !
 ! A167  A(87,93,94)           118.7064                                         !
 ! A168  A(87,93,95)           122.8692                                         !
 ! A169  A(94,93,95)           115.7417                                         !
 ! A170  A(93,95,96)           108.8136                                         !
 ! A171  A(93,95,97)           108.9337                                         !
 ! A172  A(93,95,98)           110.6682                                         !
 ! A173  A(96,95,97)           109.0442                                         !
 ! A174  A(96,95,98)           108.9508                                         !
 ! A175  A(97,95,98)           110.3959                                         !
 ! A176  A(95,97,101)          125.4504                                         !
 ! A177  A(95,97,117)          111.3803                                         !
 ! A178  A(101,97,117)         123.1518                                         !
 ! A179  A(95,98,99)           108.7923                                         !
 ! A180  A(95,98,100)          108.751                                          !
 ! A181  A(95,98,102)          111.904                                          !
 ! A182  A(99,98,100)          107.1861                                         !
 ! A183  A(99,98,102)          110.3363                                         !
 ! A184  A(100,98,102)         109.7407                                         !
 ! A185  A(98,102,103)         109.5801                                         !
 ! A186  A(98,102,104)         109.9432                                         !
 ! A187  A(98,102,105)         112.1452                                         !
 ! A188  A(103,102,104)        106.7918                                         !
 ! A189  A(103,102,105)        108.1756                                         !
 ! A190  A(104,102,105)        110.044                                          !
 ! A191  A(102,105,106)        110.8598                                         !
 ! A192  A(102,105,107)        108.7285                                         !
 ! A193  A(102,105,108)        113.507                                          !
 ! A194  A(106,105,107)        107.0503                                         !
 ! A195  A(106,105,108)        110.9352                                         !
 ! A196  A(107,105,108)        105.3882                                         !
 ! A197  A(105,108,109)        116.3673                                         !
 ! A198  A(105,108,116)        125.6438                                         !
 ! A199  A(109,108,116)        116.4801                                         !
 ! A200  A(111,110,112)        113.7376                                         !
 ! A201  A(111,110,116)        115.1721                                         !
 ! A202  A(112,110,116)        115.469                                          !
 ! A203  A(114,113,115)        113.4009                                         !
 ! A204  A(114,113,116)        112.3016                                         !
 ! A205  A(115,113,116)        115.9588                                         !
 ! A206  A(108,116,110)        119.4172                                         !
 ! A207  A(108,116,113)        122.3078                                         !
 ! A208  A(110,116,113)        118.2673                                         !
 ! A209  A(97,117,118)         105.9391                                         !
 ! D1    D(2,1,5,6)             45.4512                                         !
 ! D2    D(2,1,5,7)            -75.4637                                         !
 ! D3    D(2,1,5,8)            163.1285                                         !
 ! D4    D(3,1,5,6)            -76.0773                                         !
 ! D5    D(3,1,5,7)            163.0078                                         !
 ! D6    D(3,1,5,8)             41.6                                            !
 ! D7    D(4,1,5,6)            165.2299                                         !
 ! D8    D(4,1,5,7)             44.3149                                         !
 ! D9    D(4,1,5,8)            -77.0929                                         !
 ! D10   D(1,5,7,10)           -37.0567                                         !
 ! D11   D(1,5,7,17)           143.6622                                         !
 ! D12   D(6,5,7,10)          -157.6166                                         !
 ! D13   D(6,5,7,17)            23.1023                                         !
 ! D14   D(8,5,7,10)            83.1072                                         !
 ! D15   D(8,5,7,17)           -96.1739                                         !
 ! D16   D(1,5,8,9)             59.5297                                         !
 ! D17   D(1,5,8,11)          -177.8805                                         !
 ! D18   D(1,5,8,15)           -54.1634                                         !
 ! D19   D(6,5,8,9)            178.3775                                         !
 ! D20   D(6,5,8,11)           -59.0327                                         !
 ! D21   D(6,5,8,15)            64.6844                                         !
 ! D22   D(7,5,8,9)            -60.8909                                         !
 ! D23   D(7,5,8,11)            61.6988                                         !
 ! D24   D(7,5,8,15)          -174.584                                          !
 ! D25   D(5,7,17,18)           15.4535                                         !
 ! D26   D(5,7,17,19)          163.007                                          !
 ! D27   D(10,7,17,18)        -163.8125                                         !
 ! D28   D(10,7,17,19)         -16.259                                          !
 ! D29   D(5,8,11,12)          -64.4504                                         !
 ! D30   D(5,8,11,13)           56.587                                          !
 ! D31   D(5,8,11,14)          175.7493                                         !
 ! D32   D(9,8,11,12)           56.7234                                         !
 ! D33   D(9,8,11,13)          177.7608                                         !
 ! D34   D(9,8,11,14)          -63.0768                                         !
 ! D35   D(15,8,11,12)         172.6309                                         !
 ! D36   D(15,8,11,13)         -66.3317                                         !
 ! D37   D(15,8,11,14)          52.8306                                         !
 ! D38   D(5,8,15,16)          -74.6951                                         !
 ! D39   D(9,8,15,16)          170.1146                                         !
 ! D40   D(11,8,15,16)          51.1977                                         !
 ! D41   D(7,17,19,20)         -12.4612                                         !
 ! D42   D(7,17,19,21)        -129.8813                                         !
 ! D43   D(7,17,19,22)         106.5127                                         !
 ! D44   D(18,17,19,20)        136.7951                                         !
 ! D45   D(18,17,19,21)         19.375                                          !
 ! D46   D(18,17,19,22)       -104.231                                          !
 ! D47   D(17,19,21,24)        -21.2946                                         !
 ! D48   D(17,19,21,36)        158.595                                          !
 ! D49   D(20,19,21,24)       -137.9706                                         !
 ! D50   D(20,19,21,36)         41.919                                          !
 ! D51   D(22,19,21,24)        103.223                                          !
 ! D52   D(22,19,21,36)        -76.8874                                         !
 ! D53   D(17,19,22,23)        174.3678                                         !
 ! D54   D(17,19,22,25)         57.3472                                         !
 ! D55   D(17,19,22,28)        -67.7298                                         !
 ! D56   D(20,19,22,23)        -66.2411                                         !
 ! D57   D(20,19,22,25)        176.7383                                         !
 ! D58   D(20,19,22,28)         51.6613                                         !
 ! D59   D(21,19,22,23)         53.6552                                         !
 ! D60   D(21,19,22,25)        -63.3654                                         !
 ! D61   D(21,19,22,28)        171.5576                                         !
 ! D62   D(19,21,36,37)         15.6628                                         !
 ! D63   D(19,21,36,38)        161.4218                                         !
 ! D64   D(24,21,36,37)       -164.4483                                         !
 ! D65   D(24,21,36,38)        -18.6894                                         !
 ! D66   D(19,22,25,26)         43.2662                                         !
 ! D67   D(19,22,25,27)        -72.4133                                         !
 ! D68   D(19,22,25,32)        165.0391                                         !
 ! D69   D(23,22,25,26)        -72.431                                          !
 ! D70   D(23,22,25,27)        171.8895                                         !
 ! D71   D(23,22,25,32)         49.3419                                         !
 ! D72   D(28,22,25,26)        167.2516                                         !
 ! D73   D(28,22,25,27)         51.572                                          !
 ! D74   D(28,22,25,32)        -70.9755                                         !
 ! D75   D(19,22,28,29)         66.6372                                         !
 ! D76   D(19,22,28,30)        -52.8559                                         !
 ! D77   D(19,22,28,31)       -173.8507                                         !
 ! D78   D(23,22,28,29)       -178.0132                                         !
 ! D79   D(23,22,28,30)         62.4937                                         !
 ! D80   D(23,22,28,31)        -58.5011                                         !
 ! D81   D(25,22,28,29)        -58.787                                          !
 ! D82   D(25,22,28,30)       -178.2801                                         !
 ! D83   D(25,22,28,31)         60.725                                          !
 ! D84   D(22,25,32,33)        177.5989                                         !
 ! D85   D(22,25,32,34)         57.3837                                         !
 ! D86   D(22,25,32,35)        -62.9415                                         !
 ! D87   D(26,25,32,33)        -61.0557                                         !
 ! D88   D(26,25,32,34)        178.7291                                         !
 ! D89   D(26,25,32,35)         58.4039                                         !
 ! D90   D(27,25,32,33)         55.9338                                         !
 ! D91   D(27,25,32,34)        -64.2815                                         !
 ! D92   D(27,25,32,35)        175.3933                                         !
 ! D93   D(21,36,38,39)         50.4534                                         !
 ! D94   D(21,36,38,40)        -67.3701                                         !
 ! D95   D(21,36,38,41)        171.4096                                         !
 ! D96   D(37,36,38,39)       -163.2403                                         !
 ! D97   D(37,36,38,40)         78.9362                                         !
 ! D98   D(37,36,38,41)        -42.2842                                         !
 ! D99   D(36,38,40,45)        -38.3626                                         !
 ! D100  D(36,38,40,46)        142.3098                                         !
 ! D101  D(39,38,40,45)       -154.8371                                         !
 ! D102  D(39,38,40,46)         25.8354                                         !
 ! D103  D(41,38,40,45)         82.4202                                         !
 ! D104  D(41,38,40,46)        -96.9073                                         !
 ! D105  D(36,38,41,42)       -178.447                                          !
 ! D106  D(36,38,41,43)         61.8917                                         !
 ! D107  D(36,38,41,44)        -58.2548                                         !
 ! D108  D(39,38,41,42)        -60.0442                                         !
 ! D109  D(39,38,41,43)       -179.7054                                         !
 ! D110  D(39,38,41,44)         60.1481                                         !
 ! D111  D(40,38,41,42)         61.4829                                         !
 ! D112  D(40,38,41,43)        -58.1783                                         !
 ! D113  D(40,38,41,44)       -178.3248                                         !
 ! D114  D(38,40,46,47)          2.5858                                         !
 ! D115  D(38,40,46,48)       -174.5409                                         !
 ! D116  D(45,40,46,47)       -176.7303                                         !
 ! D117  D(45,40,46,48)          6.143                                          !
 ! D118  D(40,46,48,49)        -55.5601                                         !
 ! D119  D(40,46,48,50)       -173.5018                                         !
 ! D120  D(40,46,48,51)         63.138                                          !
 ! D121  D(47,46,48,49)        127.1372                                         !
 ! D122  D(47,46,48,50)          9.1956                                         !
 ! D123  D(47,46,48,51)       -114.1647                                         !
 ! D124  D(46,48,50,54)        -14.8679                                         !
 ! D125  D(46,48,50,63)        167.1136                                         !
 ! D126  D(49,48,50,54)       -132.061                                          !
 ! D127  D(49,48,50,63)         49.9205                                         !
 ! D128  D(51,48,50,54)        108.7953                                         !
 ! D129  D(51,48,50,63)        -69.2232                                         !
 ! D130  D(46,48,51,52)        -73.229                                          !
 ! D131  D(46,48,51,53)        170.6373                                         !
 ! D132  D(46,48,51,55)         48.3795                                         !
 ! D133  D(49,48,51,52)         46.2886                                         !
 ! D134  D(49,48,51,53)        -69.8451                                         !
 ! D135  D(49,48,51,55)        167.897                                          !
 ! D136  D(50,48,51,52)        166.9064                                         !
 ! D137  D(50,48,51,53)         50.7727                                         !
 ! D138  D(50,48,51,55)        -71.4851                                         !
 ! D139  D(48,50,63,64)         -4.0255                                         !
 ! D140  D(48,50,63,65)       -173.7077                                         !
 ! D141  D(54,50,63,64)        177.979                                          !
 ! D142  D(54,50,63,65)          8.2969                                         !
 ! D143  D(48,51,55,56)        -67.3844                                         !
 ! D144  D(48,51,55,57)         51.359                                          !
 ! D145  D(48,51,55,58)        169.2653                                         !
 ! D146  D(52,51,55,56)         52.8664                                         !
 ! D147  D(52,51,55,57)        171.6099                                         !
 ! D148  D(52,51,55,58)        -70.4838                                         !
 ! D149  D(53,51,55,56)        170.5497                                         !
 ! D150  D(53,51,55,57)        -70.7069                                         !
 ! D151  D(53,51,55,58)         47.1994                                         !
 ! D152  D(51,55,58,59)        147.7528                                         !
 ! D153  D(51,55,58,62)        -35.022                                          !
 ! D154  D(56,55,58,59)         23.4001                                         !
 ! D155  D(56,55,58,62)       -159.3747                                         !
 ! D156  D(57,55,58,59)        -91.9447                                         !
 ! D157  D(57,55,58,62)         85.2805                                         !
 ! D158  D(55,58,59,60)         -1.772                                          !
 ! D159  D(55,58,59,61)        176.8081                                         !
 ! D160  D(62,58,59,60)       -179.0118                                         !
 ! D161  D(62,58,59,61)         -0.4317                                         !
 ! D162  D(50,63,65,66)        -52.1959                                         !
 ! D163  D(50,63,65,67)       -170.3508                                         !
 ! D164  D(50,63,65,68)         66.2516                                         !
 ! D165  D(64,63,65,66)        137.4948                                         !
 ! D166  D(64,63,65,67)         19.3399                                         !
 ! D167  D(64,63,65,68)       -104.0577                                         !
 ! D168  D(63,65,67,71)        -12.7395                                         !
 ! D169  D(63,65,67,83)        167.2753                                         !
 ! D170  D(66,65,67,71)       -130.0164                                         !
 ! D171  D(66,65,67,83)         49.9984                                         !
 ! D172  D(68,65,67,71)        110.5715                                         !
 ! D173  D(68,65,67,83)        -69.4137                                         !
 ! D174  D(63,65,68,69)        -69.5893                                         !
 ! D175  D(63,65,68,70)        174.4099                                         !
 ! D176  D(63,65,68,72)         51.4604                                         !
 ! D177  D(66,65,68,69)         49.4776                                         !
 ! D178  D(66,65,68,70)        -66.5231                                         !
 ! D179  D(66,65,68,72)        170.5273                                         !
 ! D180  D(67,65,68,69)        170.2717                                         !
 ! D181  D(67,65,68,70)         54.2709                                         !
 ! D182  D(67,65,68,72)        -68.6787                                         !
 ! D183  D(65,67,83,84)          9.1967                                         !
 ! D184  D(65,67,83,85)       -177.5439                                         !
 ! D185  D(71,67,83,84)       -170.7885                                         !
 ! D186  D(71,67,83,85)          2.4708                                         !
 ! D187  D(65,68,72,73)       -101.0177                                         !
 ! D188  D(65,68,72,75)         78.4078                                         !
 ! D189  D(69,68,72,73)         18.4031                                         !
 ! D190  D(69,68,72,75)       -162.1714                                         !
 ! D191  D(70,68,72,73)        137.5627                                         !
 ! D192  D(70,68,72,75)        -43.0119                                         !
 ! D193  D(68,72,73,74)         -0.9382                                         !
 ! D194  D(68,72,73,77)        179.1005                                         !
 ! D195  D(75,72,73,74)        179.6167                                         !
 ! D196  D(75,72,73,77)         -0.3447                                         !
 ! D197  D(68,72,75,76)          0.3174                                         !
 ! D198  D(68,72,75,79)       -179.1519                                         !
 ! D199  D(73,72,75,76)        179.7623                                         !
 ! D200  D(73,72,75,79)          0.293                                          !
 ! D201  D(72,73,77,78)        179.1896                                         !
 ! D202  D(72,73,77,82)         -0.0823                                         !
 ! D203  D(74,73,77,78)         -0.772                                          !
 ! D204  D(74,73,77,82)        179.9561                                         !
 ! D205  D(72,75,79,80)       -178.611                                          !
 ! D206  D(72,75,79,82)          0.185                                          !
 ! D207  D(76,75,79,80)          1.9153                                         !
 ! D208  D(76,75,79,82)       -179.2888                                         !
 ! D209  D(73,77,82,79)          0.5349                                         !
 ! D210  D(73,77,82,81)       -179.6483                                         !
 ! D211  D(78,77,82,79)       -178.7653                                         !
 ! D212  D(78,77,82,81)          1.0515                                         !
 ! D213  D(75,79,82,77)         -0.5844                                         !
 ! D214  D(75,79,82,81)        179.6018                                         !
 ! D215  D(80,79,82,77)        178.2368                                         !
 ! D216  D(80,79,82,81)         -1.5771                                         !
 ! D217  D(67,83,85,86)         48.3644                                         !
 ! D218  D(67,83,85,87)        -69.5404                                         !
 ! D219  D(67,83,85,88)        168.6335                                         !
 ! D220  D(84,83,85,86)       -138.2935                                         !
 ! D221  D(84,83,85,87)        103.8017                                         !
 ! D222  D(84,83,85,88)        -18.0244                                         !
 ! D223  D(83,85,87,92)        -38.5356                                         !
 ! D224  D(83,85,87,93)        144.3306                                         !
 ! D225  D(86,85,87,92)       -155.9815                                         !
 ! D226  D(86,85,87,93)         26.8848                                         !
 ! D227  D(88,85,87,92)         83.3029                                         !
 ! D228  D(88,85,87,93)        -93.8308                                         !
 ! D229  D(83,85,88,89)       -177.4032                                         !
 ! D230  D(83,85,88,90)        -57.3092                                         !
 ! D231  D(83,85,88,91)         62.9957                                         !
 ! D232  D(86,85,88,89)        -59.2577                                         !
 ! D233  D(86,85,88,90)         60.8363                                         !
 ! D234  D(86,85,88,91)       -178.8589                                         !
 ! D235  D(87,85,88,89)         59.8112                                         !
 ! D236  D(87,85,88,90)        179.9052                                         !
 ! D237  D(87,85,88,91)        -59.7899                                         !
 ! D238  D(85,87,93,94)         10.5264                                         !
 ! D239  D(85,87,93,95)        171.1597                                         !
 ! D240  D(92,87,93,94)       -166.6066                                         !
 ! D241  D(92,87,93,95)         -5.9733                                         !
 ! D242  D(87,93,95,96)        -12.1756                                         !
 ! D243  D(87,93,95,97)       -130.9459                                         !
 ! D244  D(87,93,95,98)        107.5078                                         !
 ! D245  D(94,93,95,96)        148.986                                          !
 ! D246  D(94,93,95,97)         30.2157                                         !
 ! D247  D(94,93,95,98)        -91.3306                                         !
 ! D248  D(93,95,97,101)       -15.5873                                         !
 ! D249  D(93,95,97,117)       165.8998                                         !
 ! D250  D(96,95,97,101)      -134.2132                                         !
 ! D251  D(96,95,97,117)        47.274                                          !
 ! D252  D(98,95,97,101)       106.1245                                         !
 ! D253  D(98,95,97,117)       -72.3883                                         !
 ! D254  D(93,95,98,99)        179.1666                                         !
 ! D255  D(93,95,98,100)        62.7353                                         !
 ! D256  D(93,95,98,102)       -58.6602                                         !
 ! D257  D(96,95,98,99)        -61.2325                                         !
 ! D258  D(96,95,98,100)      -177.6638                                         !
 ! D259  D(96,95,98,102)        60.9406                                         !
 ! D260  D(97,95,98,99)         58.4861                                         !
 ! D261  D(97,95,98,100)       -57.9452                                         !
 ! D262  D(97,95,98,102)      -179.3407                                         !
 ! D263  D(95,97,117,118)      178.5917                                         !
 ! D264  D(101,97,117,118)       0.0387                                         !
 ! D265  D(95,98,102,103)       58.4192                                         !
 ! D266  D(95,98,102,104)      -58.6616                                         !
 ! D267  D(95,98,102,105)      178.565                                          !
 ! D268  D(99,98,102,103)      179.705                                          !
 ! D269  D(99,98,102,104)       62.6241                                         !
 ! D270  D(99,98,102,105)      -60.1492                                         !
 ! D271  D(100,98,102,103)     -62.4038                                         !
 ! D272  D(100,98,102,104)    -179.4847                                         !
 ! D273  D(100,98,102,105)      57.742                                          !
 ! D274  D(98,102,105,106)      55.6465                                         !
 ! D275  D(98,102,105,107)     -61.7738                                         !
 ! D276  D(98,102,105,108)    -178.7112                                         !
 ! D277  D(103,102,105,106)    176.6059                                         !
 ! D278  D(103,102,105,107)     59.1856                                         !
 ! D279  D(103,102,105,108)    -57.7518                                         !
 ! D280  D(104,102,105,106)    -67.0698                                         !
 ! D281  D(104,102,105,107)    175.51                                           !
 ! D282  D(104,102,105,108)     58.5725                                         !
 ! D283  D(102,105,108,109)    113.6616                                         !
 ! D284  D(102,105,108,116)    -80.9079                                         !
 ! D285  D(106,105,108,109)   -120.7362                                         !
 ! D286  D(106,105,108,116)     44.6943                                         !
 ! D287  D(107,105,108,109)     -5.2115                                         !
 ! D288  D(107,105,108,116)    160.219                                          !
 ! D289  D(105,108,116,110)      9.9688                                         !
 ! D290  D(105,108,116,113)   -171.0603                                         !
 ! D291  D(109,108,116,110)    175.3847                                         !
 ! D292  D(109,108,116,113)     -5.6444                                         !
 ! D293  D(111,110,116,108)   -153.4743                                         !
 ! D294  D(111,110,116,113)     27.5132                                         !
 ! D295  D(112,110,116,108)    -17.7065                                         !
 ! D296  D(112,110,116,113)    163.281                                          !
 ! D297  D(114,113,116,108)   -138.1072                                         !
 ! D298  D(114,113,116,110)     40.8751                                         !
 ! D299  D(115,113,116,108)     -5.4877                                         !
 ! D300  D(115,113,116,110)    173.4946                                         !
 --------------------------------------------------------------------------------
 Symmetry turned off by external request.
 Stoichiometry    C36H60N11O11(1+)
 Framework group  C1[X(C36H60N11O11)]
 Deg. of freedom   348
 Full point group                 C1      NOp   1
                          Input orientation:                          
 ---------------------------------------------------------------------
 Center     Atomic      Atomic             Coordinates (Angstroms)
 Number     Number       Type             X           Y           Z
 ---------------------------------------------------------------------
      1          7           0       -7.170127   -6.497239   -3.519642
      2          1           0       -7.379777   -6.711424   -2.543990
      3          1           0       -7.021820   -7.361982   -4.043747
      4          1           0       -7.959701   -5.988023   -3.924812
      5          6           0       -5.966066   -5.654535   -3.639476
      6          1           0       -5.174409   -6.049041   -2.990976
      7          6           0       -6.308879   -4.225045   -3.240955
      8          6           0       -5.457083   -5.714585   -5.091914
      9          1           0       -6.257468   -5.348727   -5.738193
     10          8           0       -7.390969   -3.723744   -3.522053
     11          6           0       -4.187664   -4.925640   -5.334140
     12          1           0       -4.338232   -3.855043   -5.184551
     13          1           0       -3.391497   -5.262410   -4.659595
     14          1           0       -3.856609   -5.082444   -6.362433
     15          8           0       -5.270379   -7.078501   -5.458900
     16          1           0       -4.472513   -7.385905   -5.022104
     17          7           0       -5.325855   -3.560073   -2.573589
     18          1           0       -4.389556   -3.937525   -2.593923
     19          6           0       -5.344739   -2.117901   -2.449400
     20          1           0       -6.096550   -1.727055   -3.138964
     21          6           0       -3.967850   -1.624064   -2.874714
     22          6           0       -5.719571   -1.629345   -1.030895
     23          1           0       -5.595162   -0.541382   -1.054496
     24          8           0       -2.985306   -2.358014   -2.866540
     25          6           0       -4.779252   -2.180945    0.042707
     26          1           0       -3.750582   -2.111569   -0.328376
     27          1           0       -4.997535   -3.242968    0.177350
     28          6           0       -7.179765   -1.970017   -0.735078
     29          1           0       -7.308757   -3.050729   -0.674339
     30          1           0       -7.838679   -1.597475   -1.523483
     31          1           0       -7.501455   -1.542033    0.214834
     32          6           0       -4.880077   -1.457218    1.379283
     33          1           0       -4.221109   -1.917552    2.116397
     34          1           0       -5.892854   -1.477993    1.782248
     35          1           0       -4.585629   -0.410254    1.277082
     36          7           0       -3.904458   -0.319894   -3.264454
     37          1           0       -4.684477    0.260432   -3.014618
     38          6           0       -2.619528    0.365523   -3.299297
     39          1           0       -1.931941   -0.271014   -3.860371
     40          6           0       -2.105440    0.519465   -1.864635
     41          6           0       -2.775669    1.724334   -3.960501
     42          1           0       -1.813536    2.238324   -4.018040
     43          1           0       -3.461708    2.346460   -3.382503
     44          1           0       -3.170256    1.605832   -4.971279
     45          8           0       -2.867270    0.776978   -0.932960
     46          7           0       -0.773622    0.367895   -1.705325
     47          1           0       -0.149910    0.204605   -2.480230
     48          6           0       -0.169591    0.371195   -0.392389
     49          1           0       -0.449825    1.299165    0.119529
     50          6           0        1.348754    0.343019   -0.621190
     51          6           0       -0.649267   -0.796652    0.487089
     52          1           0       -1.675200   -0.577719    0.793476
     53          1           0       -0.041299   -0.836610    1.391737
     54          8           0        1.833305    0.057873   -1.704110
     55          6           0       -0.595696   -2.146462   -0.222638
     56          1           0       -1.315481   -2.200386   -1.035049
     57          1           0        0.390475   -2.304858   -0.660601
     58          6           0       -0.822144   -3.297864    0.744707
     59          7           0       -1.455766   -4.383608    0.215025
     60          1           0       -1.773443   -4.408674   -0.735668
     61          1           0       -1.578750   -5.182629    0.810769
     62          8           0       -0.421797   -3.277857    1.895601
     63          7           0        2.097646    0.615032    0.472272
     64          1           0        1.684704    0.877767    1.351245
     65          6           0        3.531629    0.758238    0.387573
     66          1           0        3.937716   -0.121411   -0.118950
     67          6           0        4.050991    0.813814    1.822257
     68          6           0        3.945703    1.994379   -0.433383
     69          1           0        3.689191    1.791956   -1.470518
     70          1           0        5.033478    2.097477   -0.372261
     71          8           0        3.313801    0.970371    2.781108
     72          6           0        3.264869    3.240456    0.027313
     73          6           0        2.160247    3.762210   -0.663661
     74          1           0        1.805817    3.259446   -1.555197
     75          6           0        3.696734    3.921211    1.166937
     76          1           0        4.546406    3.538199    1.723411
     77          6           0        1.508257    4.901974   -0.241537
     78          1           0        0.666287    5.302499   -0.788758
     79          6           0        3.074802    5.065447    1.624291
     80          1           0        3.447509    5.580707    2.496468
     81          8           0        1.335742    6.646447    1.324711
     82          6           0        1.929634    5.617503    0.937743
     83          7           0        5.394848    0.676490    1.953967
     84          1           0        5.976827    0.689107    1.136283
     85          6           0        6.035844    0.654820    3.253747
     86          1           0        5.478491   -0.050031    3.877619
     87          6           0        5.979080    2.032800    3.929442
     88          6           0        7.486106    0.212130    3.106637
     89          1           0        7.973511    0.145455    4.081959
     90          1           0        7.539193   -0.767295    2.628884
     91          1           0        8.032543    0.935310    2.499280
     92          8           0        6.118332    3.085642    3.318007
     93          7           0        5.821404    1.970664    5.278544
     94          1           0        5.916632    1.079006    5.735913
     95          6           0        5.927843    3.127888    6.133404
     96          1           0        6.355243    3.952486    5.558425
     97          6           0        6.848310    2.802132    7.287617
     98          6           0        4.546720    3.546094    6.652769
     99          1           0        4.664227    4.411883    7.305653
    100          1           0        4.140430    2.735624    7.261590
    101          8           0        7.191307    1.694535    7.617245
    102          6           0        3.584604    3.867374    5.514843
    103          1           0        3.480751    2.999849    4.870281
    104          1           0        3.991671    4.670734    4.898949
    105          6           0        2.202949    4.249032    6.022841
    106          1           0        2.263845    5.086895    6.728455
    107          1           0        1.783262    3.401055    6.568125
    108          7           0        1.240938    4.536343    4.947314
    109          1           0        0.467235    3.895531    4.855250
    110          7           0        2.108430    6.633667    4.433641
    111          1           0        1.807437    7.584717    4.268472
    112          1           0        2.693592    6.528186    5.251288
    113          7           0        0.130407    5.941171    3.429914
    114          1           0        0.448594    6.401512    2.570404
    115          1           0       -0.512873    5.173257    3.261876
    116          6           0        1.143976    5.685839    4.277847
    117          8           0        7.227318    3.916614    7.943331
    118          1           0        7.788810    3.618455    8.670717
 ---------------------------------------------------------------------
 Rotational constants (GHZ):           0.0788488           0.0158153           0.0151215
 Standard basis: 6-31G(d) (6D, 7F)
   990 basis functions,  1864 primitive gaussians,   990 cartesian basis functions
   220 alpha electrons      220 beta electrons
       nuclear repulsion energy      8696.3212804125 Hartrees.
 NAtoms=  118 NActive=  118 NUniq=  118 SFac= 1.00D+00 NAtFMM=   60 NAOKFM=T Big=T
 Integral buffers will be    131072 words long.
 Raffenetti 2 integral format.
 Two-electron integral symmetry is turned off.
 One-electron integrals computed using PRISM.
 NBasis=   990 RedAO= T EigKep=  4.12D-04  NBF=   990
 NBsUse=   990 1.00D-06 EigRej= -1.00D+00 NBFU=   990
 Initial guess from the checkpoint file:  "conf-879.chk"
 B after Tr=     0.000000    0.000000    0.000000
         Rot=    1.000000    0.000000    0.000000    0.000000 Ang=   0.00 deg.
 Requested convergence on RMS density matrix=1.00D-08 within 128 cycles.
 Requested convergence on MAX density matrix=1.00D-06.
 Requested convergence on             energy=1.00D-06.
 No special actions if energy rises.
 SCF Done:  E(RB3LYP) =  -2837.57383730     A.U. after    1 cycles
            NFock=  1  Conv=0.49D-08     -V/T= 2.0088
 Hyperfine terms turned off by default for NAtoms > 100.

 **********************************************************************

            Population analysis using the SCF Density.

 **********************************************************************

 Alpha  occ. eigenvalues --  -19.30986 -19.26943 -19.25972 -19.22973 -19.20670
 Alpha  occ. eigenvalues --  -19.17855 -19.16752 -19.16607 -19.16382 -19.16324
 Alpha  occ. eigenvalues --  -19.06526 -14.63852 -14.49538 -14.45793 -14.45518
 Alpha  occ. eigenvalues --  -14.44030 -14.41735 -14.41675 -14.41320 -14.40836
 Alpha  occ. eigenvalues --  -14.40545 -14.39670 -10.44167 -10.42269 -10.40611
 Alpha  occ. eigenvalues --  -10.39838 -10.39279 -10.38417 -10.34854 -10.34137
 Alpha  occ. eigenvalues --  -10.33833 -10.33531 -10.33352 -10.33304 -10.31801
 Alpha  occ. eigenvalues --  -10.31094 -10.31058 -10.29750 -10.28773 -10.28419
 Alpha  occ. eigenvalues --  -10.28383 -10.26679 -10.25881 -10.25827 -10.25763
 Alpha  occ. eigenvalues --  -10.25751 -10.24700 -10.24209 -10.24112 -10.23842
 Alpha  occ. eigenvalues --  -10.23839 -10.20899 -10.20571 -10.17141 -10.16486
 Alpha  occ. eigenvalues --  -10.16368 -10.15063 -10.14956  -1.21094  -1.18671
 Alpha  occ. eigenvalues --   -1.17477  -1.17271  -1.14989  -1.10082  -1.09478
 Alpha  occ. eigenvalues --   -1.09052  -1.08860  -1.08591  -1.08574  -1.08086
 Alpha  occ. eigenvalues --   -1.06328  -1.02316  -0.99186  -0.98569  -0.98501
 Alpha  occ. eigenvalues --   -0.97790  -0.97707  -0.96859  -0.96410  -0.95700
 Alpha  occ. eigenvalues --   -0.95534  -0.90909  -0.87483  -0.87243  -0.86525
 Alpha  occ. eigenvalues --   -0.84894  -0.84084  -0.82997  -0.82660  -0.81647
 Alpha  occ. eigenvalues --   -0.80172  -0.79693  -0.79150  -0.77791  -0.77404
 Alpha  occ. eigenvalues --   -0.75864  -0.75120  -0.73517  -0.72699  -0.72385
 Alpha  occ. eigenvalues --   -0.72178  -0.71666  -0.71103  -0.71077  -0.70309
 Alpha  occ. eigenvalues --   -0.69143  -0.68232  -0.67559  -0.66740  -0.66541
 Alpha  occ. eigenvalues --   -0.66062  -0.65863  -0.65380  -0.64799  -0.64526
 Alpha  occ. eigenvalues --   -0.64088  -0.63750  -0.62639  -0.61940  -0.61701
 Alpha  occ. eigenvalues --   -0.61215  -0.60014  -0.59881  -0.59614  -0.59325
 Alpha  occ. eigenvalues --   -0.58737  -0.58504  -0.57856  -0.57121  -0.56819
 Alpha  occ. eigenvalues --   -0.56244  -0.56041  -0.55719  -0.55602  -0.55030
 Alpha  occ. eigenvalues --   -0.54943  -0.54734  -0.54346  -0.54272  -0.54023
 Alpha  occ. eigenvalues --   -0.53689  -0.53158  -0.52633  -0.52535  -0.52286
 Alpha  occ. eigenvalues --   -0.51961  -0.51884  -0.51809  -0.51650  -0.51300
 Alpha  occ. eigenvalues --   -0.50876  -0.50611  -0.50102  -0.49673  -0.49075
 Alpha  occ. eigenvalues --   -0.48745  -0.48460  -0.48383  -0.48109  -0.47968
 Alpha  occ. eigenvalues --   -0.47181  -0.47050  -0.46797  -0.46590  -0.46499
 Alpha  occ. eigenvalues --   -0.46143  -0.46079  -0.45969  -0.45725  -0.45464
 Alpha  occ. eigenvalues --   -0.44778  -0.44499  -0.44418  -0.44325  -0.44280
 Alpha  occ. eigenvalues --   -0.44167  -0.44012  -0.43668  -0.43231  -0.43059
 Alpha  occ. eigenvalues --   -0.42678  -0.42585  -0.42341  -0.41993  -0.41472
 Alpha  occ. eigenvalues --   -0.41229  -0.41080  -0.40835  -0.40723  -0.40370
 Alpha  occ. eigenvalues --   -0.40297  -0.40088  -0.39544  -0.39344  -0.39186
 Alpha  occ. eigenvalues --   -0.38816  -0.38326  -0.37669  -0.36609  -0.36465
 Alpha  occ. eigenvalues --   -0.35930  -0.35431  -0.34438  -0.33708  -0.33504
 Alpha  occ. eigenvalues --   -0.32609  -0.32557  -0.31939  -0.31813  -0.31407
 Alpha  occ. eigenvalues --   -0.31012  -0.30695  -0.30271  -0.30129  -0.29682
 Alpha  occ. eigenvalues --   -0.29282  -0.28588  -0.23142  -0.20707  -0.16671
 Alpha virt. eigenvalues --   -0.14390  -0.12430  -0.08854  -0.08118  -0.07218
 Alpha virt. eigenvalues --   -0.05594  -0.05315  -0.04955  -0.04501  -0.04352
 Alpha virt. eigenvalues --   -0.02979  -0.02777  -0.02709  -0.02270  -0.02004
 Alpha virt. eigenvalues --   -0.01597  -0.01127  -0.00220   0.00224   0.00576
 Alpha virt. eigenvalues --    0.01710   0.01907   0.02030   0.02249   0.02577
 Alpha virt. eigenvalues --    0.02752   0.02998   0.03347   0.03732   0.03893
 Alpha virt. eigenvalues --    0.04058   0.04716   0.04887   0.05276   0.05388
 Alpha virt. eigenvalues --    0.05526   0.05849   0.06338   0.06663   0.07099
 Alpha virt. eigenvalues --    0.07235   0.07583   0.07812   0.08047   0.08112
 Alpha virt. eigenvalues --    0.08301   0.08588   0.08895   0.09092   0.09312
 Alpha virt. eigenvalues --    0.09710   0.09926   0.10095   0.10226   0.10303
 Alpha virt. eigenvalues --    0.10344   0.10873   0.10940   0.11206   0.11263
 Alpha virt. eigenvalues --    0.11340   0.11677   0.12115   0.12380   0.12533
 Alpha virt. eigenvalues --    0.12603   0.12704   0.13235   0.13884   0.13931
 Alpha virt. eigenvalues --    0.14214   0.14457   0.14518   0.15014   0.15576
 Alpha virt. eigenvalues --    0.15727   0.15978   0.16276   0.16580   0.16906
 Alpha virt. eigenvalues --    0.17213   0.17436   0.17582   0.17896   0.18038
 Alpha virt. eigenvalues --    0.18168   0.18469   0.18717   0.19112   0.19305
 Alpha virt. eigenvalues --    0.19701   0.20147   0.20380   0.20483   0.20569
 Alpha virt. eigenvalues --    0.21189   0.21461   0.21735   0.22863   0.23214
 Alpha virt. eigenvalues --    0.23364   0.23820   0.24530   0.25043   0.25347
 Alpha virt. eigenvalues --    0.26349   0.27245   0.28041   0.28427   0.29579
 Alpha virt. eigenvalues --    0.30201   0.30727   0.30904   0.31302   0.31727
 Alpha virt. eigenvalues --    0.32048   0.32351   0.32945   0.33146   0.33754
 Alpha virt. eigenvalues --    0.34194   0.35322   0.35579   0.35665   0.36238
 Alpha virt. eigenvalues --    0.36767   0.38097   0.38699   0.39105   0.39591
 Alpha virt. eigenvalues --    0.39841   0.40900   0.41652   0.41879   0.42073
 Alpha virt. eigenvalues --    0.42414   0.43067   0.43586   0.44285   0.44600
 Alpha virt. eigenvalues --    0.45037   0.45266   0.45610   0.45919   0.46445
 Alpha virt. eigenvalues --    0.46479   0.46942   0.47116   0.47605   0.47730
 Alpha virt. eigenvalues --    0.48002   0.48254   0.48836   0.49028   0.49436
 Alpha virt. eigenvalues --    0.49533   0.49608   0.50327   0.50453   0.50866
 Alpha virt. eigenvalues --    0.51361   0.51421   0.51604   0.51885   0.52343
 Alpha virt. eigenvalues --    0.52660   0.52892   0.53106   0.53756   0.53932
 Alpha virt. eigenvalues --    0.54455   0.54861   0.55029   0.55610   0.55886
 Alpha virt. eigenvalues --    0.56131   0.56372   0.56802   0.56995   0.57155
 Alpha virt. eigenvalues --    0.57238   0.57661   0.57840   0.58330   0.58648
 Alpha virt. eigenvalues --    0.58792   0.59195   0.59430   0.60195   0.60326
 Alpha virt. eigenvalues --    0.60504   0.60986   0.61168   0.61539   0.61693
 Alpha virt. eigenvalues --    0.61765   0.62029   0.62388   0.62458   0.62693
 Alpha virt. eigenvalues --    0.62957   0.63035   0.63352   0.63565   0.63721
 Alpha virt. eigenvalues --    0.63883   0.64184   0.64433   0.64997   0.65128
 Alpha virt. eigenvalues --    0.65781   0.65874   0.66572   0.67084   0.67350
 Alpha virt. eigenvalues --    0.67613   0.67826   0.67891   0.68444   0.68757
 Alpha virt. eigenvalues --    0.69328   0.69594   0.69658   0.69800   0.70363
 Alpha virt. eigenvalues --    0.70472   0.70681   0.71028   0.71307   0.71756
 Alpha virt. eigenvalues --    0.72004   0.72162   0.72739   0.73027   0.73310
 Alpha virt. eigenvalues --    0.73621   0.73944   0.74245   0.74476   0.74819
 Alpha virt. eigenvalues --    0.74989   0.75296   0.75374   0.75488   0.76290
 Alpha virt. eigenvalues --    0.76492   0.76728   0.77173   0.77723   0.77879
 Alpha virt. eigenvalues --    0.77959   0.78146   0.78380   0.78828   0.79051
 Alpha virt. eigenvalues --    0.79194   0.79605   0.79824   0.79937   0.80118
 Alpha virt. eigenvalues --    0.80297   0.80653   0.80983   0.81298   0.81568
 Alpha virt. eigenvalues --    0.81939   0.82016   0.82384   0.82417   0.82638
 Alpha virt. eigenvalues --    0.82877   0.83217   0.83332   0.83584   0.83717
 Alpha virt. eigenvalues --    0.84042   0.84103   0.84310   0.84460   0.84635
 Alpha virt. eigenvalues --    0.84743   0.85063   0.85263   0.85560   0.85765
 Alpha virt. eigenvalues --    0.86075   0.86267   0.86722   0.87073   0.87379
 Alpha virt. eigenvalues --    0.87829   0.88029   0.88169   0.88381   0.88468
 Alpha virt. eigenvalues --    0.88733   0.89116   0.89200   0.89369   0.89617
 Alpha virt. eigenvalues --    0.90050   0.90371   0.90438   0.90979   0.91237
 Alpha virt. eigenvalues --    0.91504   0.91674   0.92057   0.92252   0.92529
 Alpha virt. eigenvalues --    0.92716   0.92799   0.93640   0.93996   0.94274
 Alpha virt. eigenvalues --    0.95021   0.95165   0.95308   0.95384   0.95683
 Alpha virt. eigenvalues --    0.96847   0.97383   0.97730   0.98097   0.98577
 Alpha virt. eigenvalues --    0.99159   0.99352   1.00057   1.00339   1.00591
 Alpha virt. eigenvalues --    1.00790   1.01035   1.01244   1.01510   1.02122
 Alpha virt. eigenvalues --    1.02424   1.02790   1.03732   1.03973   1.04262
 Alpha virt. eigenvalues --    1.05007   1.05285   1.05468   1.06411   1.06603
 Alpha virt. eigenvalues --    1.06710   1.07089   1.07824   1.08605   1.09096
 Alpha virt. eigenvalues --    1.09507   1.10124   1.10943   1.11500   1.11513
 Alpha virt. eigenvalues --    1.11927   1.12298   1.12572   1.13320   1.13537
 Alpha virt. eigenvalues --    1.14471   1.15761   1.16372   1.16688   1.17782
 Alpha virt. eigenvalues --    1.18062   1.19043   1.19337   1.20281   1.21134
 Alpha virt. eigenvalues --    1.21187   1.21713   1.22735   1.23293   1.23946
 Alpha virt. eigenvalues --    1.24777   1.24879   1.25174   1.25616   1.26089
 Alpha virt. eigenvalues --    1.26872   1.27015   1.27404   1.28225   1.29058
 Alpha virt. eigenvalues --    1.29374   1.29950   1.30120   1.30920   1.31398
 Alpha virt. eigenvalues --    1.31924   1.32867   1.33265   1.34076   1.34164
 Alpha virt. eigenvalues --    1.35116   1.35451   1.35671   1.36918   1.37137
 Alpha virt. eigenvalues --    1.37576   1.38329   1.38377   1.39232   1.39493
 Alpha virt. eigenvalues --    1.40019   1.40267   1.42313   1.42614   1.43341
 Alpha virt. eigenvalues --    1.44289   1.44550   1.45399   1.46462   1.46774
 Alpha virt. eigenvalues --    1.47001   1.47750   1.48611   1.49470   1.49615
 Alpha virt. eigenvalues --    1.50061   1.50357   1.50679   1.51492   1.51805
 Alpha virt. eigenvalues --    1.52071   1.52489   1.52988   1.53621   1.54869
 Alpha virt. eigenvalues --    1.55613   1.55682   1.56505   1.56711   1.56814
 Alpha virt. eigenvalues --    1.56950   1.57443   1.58458   1.59319   1.59573
 Alpha virt. eigenvalues --    1.59912   1.60356   1.60508   1.61150   1.61964
 Alpha virt. eigenvalues --    1.62661   1.63454   1.63902   1.63977   1.64334
 Alpha virt. eigenvalues --    1.65195   1.66405   1.66826   1.67219   1.67681
 Alpha virt. eigenvalues --    1.67963   1.68737   1.68853   1.69319   1.70158
 Alpha virt. eigenvalues --    1.70792   1.70851   1.71453   1.71685   1.72022
 Alpha virt. eigenvalues --    1.72132   1.72759   1.73203   1.73265   1.73488
 Alpha virt. eigenvalues --    1.73939   1.74300   1.74979   1.75068   1.75191
 Alpha virt. eigenvalues --    1.75707   1.75822   1.76161   1.76566   1.76995
 Alpha virt. eigenvalues --    1.77453   1.77718   1.78109   1.78799   1.79126
 Alpha virt. eigenvalues --    1.79421   1.79662   1.80243   1.80644   1.80887
 Alpha virt. eigenvalues --    1.81418   1.82243   1.82479   1.83008   1.83617
 Alpha virt. eigenvalues --    1.84053   1.84262   1.84663   1.85438   1.85592
 Alpha virt. eigenvalues --    1.85925   1.86464   1.86755   1.87325   1.87871
 Alpha virt. eigenvalues --    1.88233   1.88585   1.88889   1.89269   1.89416
 Alpha virt. eigenvalues --    1.89556   1.89915   1.90077   1.90564   1.91111
 Alpha virt. eigenvalues --    1.91392   1.91743   1.91870   1.92401   1.92909
 Alpha virt. eigenvalues --    1.93530   1.93873   1.94377   1.94839   1.94960
 Alpha virt. eigenvalues --    1.95336   1.95775   1.96009   1.96254   1.96450
 Alpha virt. eigenvalues --    1.96863   1.97648   1.97898   1.98304   1.98582
 Alpha virt. eigenvalues --    1.98943   1.99171   1.99469   1.99933   2.00220
 Alpha virt. eigenvalues --    2.00397   2.00708   2.01032   2.01632   2.02557
 Alpha virt. eigenvalues --    2.02685   2.03212   2.04017   2.04288   2.04523
 Alpha virt. eigenvalues --    2.04581   2.05196   2.05655   2.05999   2.06151
 Alpha virt. eigenvalues --    2.06336   2.06923   2.07543   2.08398   2.08711
 Alpha virt. eigenvalues --    2.09198   2.09262   2.09613   2.09986   2.11058
 Alpha virt. eigenvalues --    2.11303   2.12064   2.13031   2.13148   2.13958
 Alpha virt. eigenvalues --    2.14409   2.14807   2.15783   2.16166   2.16279
 Alpha virt. eigenvalues --    2.16655   2.17863   2.18013   2.18762   2.19326
 Alpha virt. eigenvalues --    2.19653   2.20273   2.20806   2.21125   2.21323
 Alpha virt. eigenvalues --    2.21758   2.22946   2.23268   2.23918   2.24673
 Alpha virt. eigenvalues --    2.24803   2.25343   2.26402   2.27494   2.27842
 Alpha virt. eigenvalues --    2.28036   2.28707   2.29005   2.29576   2.30194
 Alpha virt. eigenvalues --    2.31031   2.31765   2.31925   2.32533   2.33059
 Alpha virt. eigenvalues --    2.33364   2.33825   2.34230   2.34598   2.35480
 Alpha virt. eigenvalues --    2.35685   2.36053   2.36274   2.36498   2.37393
 Alpha virt. eigenvalues --    2.37945   2.38099   2.38756   2.39670   2.40025
 Alpha virt. eigenvalues --    2.40794   2.41409   2.41583   2.41779   2.42333
 Alpha virt. eigenvalues --    2.43516   2.44459   2.44781   2.45402   2.45902
 Alpha virt. eigenvalues --    2.46391   2.47131   2.47209   2.48241   2.49191
 Alpha virt. eigenvalues --    2.49690   2.50249   2.50630   2.50920   2.52351
 Alpha virt. eigenvalues --    2.53338   2.54577   2.54645   2.55714   2.56242
 Alpha virt. eigenvalues --    2.56749   2.57518   2.58452   2.58770   2.59529
 Alpha virt. eigenvalues --    2.60030   2.60485   2.60947   2.61785   2.61864
 Alpha virt. eigenvalues --    2.63403   2.63663   2.64062   2.65190   2.65607
 Alpha virt. eigenvalues --    2.65811   2.66514   2.66922   2.67493   2.67643
 Alpha virt. eigenvalues --    2.68432   2.68591   2.69452   2.70247   2.70571
 Alpha virt. eigenvalues --    2.73722   2.74022   2.75044   2.75686   2.76789
 Alpha virt. eigenvalues --    2.77500   2.78387   2.78594   2.79913   2.81385
 Alpha virt. eigenvalues --    2.81874   2.82169   2.84920   2.85077   2.85645
 Alpha virt. eigenvalues --    2.87031   2.87980   2.89071   2.89967   2.90682
 Alpha virt. eigenvalues --    2.92684   2.93615   2.94415   2.94815   2.95249
 Alpha virt. eigenvalues --    2.96154   2.96610   2.97628   2.98747   3.01173
 Alpha virt. eigenvalues --    3.01399   3.02043   3.03529   3.05138   3.08693
 Alpha virt. eigenvalues --    3.10185   3.11373   3.13383   3.17359   3.19026
 Alpha virt. eigenvalues --    3.21071   3.42681   3.60785   3.66649   3.75655
 Alpha virt. eigenvalues --    3.79280   3.80273   3.86270   3.89304   3.92953
 Alpha virt. eigenvalues --    3.94640   3.95759   4.00599   4.01767   4.03831
 Alpha virt. eigenvalues --    4.04084   4.04426   4.07310   4.07729   4.08845
 Alpha virt. eigenvalues --    4.09373   4.10520   4.11249   4.13046   4.13776
 Alpha virt. eigenvalues --    4.14818   4.15606   4.17830   4.19241   4.20088
 Alpha virt. eigenvalues --    4.22270   4.24487   4.25722   4.26577   4.26992
 Alpha virt. eigenvalues --    4.30036   4.31014   4.32043   4.32962   4.33608
 Alpha virt. eigenvalues --    4.35124   4.36280   4.37433   4.39925   4.40710
 Alpha virt. eigenvalues --    4.42068   4.44963   4.45915   4.49587   4.50466
 Alpha virt. eigenvalues --    4.51950   4.55465   4.57776   4.58386   4.59626
 Alpha virt. eigenvalues --    4.62198   4.63127   4.64263   4.67659   4.83515
          Condensed to atoms (all electrons):
 Mulliken charges:
               1
     1  N   -0.711394
     2  H    0.431300
     3  H    0.426357
     4  H    0.429347
     5  C   -0.163468
     6  H    0.196848
     7  C    0.623096
     8  C    0.114920
     9  H    0.192235
    10  O   -0.505890
    11  C   -0.488615
    12  H    0.196461
    13  H    0.159567
    14  H    0.215712
    15  O   -0.606307
    16  H    0.412236
    17  N   -0.584172
    18  H    0.351244
    19  C   -0.094456
    20  H    0.189168
    21  C    0.633817
    22  C   -0.080546
    23  H    0.158537
    24  O   -0.550011
    25  C   -0.269815
    26  H    0.161954
    27  H    0.116835
    28  C   -0.448883
    29  H    0.127100
    30  H    0.158243
    31  H    0.172760
    32  C   -0.465475
    33  H    0.164085
    34  H    0.145662
    35  H    0.179602
    36  N   -0.574967
    37  H    0.344733
    38  C   -0.067831
    39  H    0.176183
    40  C    0.640508
    41  C   -0.470155
    42  H    0.188326
    43  H    0.172276
    44  H    0.169238
    45  O   -0.556277
    46  N   -0.616305
    47  H    0.354275
    48  C   -0.038781
    49  H    0.184284
    50  C    0.639512
    51  C   -0.291265
    52  H    0.176654
    53  H    0.179828
    54  O   -0.553064
    55  C   -0.393857
    56  H    0.170294
    57  H    0.187704
    58  C    0.599174
    59  N   -0.758091
    60  H    0.324751
    61  H    0.335820
    62  O   -0.502793
    63  N   -0.618168
    64  H    0.350787
    65  C   -0.026617
    66  H    0.160811
    67  C    0.649365
    68  C   -0.391425
    69  H    0.174309
    70  H    0.133752
    71  O   -0.549992
    72  C    0.153361
    73  C   -0.201519
    74  H    0.082909
    75  C   -0.213366
    76  H    0.148740
    77  C   -0.211667
    78  H    0.081361
    79  C   -0.254675
    80  H    0.093033
    81  O   -0.708172
    82  C    0.400179
    83  N   -0.605724
    84  H    0.339191
    85  C   -0.040124
    86  H    0.161896
    87  C    0.642510
    88  C   -0.484877
    89  H    0.171833
    90  H    0.170092
    91  H    0.178574
    92  O   -0.511521
    93  N   -0.598686
    94  H    0.344697
    95  C   -0.050377
    96  H    0.210536
    97  C    0.579713
    98  C   -0.269900
    99  H    0.156926
   100  H    0.146626
   101  O   -0.460655
   102  C   -0.282867
   103  H    0.208125
   104  H    0.179360
   105  C   -0.182448
   106  H    0.159391
   107  H    0.172833
   108  N   -0.570490
   109  H    0.352627
   110  N   -0.695916
   111  H    0.376235
   112  H    0.350322
   113  N   -0.737865
   114  H    0.417218
   115  H    0.332316
   116  C    0.717535
   117  O   -0.559955
   118  H    0.421611
 Sum of Mulliken charges =   1.00000
 Mulliken charges with hydrogens summed into heavy atoms:
               1
     1  N    0.575610
     5  C    0.033380
     7  C    0.623096
     8  C    0.307155
    10  O   -0.505890
    11  C    0.083125
    15  O   -0.194070
    17  N   -0.232928
    19  C    0.094712
    21  C    0.633817
    22  C    0.077991
    24  O   -0.550011
    25  C    0.008974
    28  C    0.009220
    32  C    0.023874
    36  N   -0.230235
    38  C    0.108352
    40  C    0.640508
    41  C    0.059685
    45  O   -0.556277
    46  N   -0.262030
    48  C    0.145503
    50  C    0.639512
    51  C    0.065217
    54  O   -0.553064
    55  C   -0.035859
    58  C    0.599174
    59  N   -0.097520
    62  O   -0.502793
    63  N   -0.267381
    65  C    0.134194
    67  C    0.649365
    68  C   -0.083364
    71  O   -0.549992
    72  C    0.153361
    73  C   -0.118610
    75  C   -0.064626
    77  C   -0.130306
    79  C   -0.161643
    81  O   -0.708172
    82  C    0.400179
    83  N   -0.266533
    85  C    0.121772
    87  C    0.642510
    88  C    0.035622
    92  O   -0.511521
    93  N   -0.253989
    95  C    0.160160
    97  C    0.579713
    98  C    0.033652
   101  O   -0.460655
   102  C    0.104618
   105  C    0.149776
   108  N   -0.217862
   110  N    0.030640
   113  N    0.011669
   116  C    0.717535
   117  O   -0.138344
 Electronic spatial extent (au):  <R**2>=          70775.2880
 Charge=              1.0000 electrons
 Dipole moment (field-independent basis, Debye):
    X=            -23.8653    Y=            -24.4980    Z=             -2.7073  Tot=             34.3079
 Quadrupole moment (field-independent basis, Debye-Ang):
   XX=           -131.5051   YY=           -174.8900   ZZ=           -187.9633
   XY=            159.4763   XZ=            137.1092   YZ=            159.4650
 Traceless Quadrupole moment (field-independent basis, Debye-Ang):
   XX=             33.2810   YY=            -10.1039   ZZ=            -23.1772
   XY=            159.4763   XZ=            137.1092   YZ=            159.4650
 Octapole moment (field-independent basis, Debye-Ang**2):
  XXX=           -998.1562  YYY=          -1726.4469  ZZZ=           -251.3539  XYY=          -1197.4797
  XXY=          -1213.9081  XXZ=           -490.3575  XZZ=            -32.6323  YZZ=             83.7409
  YYZ=           -423.9967  XYZ=           -302.7138
 Hexadecapole moment (field-independent basis, Debye-Ang**3):
 XXXX=         -28631.4391 YYYY=         -17740.1534 ZZZZ=         -20002.3144 XXXY=          -2638.9479
 XXXZ=          -6549.9672 YYYX=          -3096.7767 YYYZ=          -2586.2582 ZZZX=          -7975.1935
 ZZZY=          -4132.4237 XXYY=          -3272.2184 XXZZ=          -6682.8915 YYZZ=          -4181.1806
 XXYZ=           1727.1267 YYXZ=            521.6421 ZZXY=             58.9529
 N-N= 8.696321280412D+03 E-N=-2.397852999291D+04  KE= 2.812846866304D+03
 Unable to Open any file for archive entry.
 1\1\GINC-LAC-259\SP\RB3LYP\6-31G(d)\C36H60N11O11(1+)\KENGMITH\02-Jul-2
 022\0\\# B3LYP/6-31G* guess=read geom=check nosymm integral(ultrafineg
 rid)\\Candidate Structure: Conf:879 Charge calc in gas phase\\1,1\N,0,
 -7.1701267896,-6.497239356,-3.5196417968\H,0,-7.3797765946,-6.71142413
 09,-2.5439896085\H,0,-7.0218201367,-7.3619822065,-4.0437473477\H,0,-7.
 9597010194,-5.9880225154,-3.92481249\C,0,-5.9660663768,-5.6545348862,-
 3.6394759847\H,0,-5.1744091944,-6.049041458,-2.9909763687\C,0,-6.30887
 912,-4.2250450129,-3.2409554888\C,0,-5.4570826748,-5.7145854041,-5.091
 9139785\H,0,-6.2574677531,-5.3487271472,-5.7381929719\O,0,-7.390969077
 2,-3.7237442588,-3.5220529923\C,0,-4.1876635811,-4.9256397297,-5.33414
 0089\H,0,-4.3382315362,-3.8550428896,-5.1845513137\H,0,-3.3914972608,-
 5.2624103699,-4.6595945663\H,0,-3.8566088406,-5.0824443486,-6.36243279
 16\O,0,-5.2703785965,-7.0785012893,-5.4588998084\H,0,-4.472512954,-7.3
 859050773,-5.0221041598\N,0,-5.3258554595,-3.560072964,-2.5735893792\H
 ,0,-4.3895562566,-3.9375251322,-2.5939229811\C,0,-5.3447390867,-2.1179
 012739,-2.4493997295\H,0,-6.0965500189,-1.7270546553,-3.138964368\C,0,
 -3.9678502694,-1.6240639914,-2.8747142512\C,0,-5.7195714024,-1.6293446
 483,-1.0308951926\H,0,-5.5951620128,-0.5413824775,-1.0544959603\O,0,-2
 .9853060499,-2.3580137981,-2.8665399905\C,0,-4.7792519695,-2.180944809
 2,0.0427070433\H,0,-3.750581731,-2.1115686812,-0.3283755964\H,0,-4.997
 5345663,-3.242968256,0.1773502507\C,0,-7.1797648342,-1.9700172798,-0.7
 350777644\H,0,-7.3087565847,-3.0507294491,-0.6743388778\H,0,-7.8386790
 285,-1.5974747735,-1.523482822\H,0,-7.5014551046,-1.5420330097,0.21483
 36105\C,0,-4.8800767236,-1.4572180878,1.3792830478\H,0,-4.2211086544,-
 1.9175522911,2.1163966682\H,0,-5.8928543609,-1.4779928358,1.7822481478
 \H,0,-4.5856288564,-0.4102538504,1.2770815319\N,0,-3.9044576585,-0.319
 8943488,-3.2644543675\H,0,-4.6844769715,0.2604317203,-3.0146181721\C,0
 ,-2.6195284762,0.3655234591,-3.2992970106\H,0,-1.9319407932,-0.2710138
 132,-3.860371175\C,0,-2.1054395473,0.5194645386,-1.8646346828\C,0,-2.7
 756694677,1.7243335519,-3.9605009242\H,0,-1.8135355552,2.2383237953,-4
 .0180398714\H,0,-3.4617075028,2.3464604118,-3.3825028951\H,0,-3.170255
 8634,1.6058316577,-4.9712786792\O,0,-2.8672696821,0.7769777085,-0.9329
 603251\N,0,-0.7736222228,0.3678948201,-1.705325062\H,0,-0.1499099616,0
 .2046051646,-2.4802295994\C,0,-0.169591377,0.3711953444,-0.3923885212\
 H,0,-0.4498249251,1.2991646484,0.1195285092\C,0,1.3487544886,0.3430191
 642,-0.6211895307\C,0,-0.6492674343,-0.796652409,0.4870892889\H,0,-1.6
 751999012,-0.5777188642,0.7934762573\H,0,-0.0412991612,-0.8366101524,1
 .3917371176\O,0,1.8333047612,0.057873018,-1.704109726\C,0,-0.595696342
 5,-2.1464618858,-0.2226383861\H,0,-1.3154811437,-2.2003856534,-1.03504
 89569\H,0,0.3904749826,-2.3048582614,-0.6606011436\C,0,-0.8221439742,-
 3.2978642342,0.744706508\N,0,-1.4557656871,-4.3836081003,0.2150251643\
 H,0,-1.7734432272,-4.4086735996,-0.7356680428\H,0,-1.5787500445,-5.182
 6288235,0.8107687235\O,0,-0.4217966438,-3.2778566737,1.895601112\N,0,2
 .0976460688,0.6150317325,0.4722723062\H,0,1.6847041331,0.8777666208,1.
 3512451479\C,0,3.5316291048,0.7582376851,0.387572686\H,0,3.9377157996,
 -0.1214109815,-0.1189495092\C,0,4.0509911844,0.8138140329,1.8222570503
 \C,0,3.9457028569,1.9943786264,-0.433383106\H,0,3.6891909956,1.7919564
 202,-1.4705183183\H,0,5.0334780497,2.097476883,-0.3722614546\O,0,3.313
 801125,0.9703707723,2.7811084306\C,0,3.2648689424,3.2404562527,0.02731
 33036\C,0,2.1602465444,3.762209997,-0.663661413\H,0,1.8058167897,3.259
 4462133,-1.5551971778\C,0,3.696734271,3.9212113526,1.1669371383\H,0,4.
 5464055187,3.5381990775,1.723411107\C,0,1.5082572189,4.9019742376,-0.2
 415366547\H,0,0.6662869836,5.3024994338,-0.7887582932\C,0,3.0748019713
 ,5.0654472589,1.6242906843\H,0,3.4475086008,5.5807067865,2.4964681751\
 O,0,1.3357419288,6.6464472816,1.3247114749\C,0,1.9296342003,5.61750258
 25,0.9377426375\N,0,5.3948477915,0.6764896579,1.9539674599\H,0,5.97682
 65906,0.6891070687,1.1362832079\C,0,6.0358442416,0.654820213,3.2537472
 827\H,0,5.4784906438,-0.0500306159,3.8776192452\C,0,5.9790799228,2.032
 8001348,3.9294417941\C,0,7.4861063141,0.212130274,3.1066370206\H,0,7.9
 735106275,0.1454554949,4.0819588543\H,0,7.5391930939,-0.7672951079,2.6
 288836529\H,0,8.0325429629,0.9353096483,2.4992799884\O,0,6.1183321822,
 3.0856415776,3.3180072959\N,0,5.821404487,1.9706637509,5.2785443405\H,
 0,5.9166315748,1.0790061818,5.7359129265\C,0,5.927842527,3.1278881677,
 6.1334036748\H,0,6.3552428492,3.9524861828,5.5584250365\C,0,6.84830996
 78,2.8021319787,7.2876173144\C,0,4.5467201335,3.5460935114,6.652769287
 4\H,0,4.6642269373,4.4118828971,7.3056533063\H,0,4.1404304255,2.735623
 833,7.261590287\O,0,7.1913070043,1.6945352409,7.617245074\C,0,3.584603
 6832,3.8673740098,5.5148426977\H,0,3.480750761,2.9998491139,4.87028067
 47\H,0,3.9916710138,4.6707341447,4.8989493248\C,0,2.2029494108,4.24903
 18694,6.0228409147\H,0,2.2638445493,5.0868946091,6.7284552195\H,0,1.78
 32615935,3.4010546126,6.5681248792\N,0,1.2409383185,4.5363432327,4.947
 3138545\H,0,0.4672350852,3.895530812,4.8552504519\N,0,2.1084298664,6.6
 336674376,4.4336412272\H,0,1.8074371849,7.5847169985,4.2684718325\H,0,
 2.6935921126,6.5281861337,5.2512879715\N,0,0.1304066756,5.9411713715,3
 .4299140473\H,0,0.4485936772,6.4015118889,2.5704038073\H,0,-0.51287273
 14,5.1732565549,3.261876367\C,0,1.1439756863,5.6858388611,4.2778471525
 \O,0,7.227318447,3.9166135245,7.9433311898\H,0,7.7888098996,3.61845533
 13,8.6707174145\\Version=ES64L-G16RevC.01\HF=-2837.5738373\RMSD=4.901e
 -09\Dipole=-9.7135831,-10.413655,-2.312504\Quadrupole=24.7436202,-7.51
 19666,-17.2316536,118.5667339,101.9373656,118.558303\PG=C01 [X(C36H60N
 11O11)]\\@
 The archive entry for this job was punched.


 KEEP CLOSE TO NATURES HEART, YOURSELF;
 AND BREAK CLEAR AWAY, ONCE IN A WHILE, AND
 CLIMB A MOUNTAIN OR SPEND A WEEK IN THE
 WOODS.  WASH YOUR SPIRIT CLEAN...
                                         -- JOHN MUIR
 Job cpu time:       0 days  0 hours  4 minutes  8.8 seconds.
 Elapsed time:       0 days  0 hours  1 minutes  3.0 seconds.
 File lengths (MBytes):  RWF=    624 Int=      0 D2E=      0 Chk=     96 Scr=     16
 Normal termination of Gaussian 16 at Sat Jul  2 15:35:03 2022.
