 Entering Gaussian System, Link 0=/opt/software/Gaussian/g16-AVX2-C.01/g16/g16
 Input=charge-conf-962.com
 Output=charge-conf-962.log
 Initial command:
 /opt/software/Gaussian/g16-AVX2-C.01/g16/l1.exe "/mnt/gs18/scratch/users/kengmith/Gau-19050.inp" -scrdir="/mnt/gs18/scratch/users/kengmith/"
 Entering Link 1 = /opt/software/Gaussian/g16-AVX2-C.01/g16/l1.exe PID=     19072.
  
 Copyright (c) 1988-2019, Gaussian, Inc.  All Rights Reserved.
  
 This is part of the Gaussian(R) 16 program.  It is based on
 the Gaussian(R) 09 system (copyright 2009, Gaussian, Inc.),
 the Gaussian(R) 03 system (copyright 2003, Gaussian, Inc.),
 the Gaussian(R) 98 system (copyright 1998, Gaussian, Inc.),
 the Gaussian(R) 94 system (copyright 1995, Gaussian, Inc.),
 the Gaussian 92(TM) system (copyright 1992, Gaussian, Inc.),
 the Gaussian 90(TM) system (copyright 1990, Gaussian, Inc.),
 the Gaussian 88(TM) system (copyright 1988, Gaussian, Inc.),
 the Gaussian 86(TM) system (copyright 1986, Carnegie Mellon
 University), and the Gaussian 82(TM) system (copyright 1983,
 Carnegie Mellon University). Gaussian is a federally registered
 trademark of Gaussian, Inc.
  
 This software contains proprietary and confidential information,
 including trade secrets, belonging to Gaussian, Inc.
  
 This software is provided under written license and may be
 used, copied, transmitted, or stored only in accord with that
 written license.
  
 The following legend is applicable only to US Government
 contracts under FAR:
  
                    RESTRICTED RIGHTS LEGEND
  
 Use, reproduction and disclosure by the US Government is
 subject to restrictions as set forth in subparagraphs (a)
 and (c) of the Commercial Computer Software - Restricted
 Rights clause in FAR 52.227-19.
  
 Gaussian, Inc.
 340 Quinnipiac St., Bldg. 40, Wallingford CT 06492
  
  
 ---------------------------------------------------------------
 Warning -- This program may not be used in any manner that
 competes with the business of Gaussian, Inc. or will provide
 assistance to any competitor of Gaussian, Inc.  The licensee
 of this program is prohibited from giving any competitor of
 Gaussian, Inc. access to this program.  By using this program,
 the user acknowledges that Gaussian, Inc. is engaged in the
 business of creating and licensing software in the field of
 computational chemistry and represents and warrants to the
 licensee that it is not a competitor of Gaussian, Inc. and that
 it will not use this program in any manner prohibited above.
 ---------------------------------------------------------------
  

 Cite this work as:
 Gaussian 16, Revision C.01,
 M. J. Frisch, G. W. Trucks, H. B. Schlegel, G. E. Scuseria, 
 M. A. Robb, J. R. Cheeseman, G. Scalmani, V. Barone, 
 G. A. Petersson, H. Nakatsuji, X. Li, M. Caricato, A. V. Marenich, 
 J. Bloino, B. G. Janesko, R. Gomperts, B. Mennucci, H. P. Hratchian, 
 J. V. Ortiz, A. F. Izmaylov, J. L. Sonnenberg, D. Williams-Young, 
 F. Ding, F. Lipparini, F. Egidi, J. Goings, B. Peng, A. Petrone, 
 T. Henderson, D. Ranasinghe, V. G. Zakrzewski, J. Gao, N. Rega, 
 G. Zheng, W. Liang, M. Hada, M. Ehara, K. Toyota, R. Fukuda, 
 J. Hasegawa, M. Ishida, T. Nakajima, Y. Honda, O. Kitao, H. Nakai, 
 T. Vreven, K. Throssell, J. A. Montgomery, Jr., J. E. Peralta, 
 F. Ogliaro, M. J. Bearpark, J. J. Heyd, E. N. Brothers, K. N. Kudin, 
 V. N. Staroverov, T. A. Keith, R. Kobayashi, J. Normand, 
 K. Raghavachari, A. P. Rendell, J. C. Burant, S. S. Iyengar, 
 J. Tomasi, M. Cossi, J. M. Millam, M. Klene, C. Adamo, R. Cammi, 
 J. W. Ochterski, R. L. Martin, K. Morokuma, O. Farkas, 
 J. B. Foresman, and D. J. Fox, Gaussian, Inc., Wallingford CT, 2019.
 
 ******************************************
 Gaussian 16:  ES64L-G16RevC.01  3-Jul-2019
                 2-Jul-2022 
 ******************************************
 %mem=8gb
 %nproc=4
 Will use up to    4 processors via shared memory.
 %chk=conf-962.chk
 -------------------------------------------------------------------
 # B3LYP/6-31G* guess=read geom=check nosymm integral(ultrafinegrid)
 -------------------------------------------------------------------
 1/29=2,38=1,172=1/1;
 2/12=2,15=1,40=1/2;
 3/5=1,6=6,7=1,11=2,14=-4,25=1,30=1,74=-5,75=-5,116=-2/1,2,3;
 4/5=1/1;
 5/5=2,38=6/2;
 6/7=2,8=2,9=2,10=2,28=1/1;
 99/5=1,9=1/99;
 ------------------------------------------------------
 Candidate Structure: Conf:962 Charge calc in gas phase
 ------------------------------------------------------
 Structure from the checkpoint file:  "conf-962.chk"
 Charge =  1 Multiplicity = 1
 Redundant internal coordinates found in file.  (old form).
 N,0,-1.0807654279,0.2516227706,-6.9852686154
 H,0,-1.7445457551,0.8758481506,-7.440698389
 H,0,-0.5688806885,-0.2640840505,-7.7004082476
 H,0,-0.0031484249,1.2422350831,-6.1536331528
 C,0,-1.793112994,-0.7366205248,-6.1569391309
 H,0,-2.529935617,-1.3057232794,-6.7492122563
 C,0,-2.5366680919,0.0190641367,-5.0418755706
 C,0,-0.723770962,-1.7424532598,-5.6314836929
 H,0,-0.0482124647,-1.1908867746,-4.9733006788
 O,0,-2.2839735772,1.1919123687,-4.7812602722
 C,0,-1.2686488687,-2.9520491085,-4.8815764443
 H,0,-1.6607162693,-2.6627945896,-3.9037250752
 H,0,-2.0497379466,-3.4733231849,-5.4542900099
 H,0,-0.450490958,-3.6583154354,-4.7089738759
 O,0,0.0857545163,-2.1418925296,-6.7476487162
 H,0,-0.3169658116,-2.9311592753,-7.1451837832
 N,0,-3.4999076367,-0.6840856818,-4.3775262457
 H,0,-3.5443250979,-1.6825942619,-4.5284268686
 C,0,-3.985711582,-0.1964930633,-3.090248551
 H,0,-4.4594504803,0.7723337189,-3.2744056895
 C,0,-2.7595497672,0.0382386573,-2.1741983889
 C,0,-5.0457187826,-1.1714207089,-2.5034318408
 H,0,-5.7810847735,-1.3018060084,-3.3117977104
 O,0,-1.7398387368,-0.6460386444,-2.2895508763
 C,0,-5.7983345635,-0.5717768168,-1.2956717276
 H,0,-5.0893447222,-0.3792281604,-0.4794661288
 H,0,-6.4731126869,-1.3503336398,-0.920012772
 C,0,-4.47386246,-2.5528636397,-2.14103586
 H,0,-3.7612279207,-2.5161340672,-1.3112871966
 H,0,-3.9685336972,-3.0413281704,-2.9829730072
 H,0,-5.28849455,-3.2183376004,-1.8373985365
 C,0,-6.6277140663,0.6856578919,-1.5867154028
 H,0,-7.2024809609,0.9804456688,-0.7024795894
 H,0,-7.3401536908,0.5112186038,-2.4018089222
 H,0,-6.0154761379,1.5508130725,-1.8732615298
 N,0,-2.8610890308,1.0441326818,-1.26706915
 H,0,-3.7144367553,1.5879233539,-1.2831211337
 C,0,-1.6853448088,1.7494628419,-0.7197762706
 H,0,-0.9362541041,1.7688245732,-1.5240105594
 C,0,-0.9717808063,1.0624328947,0.4708960624
 C,0,-2.0877710979,3.1765902349,-0.3540065055
 H,0,-1.2295703828,3.7072501696,0.0599682135
 H,0,-2.8689001367,3.1789599847,0.4142022924
 H,0,-2.4553784098,3.7089402042,-1.2384415187
 O,0,-0.5340654964,1.7329242082,1.4071628649
 N,0,-0.7761669305,-0.2707004421,0.3489949038
 H,0,-0.9992092173,-0.6940453121,-0.5537395716
 C,0,0.0584331449,-1.0285701971,1.28041477
 H,0,0.0128983153,-0.4961949187,2.2375965965
 C,0,1.536169627,-1.0308298047,0.8077241839
 C,0,-0.4843458304,-2.4545893762,1.4205368149
 H,0,0.2548780089,-3.0659060752,1.9452181574
 H,0,-0.5961230369,-2.8937485871,0.4232461417
 O,0,2.1605522528,-2.0684134133,0.6053903979
 C,0,-1.8432873493,-2.4944593379,2.1407108707
 H,0,-1.712349942,-2.4028181394,3.2257466881
 H,0,-2.4493878093,-1.6400358438,1.8149645117
 C,0,-2.6403088623,-3.7404664472,1.7640854216
 N,0,-3.0537411918,-4.5246407869,2.7992055213
 H,0,-2.7620738296,-4.3643546978,3.7510811852
 H,0,-3.5480943473,-5.3800105072,2.5849527051
 O,0,-2.9101844464,-4.0031987996,0.5966310457
 N,0,2.0700216932,0.2065087794,0.6068182745
 H,0,1.5889676873,1.040611916,0.9397382147
 C,0,3.4300653254,0.3784127241,0.1310411298
 H,0,4.1047847323,-0.2109357268,0.7700153623
 C,0,3.8085572269,1.8599037667,0.3200390777
 C,0,3.6474634843,-0.1644496112,-1.3045296103
 H,0,3.4739058873,-1.2430297116,-1.2407031596
 H,0,4.712145716,-0.0541935883,-1.5588670118
 O,0,3.0196833811,2.6838469413,0.7816600965
 C,0,2.8061779485,0.4050592758,-2.433694532
 C,0,2.8331548028,-0.2467162166,-3.6765794901
 H,0,3.4375087294,-1.1434930271,-3.794078107
 C,0,2.0088308277,1.5495273822,-2.3187703997
 H,0,1.9467778371,2.0852633018,-1.3787984338
 C,0,2.1173742191,0.2301132915,-4.7742244143
 H,0,2.1692097957,-0.281862769,-5.7313405358
 C,0,1.2646278105,2.0208601189,-3.4018291903
 H,0,0.6307114402,2.8944625532,-3.2855850972
 O,0,0.6470571764,1.9127835553,-5.7217323789
 C,0,1.3180928082,1.3695075007,-4.633869331
 N,0,5.0768477254,2.201487872,-0.0249482171
 H,0,5.6955225496,1.5167806277,-0.435967372
 C,0,5.5920293167,3.5447748301,0.2157860513
 H,0,5.2804392442,3.8350313618,1.2246966537
 C,0,5.0312755731,4.5633119987,-0.8023771644
 C,0,7.1201719841,3.5379524148,0.1204878035
 H,0,7.5209574115,4.5265644873,0.3631032722
 H,0,7.5458545491,2.8152614747,0.824003055
 H,0,7.4343817237,3.2873817975,-0.8978116689
 O,0,5.2651401556,4.4814220327,-2.0064799048
 N,0,4.339985235,5.5941479971,-0.2499862887
 H,0,4.0538358949,5.5657144692,0.7218361858
 C,0,3.9132259906,6.7479651919,-1.017934127
 H,0,4.7551128348,7.0887726646,-1.6330452468
 C,0,3.5701642445,7.8428557162,-0.0127335765
 C,0,2.7298604996,6.4210677864,-1.968276523
 H,0,1.8479647566,6.1633988002,-1.3679953071
 H,0,3.0373086845,5.5159504972,-2.5007587118
 O,0,3.3755951852,7.6529571052,1.1663776881
 C,0,2.3896106589,7.5314215957,-2.9738606178
 H,0,3.3089698777,7.933985988,-3.4233165005
 H,0,1.9123541239,8.3800544987,-2.4750342647
 C,0,1.453787841,7.0625345065,-4.0956157768
 H,0,1.0975557364,7.9197064018,-4.6792521496
 H,0,0.5812241837,6.5616257383,-3.6644827732
 N,0,2.1306448068,6.1098565297,-4.9858810693
 H,0,3.0923791082,6.3198250825,-5.2241829284
 N,0,0.3385021062,4.6615066008,-5.4031184045
 H,0,0.0690491831,3.6749357212,-5.5238983248
 H,0,-0.3539307478,5.3581498656,-5.1767954227
 N,0,2.4708722084,4.0729759164,-6.0449862517
 H,0,2.0510128682,3.178221304,-6.3059476186
 H,0,3.4323662965,4.0359777797,-5.7309369689
 C,0,1.6391522729,4.9565758821,-5.4596485267
 O,0,3.4893499339,9.0580838587,-0.5938194023
 H,0,3.2589617813,9.6936690501,0.1119055213
 Recover connectivity data from disk.
                           ----------------------------
                           !    Current Parameters    !
                           ! (Angstroms and Degrees)  !
 --------------------------                            --------------------------
 ! Name  Definition              Value                                          !
 --------------------------------------------------------------------------------
 ! R1    R(1,2)                  1.0187                                         !
 ! R2    R(1,3)                  1.0195                                         !
 ! R3    R(1,4)                  1.6835                                         !
 ! R4    R(1,5)                  1.4732                                         !
 ! R5    R(5,6)                  1.1034                                         !
 ! R6    R(5,7)                  1.5386                                         !
 ! R7    R(5,8)                  1.5593                                         !
 ! R8    R(7,10)                 1.2277                                         !
 ! R9    R(7,17)                 1.3651                                         !
 ! R10   R(8,9)                  1.0926                                         !
 ! R11   R(8,11)                 1.5239                                         !
 ! R12   R(8,15)                 1.4355                                         !
 ! R13   R(11,12)                1.0925                                         !
 ! R14   R(11,13)                1.0999                                         !
 ! R15   R(11,14)                1.0945                                         !
 ! R16   R(15,16)                0.9712                                         !
 ! R17   R(17,18)                1.0108                                         !
 ! R18   R(17,19)                1.4597                                         !
 ! R19   R(19,20)                1.0941                                         !
 ! R20   R(19,21)                1.5485                                         !
 ! R21   R(19,22)                1.5551                                         !
 ! R22   R(21,24)                1.2334                                         !
 ! R23   R(21,36)                1.3583                                         !
 ! R24   R(22,23)                1.1006                                         !
 ! R25   R(22,25)                1.5442                                         !
 ! R26   R(22,28)                1.5384                                         !
 ! R27   R(25,26)                1.0981                                         !
 ! R28   R(25,27)                1.0966                                         !
 ! R29   R(25,32)                1.5342                                         !
 ! R30   R(28,29)                1.0944                                         !
 ! R31   R(28,30)                1.0967                                         !
 ! R32   R(28,31)                1.0948                                         !
 ! R33   R(32,33)                1.095                                          !
 ! R34   R(32,34)                1.0965                                         !
 ! R35   R(32,35)                1.0979                                         !
 ! R36   R(36,37)                1.012                                          !
 ! R37   R(36,38)                1.4763                                         !
 ! R38   R(38,39)                1.0992                                         !
 ! R39   R(38,40)                1.5488                                         !
 ! R40   R(38,41)                1.5272                                         !
 ! R41   R(40,45)                1.232                                          !
 ! R42   R(40,46)                1.3529                                         !
 ! R43   R(41,42)                1.0906                                         !
 ! R44   R(41,43)                1.0956                                         !
 ! R45   R(41,44)                1.0958                                         !
 ! R46   R(46,47)                1.0217                                         !
 ! R47   R(46,48)                1.4623                                         !
 ! R48   R(48,49)                1.0962                                         !
 ! R49   R(48,50)                1.5515                                         !
 ! R50   R(48,51)                1.5322                                         !
 ! R51   R(50,54)                1.2278                                         !
 ! R52   R(50,63)                1.3625                                         !
 ! R53   R(51,52)                1.0934                                         !
 ! R54   R(51,53)                1.0954                                         !
 ! R55   R(51,55)                1.5385                                         !
 ! R56   R(55,56)                1.0967                                         !
 ! R57   R(55,57)                1.097                                          !
 ! R58   R(55,58)                1.5263                                         !
 ! R59   R(58,59)                1.3628                                         !
 ! R60   R(58,62)                1.2267                                         !
 ! R61   R(59,60)                1.0084                                         !
 ! R62   R(59,61)                1.0109                                         !
 ! R63   R(63,64)                1.0188                                         !
 ! R64   R(63,65)                1.4511                                         !
 ! R65   R(65,66)                1.1004                                         !
 ! R66   R(65,67)                1.5407                                         !
 ! R67   R(65,68)                1.5501                                         !
 ! R68   R(67,71)                1.2306                                         !
 ! R69   R(67,83)                1.358                                          !
 ! R70   R(68,69)                1.0943                                         !
 ! R71   R(68,70)                1.1002                                         !
 ! R72   R(68,72)                1.5189                                         !
 ! R73   R(72,73)                1.4037                                         !
 ! R74   R(72,75)                1.3996                                         !
 ! R75   R(73,74)                1.0878                                         !
 ! R76   R(73,77)                1.3945                                         !
 ! R77   R(75,76)                1.0837                                         !
 ! R78   R(75,79)                1.3961                                         !
 ! R79   R(77,78)                1.0867                                         !
 ! R80   R(77,82)                1.3988                                         !
 ! R81   R(79,80)                1.0856                                         !
 ! R82   R(79,82)                1.3946                                         !
 ! R83   R(81,82)                1.3888                                         !
 ! R84   R(83,84)                1.0102                                         !
 ! R85   R(83,85)                1.4587                                         !
 ! R86   R(85,86)                1.0951                                         !
 ! R87   R(85,87)                1.5455                                         !
 ! R88   R(85,88)                1.5311                                         !
 ! R89   R(87,92)                1.2293                                         !
 ! R90   R(87,93)                1.3585                                         !
 ! R91   R(88,89)                1.094                                          !
 ! R92   R(88,90)                1.0947                                         !
 ! R93   R(88,91)                1.0947                                         !
 ! R94   R(93,94)                1.0135                                         !
 ! R95   R(93,95)                1.4502                                         !
 ! R96   R(95,96)                1.0969                                         !
 ! R97   R(95,97)                1.5254                                         !
 ! R98   R(95,98)                1.5525                                         !
 ! R99   R(97,101)               1.2101                                         !
 ! R100  R(97,117)               1.3494                                         !
 ! R101  R(98,99)                1.0975                                         !
 ! R102  R(98,100)               1.0942                                         !
 ! R103  R(98,102)               1.5362                                         !
 ! R104  R(102,103)              1.0997                                         !
 ! R105  R(102,104)              1.094                                          !
 ! R106  R(102,105)              1.5343                                         !
 ! R107  R(105,106)              1.0965                                         !
 ! R108  R(105,107)              1.0946                                         !
 ! R109  R(105,108)              1.4691                                         !
 ! R110  R(108,109)              1.0128                                         !
 ! R111  R(108,116)              1.3402                                         !
 ! R112  R(110,111)              1.0298                                         !
 ! R113  R(110,112)              1.008                                          !
 ! R114  R(110,116)              1.3349                                         !
 ! R115  R(113,114)              1.0222                                         !
 ! R116  R(113,115)              1.0122                                         !
 ! R117  R(113,116)              1.3473                                         !
 ! R118  R(117,118)              0.9773                                         !
 ! A1    A(2,1,3)              108.8766                                         !
 ! A2    A(2,1,4)              106.1039                                         !
 ! A3    A(2,1,5)              110.3269                                         !
 ! A4    A(3,1,4)              108.8305                                         !
 ! A5    A(3,1,5)              107.3295                                         !
 ! A6    A(4,1,5)              115.2453                                         !
 ! A7    A(1,5,6)              111.5351                                         !
 ! A8    A(1,5,7)              108.1619                                         !
 ! A9    A(1,5,8)              106.8938                                         !
 ! A10   A(6,5,7)              108.6393                                         !
 ! A11   A(6,5,8)              107.826                                          !
 ! A12   A(7,5,8)              113.8301                                         !
 ! A13   A(5,7,10)             121.5716                                         !
 ! A14   A(5,7,17)             116.1486                                         !
 ! A15   A(10,7,17)            122.274                                          !
 ! A16   A(5,8,9)              107.5409                                         !
 ! A17   A(5,8,11)             115.6349                                         !
 ! A18   A(5,8,15)             107.7108                                         !
 ! A19   A(9,8,11)             108.9854                                         !
 ! A20   A(9,8,15)             105.0805                                         !
 ! A21   A(11,8,15)            111.3082                                         !
 ! A22   A(8,11,12)            111.0145                                         !
 ! A23   A(8,11,13)            111.9531                                         !
 ! A24   A(8,11,14)            108.8146                                         !
 ! A25   A(12,11,13)           109.6742                                         !
 ! A26   A(12,11,14)           107.3346                                         !
 ! A27   A(13,11,14)           107.8862                                         !
 ! A28   A(8,15,16)            108.0933                                         !
 ! A29   A(7,17,18)            117.8498                                         !
 ! A30   A(7,17,19)            119.4676                                         !
 ! A31   A(18,17,19)           116.5502                                         !
 ! A32   A(17,19,20)           106.9455                                         !
 ! A33   A(17,19,21)           107.9868                                         !
 ! A34   A(17,19,22)           110.4995                                         !
 ! A35   A(20,19,21)           107.9522                                         !
 ! A36   A(20,19,22)           108.8757                                         !
 ! A37   A(21,19,22)           114.3021                                         !
 ! A38   A(19,21,24)           121.0126                                         !
 ! A39   A(19,21,36)           116.625                                          !
 ! A40   A(24,21,36)           122.3503                                         !
 ! A41   A(19,22,23)           104.6286                                         !
 ! A42   A(19,22,25)           112.5745                                         !
 ! A43   A(19,22,28)           113.4819                                         !
 ! A44   A(23,22,25)           107.1466                                         !
 ! A45   A(23,22,28)           108.3616                                         !
 ! A46   A(25,22,28)           110.2193                                         !
 ! A47   A(22,25,26)           109.5563                                         !
 ! A48   A(22,25,27)           106.985                                          !
 ! A49   A(22,25,32)           115.6813                                         !
 ! A50   A(26,25,27)           105.4941                                         !
 ! A51   A(26,25,32)           110.262                                          !
 ! A52   A(27,25,32)           108.3143                                         !
 ! A53   A(22,28,29)           112.9866                                         !
 ! A54   A(22,28,30)           112.9776                                         !
 ! A55   A(22,28,31)           109.5455                                         !
 ! A56   A(29,28,30)           107.275                                          !
 ! A57   A(29,28,31)           107.1361                                         !
 ! A58   A(30,28,31)           106.5603                                         !
 ! A59   A(25,32,33)           110.561                                          !
 ! A60   A(25,32,34)           111.215                                          !
 ! A61   A(25,32,35)           113.1975                                         !
 ! A62   A(33,32,34)           107.5799                                         !
 ! A63   A(33,32,35)           106.9362                                         !
 ! A64   A(34,32,35)           107.0771                                         !
 ! A65   A(21,36,37)           116.767                                          !
 ! A66   A(21,36,38)           122.8105                                         !
 ! A67   A(37,36,38)           114.8797                                         !
 ! A68   A(36,38,39)           106.2554                                         !
 ! A69   A(36,38,40)           116.103                                          !
 ! A70   A(36,38,41)           108.9892                                         !
 ! A71   A(39,38,40)           104.8507                                         !
 ! A72   A(39,38,41)           109.7754                                         !
 ! A73   A(40,38,41)           110.5966                                         !
 ! A74   A(38,40,45)           120.4316                                         !
 ! A75   A(38,40,46)           115.7497                                         !
 ! A76   A(45,40,46)           123.6                                            !
 ! A77   A(38,41,42)           109.7692                                         !
 ! A78   A(38,41,43)           110.9666                                         !
 ! A79   A(38,41,44)           110.4301                                         !
 ! A80   A(42,41,43)           107.0872                                         !
 ! A81   A(42,41,44)           109.5093                                         !
 ! A82   A(43,41,44)           109.0083                                         !
 ! A83   A(40,46,47)           117.151                                          !
 ! A84   A(40,46,48)           122.3988                                         !
 ! A85   A(47,46,48)           118.2042                                         !
 ! A86   A(46,48,49)           106.3052                                         !
 ! A87   A(46,48,50)           110.5053                                         !
 ! A88   A(46,48,51)           109.7794                                         !
 ! A89   A(49,48,50)           107.8362                                         !
 ! A90   A(49,48,51)           110.9415                                         !
 ! A91   A(50,48,51)           111.3401                                         !
 ! A92   A(48,50,54)           122.3995                                         !
 ! A93   A(48,50,63)           114.6325                                         !
 ! A94   A(54,50,63)           122.9508                                         !
 ! A95   A(48,51,52)           108.9496                                         !
 ! A96   A(48,51,53)           109.0263                                         !
 ! A97   A(48,51,55)           112.3226                                         !
 ! A98   A(52,51,53)           106.3633                                         !
 ! A99   A(52,51,55)           110.9819                                         !
 ! A100  A(53,51,55)           109.0049                                         !
 ! A101  A(51,55,56)           110.8233                                         !
 ! A102  A(51,55,57)           109.1977                                         !
 ! A103  A(51,55,58)           111.5242                                         !
 ! A104  A(56,55,57)           107.1361                                         !
 ! A105  A(56,55,58)           112.0043                                         !
 ! A106  A(57,55,58)           105.9047                                         !
 ! A107  A(55,58,59)           116.1498                                         !
 ! A108  A(55,58,62)           121.6387                                         !
 ! A109  A(59,58,62)           122.1995                                         !
 ! A110  A(58,59,60)           122.5317                                         !
 ! A111  A(58,59,61)           118.3097                                         !
 ! A112  A(60,59,61)           118.4248                                         !
 ! A113  A(50,63,64)           120.6845                                         !
 ! A114  A(50,63,65)           121.5453                                         !
 ! A115  A(64,63,65)           116.9172                                         !
 ! A116  A(63,65,66)           108.7146                                         !
 ! A117  A(63,65,67)           107.6944                                         !
 ! A118  A(63,65,68)           113.1795                                         !
 ! A119  A(66,65,67)           107.0456                                         !
 ! A120  A(66,65,68)           105.3202                                         !
 ! A121  A(67,65,68)           114.5761                                         !
 ! A122  A(65,67,71)           122.165                                          !
 ! A123  A(65,67,83)           116.1118                                         !
 ! A124  A(71,67,83)           121.7074                                         !
 ! A125  A(65,68,69)           105.5997                                         !
 ! A126  A(65,68,70)           108.3441                                         !
 ! A127  A(65,68,72)           118.6517                                         !
 ! A128  A(69,68,70)           105.411                                          !
 ! A129  A(69,68,72)           108.9696                                         !
 ! A130  A(70,68,72)           109.0606                                         !
 ! A131  A(68,72,73)           118.2618                                         !
 ! A132  A(68,72,75)           124.1323                                         !
 ! A133  A(73,72,75)           117.6041                                         !
 ! A134  A(72,73,74)           119.2831                                         !
 ! A135  A(72,73,77)           121.8931                                         !
 ! A136  A(74,73,77)           118.8201                                         !
 ! A137  A(72,75,76)           120.5372                                         !
 ! A138  A(72,75,79)           121.069                                          !
 ! A139  A(76,75,79)           118.3902                                         !
 ! A140  A(73,77,78)           120.5111                                         !
 ! A141  A(73,77,82)           119.5272                                         !
 ! A142  A(78,77,82)           119.9591                                         !
 ! A143  A(75,79,80)           119.9925                                         !
 ! A144  A(75,79,82)           120.4792                                         !
 ! A145  A(80,79,82)           119.5254                                         !
 ! A146  A(77,82,79)           119.4034                                         !
 ! A147  A(77,82,81)           121.0709                                         !
 ! A148  A(79,82,81)           119.3897                                         !
 ! A149  A(67,83,84)           120.3199                                         !
 ! A150  A(67,83,85)           121.3017                                         !
 ! A151  A(84,83,85)           118.3604                                         !
 ! A152  A(83,85,86)           107.1957                                         !
 ! A153  A(83,85,87)           111.7175                                         !
 ! A154  A(83,85,88)           109.7622                                         !
 ! A155  A(86,85,87)           109.2101                                         !
 ! A156  A(86,85,88)           110.0293                                         !
 ! A157  A(87,85,88)           108.9086                                         !
 ! A158  A(85,87,92)           122.1645                                         !
 ! A159  A(85,87,93)           114.6342                                         !
 ! A160  A(92,87,93)           123.0661                                         !
 ! A161  A(85,88,89)           110.353                                          !
 ! A162  A(85,88,90)           110.5506                                         !
 ! A163  A(85,88,91)           110.2046                                         !
 ! A164  A(89,88,90)           108.1551                                         !
 ! A165  A(89,88,91)           107.9371                                         !
 ! A166  A(90,88,91)           109.5763                                         !
 ! A167  A(87,93,94)           120.8156                                         !
 ! A168  A(87,93,95)           122.5558                                         !
 ! A169  A(94,93,95)           116.5519                                         !
 ! A170  A(93,95,96)           108.5587                                         !
 ! A171  A(93,95,97)           106.7559                                         !
 ! A172  A(93,95,98)           112.3905                                         !
 ! A173  A(96,95,97)           108.6097                                         !
 ! A174  A(96,95,98)           107.888                                          !
 ! A175  A(97,95,98)           112.5245                                         !
 ! A176  A(95,97,101)          124.4466                                         !
 ! A177  A(95,97,117)          112.0915                                         !
 ! A178  A(101,97,117)         123.4564                                         !
 ! A179  A(95,98,99)           109.0937                                         !
 ! A180  A(95,98,100)          104.9447                                         !
 ! A181  A(95,98,102)          114.666                                          !
 ! A182  A(99,98,100)          107.3222                                         !
 ! A183  A(99,98,102)          110.4726                                         !
 ! A184  A(100,98,102)         109.9728                                         !
 ! A185  A(98,102,103)         110.3023                                         !
 ! A186  A(98,102,104)         111.0294                                         !
 ! A187  A(98,102,105)         113.1291                                         !
 ! A188  A(103,102,104)        105.4925                                         !
 ! A189  A(103,102,105)        108.8435                                         !
 ! A190  A(104,102,105)        107.7195                                         !
 ! A191  A(102,105,106)        110.3909                                         !
 ! A192  A(102,105,107)        109.7613                                         !
 ! A193  A(102,105,108)        111.1138                                         !
 ! A194  A(106,105,107)        107.9633                                         !
 ! A195  A(106,105,108)        109.5158                                         !
 ! A196  A(107,105,108)        108.0108                                         !
 ! A197  A(105,108,109)        116.4636                                         !
 ! A198  A(105,108,116)        127.1062                                         !
 ! A199  A(109,108,116)        116.325                                          !
 ! A200  A(111,110,112)        120.5776                                         !
 ! A201  A(111,110,116)        117.499                                          !
 ! A202  A(112,110,116)        121.7405                                         !
 ! A203  A(114,113,115)        115.9368                                         !
 ! A204  A(114,113,116)        115.5571                                         !
 ! A205  A(115,113,116)        118.3989                                         !
 ! A206  A(108,116,110)        122.1795                                         !
 ! A207  A(108,116,113)        119.4439                                         !
 ! A208  A(110,116,113)        118.3547                                         !
 ! A209  A(97,117,118)         106.7883                                         !
 ! D1    D(2,1,5,6)             56.0956                                         !
 ! D2    D(2,1,5,7)            -63.3149                                         !
 ! D3    D(2,1,5,8)            173.7277                                         !
 ! D4    D(3,1,5,6)            -62.3949                                         !
 ! D5    D(3,1,5,7)            178.1946                                         !
 ! D6    D(3,1,5,8)             55.2372                                         !
 ! D7    D(4,1,5,6)            176.209                                          !
 ! D8    D(4,1,5,7)             56.7985                                         !
 ! D9    D(4,1,5,8)            -66.159                                          !
 ! D10   D(1,5,7,10)           -14.3722                                         !
 ! D11   D(1,5,7,17)           164.7733                                         !
 ! D12   D(6,5,7,10)          -135.594                                          !
 ! D13   D(6,5,7,17)            43.5515                                         !
 ! D14   D(8,5,7,10)           104.2629                                         !
 ! D15   D(8,5,7,17)           -76.5916                                         !
 ! D16   D(1,5,8,9)             64.9367                                         !
 ! D17   D(1,5,8,11)          -173.0497                                         !
 ! D18   D(1,5,8,15)           -47.8549                                         !
 ! D19   D(6,5,8,9)           -175.0213                                         !
 ! D20   D(6,5,8,11)           -53.0077                                         !
 ! D21   D(6,5,8,15)            72.1871                                         !
 ! D22   D(7,5,8,9)            -54.4211                                         !
 ! D23   D(7,5,8,11)            67.5925                                         !
 ! D24   D(7,5,8,15)          -167.2127                                         !
 ! D25   D(5,7,17,18)           11.4102                                         !
 ! D26   D(5,7,17,19)          162.9544                                         !
 ! D27   D(10,7,17,18)        -169.4509                                         !
 ! D28   D(10,7,17,19)         -17.9066                                         !
 ! D29   D(5,8,11,12)          -71.2573                                         !
 ! D30   D(5,8,11,13)           51.6785                                         !
 ! D31   D(5,8,11,14)          170.8327                                         !
 ! D32   D(9,8,11,12)           49.9823                                         !
 ! D33   D(9,8,11,13)          172.9181                                         !
 ! D34   D(9,8,11,14)          -67.9276                                         !
 ! D35   D(15,8,11,12)         165.4197                                         !
 ! D36   D(15,8,11,13)         -71.6445                                         !
 ! D37   D(15,8,11,14)          47.5098                                         !
 ! D38   D(5,8,15,16)          -90.4709                                         !
 ! D39   D(9,8,15,16)          155.0906                                         !
 ! D40   D(11,8,15,16)          37.2668                                         !
 ! D41   D(7,17,19,20)          63.1711                                         !
 ! D42   D(7,17,19,21)         -52.7856                                         !
 ! D43   D(7,17,19,22)        -178.4708                                         !
 ! D44   D(18,17,19,20)       -144.9253                                         !
 ! D45   D(18,17,19,21)         99.1179                                         !
 ! D46   D(18,17,19,22)        -26.5673                                         !
 ! D47   D(17,19,21,24)        -30.5486                                         !
 ! D48   D(17,19,21,36)        148.2191                                         !
 ! D49   D(20,19,21,24)       -145.8456                                         !
 ! D50   D(20,19,21,36)         32.9221                                         !
 ! D51   D(22,19,21,24)         92.8595                                         !
 ! D52   D(22,19,21,36)        -88.3728                                         !
 ! D53   D(17,19,22,23)        -52.3686                                         !
 ! D54   D(17,19,22,25)       -168.3762                                         !
 ! D55   D(17,19,22,28)         65.5591                                         !
 ! D56   D(20,19,22,23)         64.8045                                         !
 ! D57   D(20,19,22,25)        -51.2031                                         !
 ! D58   D(20,19,22,28)       -177.2679                                         !
 ! D59   D(21,19,22,23)       -174.4116                                         !
 ! D60   D(21,19,22,25)         69.5809                                         !
 ! D61   D(21,19,22,28)        -56.4839                                         !
 ! D62   D(19,21,36,37)         -2.3952                                         !
 ! D63   D(19,21,36,38)       -154.7517                                         !
 ! D64   D(24,21,36,37)        176.3547                                         !
 ! D65   D(24,21,36,38)         23.9981                                         !
 ! D66   D(19,22,25,26)        -62.7779                                         !
 ! D67   D(19,22,25,27)       -176.6643                                         !
 ! D68   D(19,22,25,32)         62.5751                                         !
 ! D69   D(23,22,25,26)       -177.2656                                         !
 ! D70   D(23,22,25,27)         68.848                                          !
 ! D71   D(23,22,25,32)        -51.9126                                         !
 ! D72   D(28,22,25,26)         65.0275                                         !
 ! D73   D(28,22,25,27)        -48.8589                                         !
 ! D74   D(28,22,25,32)       -169.6195                                         !
 ! D75   D(19,22,28,29)         66.6691                                         !
 ! D76   D(19,22,28,30)        -55.3525                                         !
 ! D77   D(19,22,28,31)       -173.9757                                         !
 ! D78   D(23,22,28,29)       -177.5888                                         !
 ! D79   D(23,22,28,30)         60.3897                                         !
 ! D80   D(23,22,28,31)        -58.2336                                         !
 ! D81   D(25,22,28,29)        -60.6346                                         !
 ! D82   D(25,22,28,30)        177.3439                                         !
 ! D83   D(25,22,28,31)         58.7206                                         !
 ! D84   D(22,25,32,33)        174.3299                                         !
 ! D85   D(22,25,32,34)         54.8814                                         !
 ! D86   D(22,25,32,35)        -65.7204                                         !
 ! D87   D(26,25,32,33)        -60.6798                                         !
 ! D88   D(26,25,32,34)        179.8716                                         !
 ! D89   D(26,25,32,35)         59.2699                                         !
 ! D90   D(27,25,32,33)         54.2902                                         !
 ! D91   D(27,25,32,34)        -65.1584                                         !
 ! D92   D(27,25,32,35)        174.2399                                         !
 ! D93   D(21,36,38,39)         32.8051                                         !
 ! D94   D(21,36,38,40)        -83.3088                                         !
 ! D95   D(21,36,38,41)        151.037                                          !
 ! D96   D(37,36,38,39)       -120.025                                          !
 ! D97   D(37,36,38,40)        123.8611                                         !
 ! D98   D(37,36,38,41)         -1.7931                                         !
 ! D99   D(36,38,40,45)       -141.0167                                         !
 ! D100  D(36,38,40,46)         44.1666                                         !
 ! D101  D(39,38,40,45)        102.0854                                         !
 ! D102  D(39,38,40,46)        -72.7313                                         !
 ! D103  D(41,38,40,45)        -16.1812                                         !
 ! D104  D(41,38,40,46)        169.0021                                         !
 ! D105  D(36,38,41,42)        179.5249                                         !
 ! D106  D(36,38,41,43)         61.3546                                         !
 ! D107  D(36,38,41,44)        -59.6395                                         !
 ! D108  D(39,38,41,42)        -64.4793                                         !
 ! D109  D(39,38,41,43)        177.3504                                         !
 ! D110  D(39,38,41,44)         56.3562                                         !
 ! D111  D(40,38,41,42)         50.7396                                         !
 ! D112  D(40,38,41,43)        -67.4307                                         !
 ! D113  D(40,38,41,44)        171.5751                                         !
 ! D114  D(38,40,46,47)          7.6792                                         !
 ! D115  D(38,40,46,48)        170.3315                                         !
 ! D116  D(45,40,46,47)       -166.9546                                         !
 ! D117  D(45,40,46,48)         -4.3023                                         !
 ! D118  D(40,46,48,49)         28.2795                                         !
 ! D119  D(40,46,48,50)        -88.4718                                         !
 ! D120  D(40,46,48,51)        148.3413                                         !
 ! D121  D(47,46,48,49)       -169.2417                                         !
 ! D122  D(47,46,48,50)         74.007                                          !
 ! D123  D(47,46,48,51)        -49.1798                                         !
 ! D124  D(46,48,50,54)       -123.4198                                         !
 ! D125  D(46,48,50,63)         55.1147                                         !
 ! D126  D(49,48,50,54)        120.7812                                         !
 ! D127  D(49,48,50,63)        -60.6843                                         !
 ! D128  D(51,48,50,54)         -1.1437                                         !
 ! D129  D(51,48,50,63)        177.3908                                         !
 ! D130  D(46,48,51,52)        168.2609                                         !
 ! D131  D(46,48,51,53)         52.5722                                         !
 ! D132  D(46,48,51,55)        -68.3559                                         !
 ! D133  D(49,48,51,52)        -74.5402                                         !
 ! D134  D(49,48,51,53)        169.771                                          !
 ! D135  D(49,48,51,55)         48.8429                                         !
 ! D136  D(50,48,51,52)         45.5666                                         !
 ! D137  D(50,48,51,53)        -70.1221                                         !
 ! D138  D(50,48,51,55)        168.9498                                         !
 ! D139  D(48,50,63,64)         12.5109                                         !
 ! D140  D(48,50,63,65)       -178.3896                                         !
 ! D141  D(54,50,63,64)       -168.9637                                         !
 ! D142  D(54,50,63,65)          0.1358                                         !
 ! D143  D(48,51,55,56)        -79.0253                                         !
 ! D144  D(48,51,55,57)         38.7641                                         !
 ! D145  D(48,51,55,58)        155.46                                           !
 ! D146  D(52,51,55,56)         43.2126                                         !
 ! D147  D(52,51,55,57)        161.002                                          !
 ! D148  D(52,51,55,58)        -82.3021                                         !
 ! D149  D(53,51,55,56)        160.0343                                         !
 ! D150  D(53,51,55,57)        -82.1763                                         !
 ! D151  D(53,51,55,58)         34.5196                                         !
 ! D152  D(51,55,58,59)        124.8116                                         !
 ! D153  D(51,55,58,62)        -56.4182                                         !
 ! D154  D(56,55,58,59)         -0.0462                                         !
 ! D155  D(56,55,58,62)        178.724                                          !
 ! D156  D(57,55,58,59)       -116.5075                                         !
 ! D157  D(57,55,58,62)         62.2627                                         !
 ! D158  D(55,58,59,60)         -7.258                                          !
 ! D159  D(55,58,59,61)       -177.2816                                         !
 ! D160  D(62,58,59,60)        173.9793                                         !
 ! D161  D(62,58,59,61)          3.9557                                         !
 ! D162  D(50,63,65,66)        -51.7583                                         !
 ! D163  D(50,63,65,67)       -167.4127                                         !
 ! D164  D(50,63,65,68)         64.8898                                         !
 ! D165  D(64,63,65,66)        117.7329                                         !
 ! D166  D(64,63,65,67)          2.0784                                         !
 ! D167  D(64,63,65,68)       -125.619                                          !
 ! D168  D(63,65,67,71)         -1.0784                                         !
 ! D169  D(63,65,67,83)        177.5022                                         !
 ! D170  D(66,65,67,71)       -117.8271                                         !
 ! D171  D(66,65,67,83)         60.7535                                         !
 ! D172  D(68,65,67,71)        125.8072                                         !
 ! D173  D(68,65,67,83)        -55.6122                                         !
 ! D174  D(63,65,68,69)        -63.8384                                         !
 ! D175  D(63,65,68,70)       -176.3735                                         !
 ! D176  D(63,65,68,72)         58.651                                          !
 ! D177  D(66,65,68,69)         54.7939                                         !
 ! D178  D(66,65,68,70)        -57.7412                                         !
 ! D179  D(66,65,68,72)        177.2834                                         !
 ! D180  D(67,65,68,69)        172.1484                                         !
 ! D181  D(67,65,68,70)         59.6133                                         !
 ! D182  D(67,65,68,72)        -65.3622                                         !
 ! D183  D(65,67,83,84)          3.8313                                         !
 ! D184  D(65,67,83,85)       -174.5997                                         !
 ! D185  D(71,67,83,84)       -177.581                                          !
 ! D186  D(71,67,83,85)          3.988                                          !
 ! D187  D(65,68,72,73)       -168.8309                                         !
 ! D188  D(65,68,72,75)         11.6718                                         !
 ! D189  D(69,68,72,73)        -48.0438                                         !
 ! D190  D(69,68,72,75)        132.4588                                         !
 ! D191  D(70,68,72,73)         66.5426                                         !
 ! D192  D(70,68,72,75)       -112.9547                                         !
 ! D193  D(68,72,73,74)          0.959                                          !
 ! D194  D(68,72,73,77)       -178.3331                                         !
 ! D195  D(75,72,73,74)       -179.5105                                         !
 ! D196  D(75,72,73,77)          1.1974                                         !
 ! D197  D(68,72,75,76)         -0.9874                                         !
 ! D198  D(68,72,75,79)        179.7148                                         !
 ! D199  D(73,72,75,76)        179.5122                                         !
 ! D200  D(73,72,75,79)          0.2144                                         !
 ! D201  D(72,73,77,78)        178.8442                                         !
 ! D202  D(72,73,77,82)         -1.7508                                         !
 ! D203  D(74,73,77,78)         -0.451                                          !
 ! D204  D(74,73,77,82)        178.9539                                         !
 ! D205  D(72,75,79,80)        178.3147                                         !
 ! D206  D(72,75,79,82)         -1.0624                                         !
 ! D207  D(76,75,79,80)         -0.9978                                         !
 ! D208  D(76,75,79,82)        179.625                                          !
 ! D209  D(73,77,82,79)          0.8669                                         !
 ! D210  D(73,77,82,81)        176.6019                                         !
 ! D211  D(78,77,82,79)       -179.7248                                         !
 ! D212  D(78,77,82,81)         -3.9898                                         !
 ! D213  D(75,79,82,77)          0.5093                                         !
 ! D214  D(75,79,82,81)       -175.2982                                         !
 ! D215  D(80,79,82,77)       -178.8707                                         !
 ! D216  D(80,79,82,81)          5.3218                                         !
 ! D217  D(67,83,85,86)         44.0467                                         !
 ! D218  D(67,83,85,87)        -75.5575                                         !
 ! D219  D(67,83,85,88)        163.5286                                         !
 ! D220  D(84,83,85,86)       -134.4142                                         !
 ! D221  D(84,83,85,87)        105.9816                                         !
 ! D222  D(84,83,85,88)        -14.9323                                         !
 ! D223  D(83,85,87,92)        -63.3466                                         !
 ! D224  D(83,85,87,93)        120.7603                                         !
 ! D225  D(86,85,87,92)        178.2439                                         !
 ! D226  D(86,85,87,93)          2.3508                                         !
 ! D227  D(88,85,87,92)         58.0625                                         !
 ! D228  D(88,85,87,93)       -117.8305                                         !
 ! D229  D(83,85,88,89)       -176.3486                                         !
 ! D230  D(83,85,88,90)        -56.745                                          !
 ! D231  D(83,85,88,91)         64.5379                                         !
 ! D232  D(86,85,88,89)        -58.6168                                         !
 ! D233  D(86,85,88,90)         60.9868                                         !
 ! D234  D(86,85,88,91)       -177.7302                                         !
 ! D235  D(87,85,88,89)         61.0573                                         !
 ! D236  D(87,85,88,90)       -179.3391                                         !
 ! D237  D(87,85,88,91)        -58.0561                                         !
 ! D238  D(85,87,93,94)        -12.7863                                         !
 ! D239  D(85,87,93,95)        170.5087                                         !
 ! D240  D(92,87,93,94)        171.3622                                         !
 ! D241  D(92,87,93,95)         -5.3428                                         !
 ! D242  D(87,93,95,96)        -46.0991                                         !
 ! D243  D(87,93,95,97)       -163.0119                                         !
 ! D244  D(87,93,95,98)         73.1587                                         !
 ! D245  D(94,93,95,96)        137.0642                                         !
 ! D246  D(94,93,95,97)         20.1514                                         !
 ! D247  D(94,93,95,98)       -103.678                                          !
 ! D248  D(93,95,97,101)       -16.6308                                         !
 ! D249  D(93,95,97,117)       164.1973                                         !
 ! D250  D(96,95,97,101)      -133.5098                                         !
 ! D251  D(96,95,97,117)        47.3183                                         !
 ! D252  D(98,95,97,101)       107.1158                                         !
 ! D253  D(98,95,97,117)       -72.0561                                         !
 ! D254  D(93,95,98,99)         65.3389                                         !
 ! D255  D(93,95,98,100)       -49.4013                                         !
 ! D256  D(93,95,98,102)      -170.172                                          !
 ! D257  D(96,95,98,99)       -175.0123                                         !
 ! D258  D(96,95,98,100)        70.2476                                         !
 ! D259  D(96,95,98,102)       -50.5231                                         !
 ! D260  D(97,95,98,99)        -55.2187                                         !
 ! D261  D(97,95,98,100)      -169.9589                                         !
 ! D262  D(97,95,98,102)        69.2705                                         !
 ! D263  D(95,97,117,118)      179.4252                                         !
 ! D264  D(101,97,117,118)       0.2437                                         !
 ! D265  D(95,98,102,103)       44.4016                                         !
 ! D266  D(95,98,102,104)      -72.1728                                         !
 ! D267  D(95,98,102,105)      166.5761                                         !
 ! D268  D(99,98,102,103)      168.1588                                         !
 ! D269  D(99,98,102,104)       51.5844                                         !
 ! D270  D(99,98,102,105)      -69.6667                                         !
 ! D271  D(100,98,102,103)     -73.5573                                         !
 ! D272  D(100,98,102,104)     169.8683                                         !
 ! D273  D(100,98,102,105)      48.6172                                         !
 ! D274  D(98,102,105,106)     169.8759                                         !
 ! D275  D(98,102,105,107)      50.9841                                         !
 ! D276  D(98,102,105,108)     -68.4165                                         !
 ! D277  D(103,102,105,106)    -67.1379                                         !
 ! D278  D(103,102,105,107)    173.9703                                         !
 ! D279  D(103,102,105,108)     54.5697                                         !
 ! D280  D(104,102,105,106)     46.7745                                         !
 ! D281  D(104,102,105,107)    -72.1173                                         !
 ! D282  D(104,102,105,108)    168.482                                          !
 ! D283  D(102,105,108,109)    -40.9196                                         !
 ! D284  D(102,105,108,116)    135.1916                                         !
 ! D285  D(106,105,108,109)     81.2971                                         !
 ! D286  D(106,105,108,116)   -102.5916                                         !
 ! D287  D(107,105,108,109)   -161.3609                                         !
 ! D288  D(107,105,108,116)     14.7504                                         !
 ! D289  D(105,108,116,110)     14.8286                                         !
 ! D290  D(105,108,116,113)   -166.9005                                         !
 ! D291  D(109,108,116,110)   -169.0555                                         !
 ! D292  D(109,108,116,113)      9.2154                                         !
 ! D293  D(111,110,116,108)   -162.477                                          !
 ! D294  D(111,110,116,113)     19.2341                                         !
 ! D295  D(112,110,116,108)     12.6345                                         !
 ! D296  D(112,110,116,113)   -165.6545                                         !
 ! D297  D(114,113,116,108)    174.5125                                         !
 ! D298  D(114,113,116,110)     -7.1505                                         !
 ! D299  D(115,113,116,108)     30.4466                                         !
 ! D300  D(115,113,116,110)   -151.2163                                         !
 --------------------------------------------------------------------------------
 Symmetry turned off by external request.
 Stoichiometry    C36H60N11O11(1+)
 Framework group  C1[X(C36H60N11O11)]
 Deg. of freedom   348
 Full point group                 C1      NOp   1
                          Input orientation:                          
 ---------------------------------------------------------------------
 Center     Atomic      Atomic             Coordinates (Angstroms)
 Number     Number       Type             X           Y           Z
 ---------------------------------------------------------------------
      1          7           0       -1.080765    0.251623   -6.985269
      2          1           0       -1.744546    0.875848   -7.440698
      3          1           0       -0.568881   -0.264084   -7.700408
      4          1           0       -0.003148    1.242235   -6.153633
      5          6           0       -1.793113   -0.736621   -6.156939
      6          1           0       -2.529936   -1.305723   -6.749212
      7          6           0       -2.536668    0.019064   -5.041876
      8          6           0       -0.723771   -1.742453   -5.631484
      9          1           0       -0.048212   -1.190887   -4.973301
     10          8           0       -2.283974    1.191912   -4.781260
     11          6           0       -1.268649   -2.952049   -4.881576
     12          1           0       -1.660716   -2.662795   -3.903725
     13          1           0       -2.049738   -3.473323   -5.454290
     14          1           0       -0.450491   -3.658315   -4.708974
     15          8           0        0.085755   -2.141893   -6.747649
     16          1           0       -0.316966   -2.931159   -7.145184
     17          7           0       -3.499908   -0.684086   -4.377526
     18          1           0       -3.544325   -1.682594   -4.528427
     19          6           0       -3.985712   -0.196493   -3.090249
     20          1           0       -4.459450    0.772334   -3.274406
     21          6           0       -2.759550    0.038239   -2.174198
     22          6           0       -5.045719   -1.171421   -2.503432
     23          1           0       -5.781085   -1.301806   -3.311798
     24          8           0       -1.739839   -0.646039   -2.289551
     25          6           0       -5.798335   -0.571777   -1.295672
     26          1           0       -5.089345   -0.379228   -0.479466
     27          1           0       -6.473113   -1.350334   -0.920013
     28          6           0       -4.473862   -2.552864   -2.141036
     29          1           0       -3.761228   -2.516134   -1.311287
     30          1           0       -3.968534   -3.041328   -2.982973
     31          1           0       -5.288495   -3.218338   -1.837399
     32          6           0       -6.627714    0.685658   -1.586715
     33          1           0       -7.202481    0.980446   -0.702480
     34          1           0       -7.340154    0.511219   -2.401809
     35          1           0       -6.015476    1.550813   -1.873262
     36          7           0       -2.861089    1.044133   -1.267069
     37          1           0       -3.714437    1.587923   -1.283121
     38          6           0       -1.685345    1.749463   -0.719776
     39          1           0       -0.936254    1.768825   -1.524011
     40          6           0       -0.971781    1.062433    0.470896
     41          6           0       -2.087771    3.176590   -0.354007
     42          1           0       -1.229570    3.707250    0.059968
     43          1           0       -2.868900    3.178960    0.414202
     44          1           0       -2.455378    3.708940   -1.238442
     45          8           0       -0.534065    1.732924    1.407163
     46          7           0       -0.776167   -0.270700    0.348995
     47          1           0       -0.999209   -0.694045   -0.553740
     48          6           0        0.058433   -1.028570    1.280415
     49          1           0        0.012898   -0.496195    2.237597
     50          6           0        1.536170   -1.030830    0.807724
     51          6           0       -0.484346   -2.454589    1.420537
     52          1           0        0.254878   -3.065906    1.945218
     53          1           0       -0.596123   -2.893749    0.423246
     54          8           0        2.160552   -2.068413    0.605390
     55          6           0       -1.843287   -2.494459    2.140711
     56          1           0       -1.712350   -2.402818    3.225747
     57          1           0       -2.449388   -1.640036    1.814965
     58          6           0       -2.640309   -3.740466    1.764085
     59          7           0       -3.053741   -4.524641    2.799206
     60          1           0       -2.762074   -4.364355    3.751081
     61          1           0       -3.548094   -5.380011    2.584953
     62          8           0       -2.910184   -4.003199    0.596631
     63          7           0        2.070022    0.206509    0.606818
     64          1           0        1.588968    1.040612    0.939738
     65          6           0        3.430065    0.378413    0.131041
     66          1           0        4.104785   -0.210936    0.770015
     67          6           0        3.808557    1.859904    0.320039
     68          6           0        3.647463   -0.164450   -1.304530
     69          1           0        3.473906   -1.243030   -1.240703
     70          1           0        4.712146   -0.054194   -1.558867
     71          8           0        3.019683    2.683847    0.781660
     72          6           0        2.806178    0.405059   -2.433695
     73          6           0        2.833155   -0.246716   -3.676579
     74          1           0        3.437509   -1.143493   -3.794078
     75          6           0        2.008831    1.549527   -2.318770
     76          1           0        1.946778    2.085263   -1.378798
     77          6           0        2.117374    0.230113   -4.774224
     78          1           0        2.169210   -0.281863   -5.731341
     79          6           0        1.264628    2.020860   -3.401829
     80          1           0        0.630711    2.894463   -3.285585
     81          8           0        0.647057    1.912784   -5.721732
     82          6           0        1.318093    1.369508   -4.633869
     83          7           0        5.076848    2.201488   -0.024948
     84          1           0        5.695523    1.516781   -0.435967
     85          6           0        5.592029    3.544775    0.215786
     86          1           0        5.280439    3.835031    1.224697
     87          6           0        5.031276    4.563312   -0.802377
     88          6           0        7.120172    3.537952    0.120488
     89          1           0        7.520957    4.526564    0.363103
     90          1           0        7.545855    2.815261    0.824003
     91          1           0        7.434382    3.287382   -0.897812
     92          8           0        5.265140    4.481422   -2.006480
     93          7           0        4.339985    5.594148   -0.249986
     94          1           0        4.053836    5.565714    0.721836
     95          6           0        3.913226    6.747965   -1.017934
     96          1           0        4.755113    7.088773   -1.633045
     97          6           0        3.570164    7.842856   -0.012734
     98          6           0        2.729860    6.421068   -1.968277
     99          1           0        1.847965    6.163399   -1.367995
    100          1           0        3.037309    5.515950   -2.500759
    101          8           0        3.375595    7.652957    1.166378
    102          6           0        2.389611    7.531422   -2.973861
    103          1           0        3.308970    7.933986   -3.423317
    104          1           0        1.912354    8.380054   -2.475034
    105          6           0        1.453788    7.062535   -4.095616
    106          1           0        1.097556    7.919706   -4.679252
    107          1           0        0.581224    6.561626   -3.664483
    108          7           0        2.130645    6.109857   -4.985881
    109          1           0        3.092379    6.319825   -5.224183
    110          7           0        0.338502    4.661507   -5.403118
    111          1           0        0.069049    3.674936   -5.523898
    112          1           0       -0.353931    5.358150   -5.176795
    113          7           0        2.470872    4.072976   -6.044986
    114          1           0        2.051013    3.178221   -6.305948
    115          1           0        3.432366    4.035978   -5.730937
    116          6           0        1.639152    4.956576   -5.459649
    117          8           0        3.489350    9.058084   -0.593819
    118          1           0        3.258962    9.693669    0.111906
 ---------------------------------------------------------------------
 Rotational constants (GHZ):           0.0549868           0.0302923           0.0258376
 Standard basis: 6-31G(d) (6D, 7F)
   990 basis functions,  1864 primitive gaussians,   990 cartesian basis functions
   220 alpha electrons      220 beta electrons
       nuclear repulsion energy      9409.6560041841 Hartrees.
 NAtoms=  118 NActive=  118 NUniq=  118 SFac= 1.00D+00 NAtFMM=   60 NAOKFM=T Big=T
 Integral buffers will be    131072 words long.
 Raffenetti 2 integral format.
 Two-electron integral symmetry is turned off.
 One-electron integrals computed using PRISM.
 NBasis=   990 RedAO= T EigKep=  3.94D-04  NBF=   990
 NBsUse=   990 1.00D-06 EigRej= -1.00D+00 NBFU=   990
 Initial guess from the checkpoint file:  "conf-962.chk"
 B after Tr=     0.000000    0.000000    0.000000
         Rot=    1.000000    0.000000    0.000000    0.000000 Ang=   0.00 deg.
 Requested convergence on RMS density matrix=1.00D-08 within 128 cycles.
 Requested convergence on MAX density matrix=1.00D-06.
 Requested convergence on             energy=1.00D-06.
 No special actions if energy rises.
 SCF Done:  E(RB3LYP) =  -2837.67503170     A.U. after    3 cycles
            NFock=  3  Conv=0.88D-09     -V/T= 2.0094
 Hyperfine terms turned off by default for NAtoms > 100.

 **********************************************************************

            Population analysis using the SCF Density.

 **********************************************************************

 Alpha  occ. eigenvalues --  -19.29045 -19.24212 -19.23434 -19.23348 -19.20303
 Alpha  occ. eigenvalues --  -19.20081 -19.19435 -19.19162 -19.17712 -19.17061
 Alpha  occ. eigenvalues --  -19.16087 -14.50518 -14.48845 -14.48382 -14.44411
 Alpha  occ. eigenvalues --  -14.44049 -14.44007 -14.43921 -14.43054 -14.41297
 Alpha  occ. eigenvalues --  -14.41020 -14.41004 -10.45830 -10.41341 -10.37080
 Alpha  occ. eigenvalues --  -10.36961 -10.36499 -10.36300 -10.35199 -10.34819
 Alpha  occ. eigenvalues --  -10.34044 -10.34002 -10.33164 -10.32352 -10.31904
 Alpha  occ. eigenvalues --  -10.31625 -10.31259 -10.31255 -10.31002 -10.30558
 Alpha  occ. eigenvalues --  -10.29880 -10.28787 -10.28765 -10.27260 -10.26724
 Alpha  occ. eigenvalues --  -10.26311 -10.26226 -10.26158 -10.26081 -10.26011
 Alpha  occ. eigenvalues --  -10.25955 -10.25658 -10.25568 -10.25375 -10.24804
 Alpha  occ. eigenvalues --  -10.24706 -10.24068 -10.23593  -1.19946  -1.14482
 Alpha  occ. eigenvalues --   -1.12669  -1.11719  -1.11452  -1.11165  -1.11098
 Alpha  occ. eigenvalues --   -1.10663  -1.10612  -1.09602  -1.08664  -1.07894
 Alpha  occ. eigenvalues --   -1.04206  -1.01839  -1.00659  -1.00624  -1.00593
 Alpha  occ. eigenvalues --   -1.00266  -0.98881  -0.98486  -0.97452  -0.95437
 Alpha  occ. eigenvalues --   -0.92425  -0.90686  -0.88666  -0.86768  -0.85680
 Alpha  occ. eigenvalues --   -0.85168  -0.84772  -0.83902  -0.83665  -0.81944
 Alpha  occ. eigenvalues --   -0.80933  -0.80149  -0.79180  -0.78464  -0.77605
 Alpha  occ. eigenvalues --   -0.76315  -0.76145  -0.73873  -0.73193  -0.72472
 Alpha  occ. eigenvalues --   -0.72166  -0.71449  -0.70464  -0.69740  -0.69482
 Alpha  occ. eigenvalues --   -0.68589  -0.68244  -0.67799  -0.67007  -0.66769
 Alpha  occ. eigenvalues --   -0.66293  -0.66045  -0.65717  -0.64390  -0.63719
 Alpha  occ. eigenvalues --   -0.63279  -0.63226  -0.62935  -0.62369  -0.61736
 Alpha  occ. eigenvalues --   -0.61551  -0.60911  -0.60116  -0.59836  -0.59507
 Alpha  occ. eigenvalues --   -0.58709  -0.58551  -0.58070  -0.57697  -0.57476
 Alpha  occ. eigenvalues --   -0.56846  -0.56790  -0.56491  -0.56275  -0.55724
 Alpha  occ. eigenvalues --   -0.55645  -0.55022  -0.54732  -0.54468  -0.54095
 Alpha  occ. eigenvalues --   -0.53599  -0.53228  -0.52864  -0.52708  -0.52403
 Alpha  occ. eigenvalues --   -0.52061  -0.51981  -0.51534  -0.51446  -0.51104
 Alpha  occ. eigenvalues --   -0.50562  -0.50254  -0.50073  -0.49976  -0.49850
 Alpha  occ. eigenvalues --   -0.49397  -0.49150  -0.49090  -0.49056  -0.48783
 Alpha  occ. eigenvalues --   -0.48598  -0.48261  -0.48047  -0.47884  -0.47649
 Alpha  occ. eigenvalues --   -0.47362  -0.46677  -0.46489  -0.46307  -0.45984
 Alpha  occ. eigenvalues --   -0.45872  -0.45796  -0.45610  -0.45374  -0.45253
 Alpha  occ. eigenvalues --   -0.45139  -0.45003  -0.44819  -0.44581  -0.44206
 Alpha  occ. eigenvalues --   -0.43900  -0.43849  -0.43530  -0.43252  -0.43153
 Alpha  occ. eigenvalues --   -0.42769  -0.42579  -0.42137  -0.41613  -0.41132
 Alpha  occ. eigenvalues --   -0.41025  -0.40782  -0.40652  -0.40509  -0.40401
 Alpha  occ. eigenvalues --   -0.40025  -0.39815  -0.39587  -0.39479  -0.38995
 Alpha  occ. eigenvalues --   -0.38576  -0.37233  -0.37020  -0.35655  -0.35327
 Alpha  occ. eigenvalues --   -0.34913  -0.34690  -0.33860  -0.33602  -0.33361
 Alpha  occ. eigenvalues --   -0.33074  -0.32925  -0.32484  -0.31982  -0.31802
 Alpha  occ. eigenvalues --   -0.30895  -0.30653  -0.30101  -0.29888  -0.29089
 Alpha virt. eigenvalues --   -0.10308  -0.08566  -0.07896  -0.07541  -0.06917
 Alpha virt. eigenvalues --   -0.05764  -0.05664  -0.05316  -0.04839  -0.04743
 Alpha virt. eigenvalues --   -0.03548  -0.02733  -0.02062  -0.01822  -0.01197
 Alpha virt. eigenvalues --   -0.01023  -0.00699  -0.00192   0.00252   0.00850
 Alpha virt. eigenvalues --    0.01397   0.01859   0.02020   0.02310   0.02424
 Alpha virt. eigenvalues --    0.03522   0.03629   0.03861   0.04257   0.04506
 Alpha virt. eigenvalues --    0.05058   0.05327   0.05500   0.05812   0.06104
 Alpha virt. eigenvalues --    0.06332   0.06464   0.06690   0.06982   0.07253
 Alpha virt. eigenvalues --    0.07356   0.07591   0.07764   0.07862   0.07960
 Alpha virt. eigenvalues --    0.08229   0.08349   0.08549   0.08645   0.08753
 Alpha virt. eigenvalues --    0.08959   0.09208   0.09421   0.09438   0.09854
 Alpha virt. eigenvalues --    0.10019   0.10291   0.10463   0.10804   0.11085
 Alpha virt. eigenvalues --    0.11171   0.11572   0.11823   0.11923   0.12009
 Alpha virt. eigenvalues --    0.12219   0.12391   0.12625   0.12917   0.13116
 Alpha virt. eigenvalues --    0.13197   0.13501   0.13666   0.13687   0.13849
 Alpha virt. eigenvalues --    0.14280   0.14298   0.15025   0.15242   0.15386
 Alpha virt. eigenvalues --    0.15841   0.15864   0.16051   0.16343   0.16534
 Alpha virt. eigenvalues --    0.16813   0.16835   0.17220   0.17457   0.17729
 Alpha virt. eigenvalues --    0.17978   0.18615   0.18745   0.18923   0.19098
 Alpha virt. eigenvalues --    0.19492   0.20052   0.20169   0.20520   0.20852
 Alpha virt. eigenvalues --    0.21479   0.21558   0.22152   0.22382   0.23259
 Alpha virt. eigenvalues --    0.23745   0.24131   0.25022   0.25784   0.26427
 Alpha virt. eigenvalues --    0.27193   0.27349   0.27808   0.28004   0.28507
 Alpha virt. eigenvalues --    0.29003   0.29992   0.30836   0.30969   0.31577
 Alpha virt. eigenvalues --    0.31886   0.32368   0.33868   0.34457   0.35090
 Alpha virt. eigenvalues --    0.35703   0.36575   0.37759   0.38119   0.38275
 Alpha virt. eigenvalues --    0.40175   0.40734   0.41010   0.41493   0.41943
 Alpha virt. eigenvalues --    0.42067   0.42416   0.43204   0.43610   0.43922
 Alpha virt. eigenvalues --    0.44368   0.44753   0.44874   0.45114   0.45290
 Alpha virt. eigenvalues --    0.45547   0.45888   0.46223   0.46304   0.46958
 Alpha virt. eigenvalues --    0.47159   0.47416   0.47734   0.47869   0.48024
 Alpha virt. eigenvalues --    0.48521   0.49046   0.49263   0.49513   0.49664
 Alpha virt. eigenvalues --    0.50151   0.50292   0.51235   0.51359   0.51556
 Alpha virt. eigenvalues --    0.51862   0.52079   0.52091   0.52400   0.52640
 Alpha virt. eigenvalues --    0.52900   0.53416   0.53575   0.53836   0.53933
 Alpha virt. eigenvalues --    0.54501   0.54824   0.55055   0.55336   0.55497
 Alpha virt. eigenvalues --    0.55744   0.55961   0.56057   0.56345   0.56741
 Alpha virt. eigenvalues --    0.57017   0.57241   0.57580   0.57744   0.57900
 Alpha virt. eigenvalues --    0.58271   0.58303   0.58819   0.58931   0.59202
 Alpha virt. eigenvalues --    0.60002   0.60175   0.60342   0.60510   0.60691
 Alpha virt. eigenvalues --    0.61131   0.61417   0.61593   0.61938   0.62177
 Alpha virt. eigenvalues --    0.63133   0.63291   0.63971   0.64129   0.64448
 Alpha virt. eigenvalues --    0.64866   0.65332   0.65895   0.66386   0.66464
 Alpha virt. eigenvalues --    0.66615   0.67039   0.67563   0.67779   0.68004
 Alpha virt. eigenvalues --    0.68163   0.68610   0.69264   0.69484   0.69894
 Alpha virt. eigenvalues --    0.69962   0.70826   0.71014   0.71092   0.71440
 Alpha virt. eigenvalues --    0.71627   0.71774   0.72018   0.72798   0.73115
 Alpha virt. eigenvalues --    0.73496   0.74179   0.74197   0.74560   0.74597
 Alpha virt. eigenvalues --    0.74875   0.75123   0.75329   0.75650   0.76132
 Alpha virt. eigenvalues --    0.76460   0.76602   0.77094   0.77153   0.77407
 Alpha virt. eigenvalues --    0.77734   0.78096   0.78259   0.78282   0.78357
 Alpha virt. eigenvalues --    0.78801   0.78974   0.79190   0.79415   0.79662
 Alpha virt. eigenvalues --    0.80036   0.80273   0.80334   0.80569   0.80654
 Alpha virt. eigenvalues --    0.81272   0.81316   0.81624   0.81845   0.81899
 Alpha virt. eigenvalues --    0.82197   0.82436   0.82603   0.82819   0.82995
 Alpha virt. eigenvalues --    0.83023   0.83310   0.83434   0.83639   0.83902
 Alpha virt. eigenvalues --    0.84027   0.84505   0.84623   0.84848   0.85073
 Alpha virt. eigenvalues --    0.85478   0.85730   0.85876   0.86211   0.86342
 Alpha virt. eigenvalues --    0.86574   0.87009   0.87245   0.87278   0.87659
 Alpha virt. eigenvalues --    0.87907   0.88251   0.88476   0.88775   0.88835
 Alpha virt. eigenvalues --    0.89277   0.89428   0.89671   0.89882   0.90049
 Alpha virt. eigenvalues --    0.90331   0.90664   0.90964   0.91564   0.91880
 Alpha virt. eigenvalues --    0.92047   0.92510   0.93176   0.93573   0.93904
 Alpha virt. eigenvalues --    0.94028   0.94363   0.94630   0.94968   0.95446
 Alpha virt. eigenvalues --    0.95895   0.96776   0.96914   0.97111   0.97898
 Alpha virt. eigenvalues --    0.98615   0.98966   0.99534   0.99753   1.00235
 Alpha virt. eigenvalues --    1.00721   1.00998   1.01580   1.01942   1.02330
 Alpha virt. eigenvalues --    1.02700   1.03009   1.03166   1.03709   1.04030
 Alpha virt. eigenvalues --    1.04489   1.04782   1.05470   1.05549   1.06259
 Alpha virt. eigenvalues --    1.06329   1.07079   1.07857   1.08939   1.09095
 Alpha virt. eigenvalues --    1.10012   1.10195   1.10685   1.10880   1.11589
 Alpha virt. eigenvalues --    1.11947   1.12412   1.12843   1.13287   1.13830
 Alpha virt. eigenvalues --    1.14830   1.15024   1.15479   1.16147   1.16376
 Alpha virt. eigenvalues --    1.17472   1.17936   1.18340   1.19261   1.19747
 Alpha virt. eigenvalues --    1.20305   1.20659   1.21650   1.22058   1.22412
 Alpha virt. eigenvalues --    1.23082   1.23528   1.24093   1.24327   1.25004
 Alpha virt. eigenvalues --    1.25555   1.26325   1.26420   1.27326   1.27782
 Alpha virt. eigenvalues --    1.27989   1.28790   1.29394   1.30279   1.30814
 Alpha virt. eigenvalues --    1.30887   1.31690   1.32116   1.32716   1.33707
 Alpha virt. eigenvalues --    1.33900   1.34629   1.35018   1.35460   1.36146
 Alpha virt. eigenvalues --    1.36984   1.37670   1.37975   1.38681   1.39075
 Alpha virt. eigenvalues --    1.39184   1.39548   1.40296   1.40486   1.40772
 Alpha virt. eigenvalues --    1.41128   1.41472   1.42287   1.42674   1.42814
 Alpha virt. eigenvalues --    1.43830   1.44589   1.44925   1.45930   1.46076
 Alpha virt. eigenvalues --    1.46819   1.47459   1.48638   1.49074   1.49500
 Alpha virt. eigenvalues --    1.49608   1.50089   1.50662   1.51439   1.51959
 Alpha virt. eigenvalues --    1.52889   1.53290   1.53998   1.54543   1.55194
 Alpha virt. eigenvalues --    1.55766   1.55875   1.56533   1.56688   1.57842
 Alpha virt. eigenvalues --    1.59054   1.59222   1.60187   1.61329   1.61857
 Alpha virt. eigenvalues --    1.62103   1.62822   1.63652   1.64026   1.64329
 Alpha virt. eigenvalues --    1.64838   1.65307   1.65589   1.65823   1.66469
 Alpha virt. eigenvalues --    1.66748   1.67202   1.67599   1.68067   1.68981
 Alpha virt. eigenvalues --    1.69563   1.70025   1.70345   1.70643   1.71247
 Alpha virt. eigenvalues --    1.71332   1.71755   1.72009   1.72540   1.73044
 Alpha virt. eigenvalues --    1.73408   1.73901   1.74090   1.74472   1.74904
 Alpha virt. eigenvalues --    1.75337   1.75418   1.76011   1.76169   1.76365
 Alpha virt. eigenvalues --    1.76491   1.76769   1.76864   1.77247   1.77961
 Alpha virt. eigenvalues --    1.78086   1.78318   1.78846   1.79232   1.79785
 Alpha virt. eigenvalues --    1.80013   1.80079   1.80615   1.80698   1.81284
 Alpha virt. eigenvalues --    1.81717   1.81735   1.82020   1.82439   1.82763
 Alpha virt. eigenvalues --    1.83087   1.83496   1.84286   1.84425   1.85082
 Alpha virt. eigenvalues --    1.85505   1.85831   1.86029   1.86215   1.86425
 Alpha virt. eigenvalues --    1.86764   1.87225   1.87911   1.88132   1.88837
 Alpha virt. eigenvalues --    1.89007   1.89265   1.90045   1.90098   1.90612
 Alpha virt. eigenvalues --    1.90860   1.91498   1.91655   1.91787   1.92194
 Alpha virt. eigenvalues --    1.92653   1.93117   1.93652   1.93722   1.94254
 Alpha virt. eigenvalues --    1.94378   1.94997   1.95086   1.95472   1.95618
 Alpha virt. eigenvalues --    1.96098   1.96337   1.96855   1.97175   1.97733
 Alpha virt. eigenvalues --    1.97943   1.98693   1.99856   2.00308   2.00387
 Alpha virt. eigenvalues --    2.00611   2.00964   2.01276   2.01553   2.02173
 Alpha virt. eigenvalues --    2.02636   2.03488   2.03517   2.04044   2.05168
 Alpha virt. eigenvalues --    2.05539   2.05815   2.06192   2.06331   2.06708
 Alpha virt. eigenvalues --    2.07196   2.07919   2.08040   2.08505   2.08664
 Alpha virt. eigenvalues --    2.09432   2.10633   2.10915   2.11184   2.11972
 Alpha virt. eigenvalues --    2.12624   2.13045   2.13284   2.14966   2.15183
 Alpha virt. eigenvalues --    2.15572   2.15967   2.16650   2.17336   2.18461
 Alpha virt. eigenvalues --    2.18750   2.19968   2.20381   2.20464   2.20842
 Alpha virt. eigenvalues --    2.21330   2.21696   2.21949   2.22606   2.23590
 Alpha virt. eigenvalues --    2.23631   2.24177   2.24382   2.24930   2.25766
 Alpha virt. eigenvalues --    2.26339   2.26855   2.27064   2.27335   2.28480
 Alpha virt. eigenvalues --    2.28729   2.29699   2.30226   2.30551   2.30828
 Alpha virt. eigenvalues --    2.31298   2.31744   2.31943   2.32424   2.32928
 Alpha virt. eigenvalues --    2.33791   2.34364   2.34809   2.35088   2.35757
 Alpha virt. eigenvalues --    2.36429   2.36839   2.37321   2.38145   2.38652
 Alpha virt. eigenvalues --    2.39604   2.39660   2.40224   2.40309   2.40911
 Alpha virt. eigenvalues --    2.42259   2.42665   2.43539   2.43912   2.44188
 Alpha virt. eigenvalues --    2.45178   2.45477   2.45903   2.46914   2.48215
 Alpha virt. eigenvalues --    2.48408   2.49248   2.49495   2.50413   2.50549
 Alpha virt. eigenvalues --    2.51409   2.51421   2.52290   2.52693   2.53230
 Alpha virt. eigenvalues --    2.54381   2.54781   2.55422   2.56096   2.56399
 Alpha virt. eigenvalues --    2.56604   2.57636   2.58187   2.58995   2.59087
 Alpha virt. eigenvalues --    2.59762   2.60252   2.60655   2.60874   2.61746
 Alpha virt. eigenvalues --    2.61970   2.62127   2.63048   2.63260   2.64167
 Alpha virt. eigenvalues --    2.65548   2.66578   2.67091   2.68102   2.68505
 Alpha virt. eigenvalues --    2.68714   2.70436   2.71157   2.73369   2.73604
 Alpha virt. eigenvalues --    2.73923   2.74577   2.74808   2.75854   2.77867
 Alpha virt. eigenvalues --    2.79160   2.80166   2.81661   2.82671   2.84702
 Alpha virt. eigenvalues --    2.85535   2.85753   2.86311   2.87796   2.88162
 Alpha virt. eigenvalues --    2.88459   2.89452   2.91604   2.93714   2.94135
 Alpha virt. eigenvalues --    2.94928   2.95350   2.96414   2.96843   2.98797
 Alpha virt. eigenvalues --    2.99136   2.99698   3.01893   3.02341   3.06011
 Alpha virt. eigenvalues --    3.07454   3.09581   3.10248   3.10717   3.11656
 Alpha virt. eigenvalues --    3.15804   3.35034   3.72334   3.73610   3.74438
 Alpha virt. eigenvalues --    3.76048   3.80631   3.84879   3.87271   3.89016
 Alpha virt. eigenvalues --    3.91213   3.96630   3.97741   4.00191   4.00682
 Alpha virt. eigenvalues --    4.01639   4.03312   4.03782   4.05030   4.06120
 Alpha virt. eigenvalues --    4.08275   4.08500   4.08969   4.09909   4.10802
 Alpha virt. eigenvalues --    4.12544   4.14383   4.15679   4.16093   4.17279
 Alpha virt. eigenvalues --    4.18264   4.19094   4.20507   4.21784   4.23102
 Alpha virt. eigenvalues --    4.25776   4.28063   4.29133   4.29788   4.30089
 Alpha virt. eigenvalues --    4.33335   4.35356   4.36958   4.39057   4.41160
 Alpha virt. eigenvalues --    4.41501   4.44415   4.45133   4.46525   4.48367
 Alpha virt. eigenvalues --    4.51502   4.52719   4.53727   4.56548   4.57060
 Alpha virt. eigenvalues --    4.57713   4.60444   4.62271   4.63385   4.70467
          Condensed to atoms (all electrons):
 Mulliken charges:
               1
     1  N   -0.779266
     2  H    0.332308
     3  H    0.346821
     4  H    0.490883
     5  C   -0.097759
     6  H    0.139675
     7  C    0.642032
     8  C    0.143060
     9  H    0.184406
    10  O   -0.541109
    11  C   -0.530713
    12  H    0.208630
    13  H    0.136069
    14  H    0.183961
    15  O   -0.631266
    16  H    0.400447
    17  N   -0.613375
    18  H    0.341948
    19  C   -0.037596
    20  H    0.166681
    21  C    0.654099
    22  C   -0.111683
    23  H    0.143234
    24  O   -0.551741
    25  C   -0.270433
    26  H    0.146994
    27  H    0.158079
    28  C   -0.475786
    29  H    0.200674
    30  H    0.129320
    31  H    0.163529
    32  C   -0.461278
    33  H    0.164837
    34  H    0.158894
    35  H    0.127538
    36  N   -0.606432
    37  H    0.345379
    38  C   -0.067425
    39  H    0.193818
    40  C    0.619536
    41  C   -0.481678
    42  H    0.193855
    43  H    0.170311
    44  H    0.138218
    45  O   -0.534243
    46  N   -0.614956
    47  H    0.388358
    48  C   -0.083781
    49  H    0.188099
    50  C    0.624977
    51  C   -0.273286
    52  H    0.172120
    53  H    0.178906
    54  O   -0.526388
    55  C   -0.354503
    56  H    0.137557
    57  H    0.175947
    58  C    0.588349
    59  N   -0.740588
    60  H    0.341786
    61  H    0.346016
    62  O   -0.513445
    63  N   -0.639168
    64  H    0.384166
    65  C   -0.041768
    66  H    0.183915
    67  C    0.626816
    68  C   -0.378342
    69  H    0.212766
    70  H    0.141469
    71  O   -0.539043
    72  C    0.183299
    73  C   -0.189397
    74  H    0.142640
    75  C   -0.197729
    76  H    0.155852
    77  C   -0.188589
    78  H    0.157545
    79  C   -0.180472
    80  H    0.117406
    81  O   -0.771976
    82  C    0.331339
    83  N   -0.603471
    84  H    0.341277
    85  C   -0.032825
    86  H    0.170219
    87  C    0.641948
    88  C   -0.487831
    89  H    0.174703
    90  H    0.169987
    91  H    0.178998
    92  O   -0.551783
    93  N   -0.614620
    94  H    0.369059
    95  C   -0.017272
    96  H    0.188054
    97  C    0.580346
    98  C   -0.281381
    99  H    0.160723
   100  H    0.182745
   101  O   -0.447216
   102  C   -0.294960
   103  H    0.156893
   104  H    0.182723
   105  C   -0.150862
   106  H    0.188774
   107  H    0.166819
   108  N   -0.595237
   109  H    0.361757
   110  N   -0.774729
   111  H    0.424680
   112  H    0.367976
   113  N   -0.759758
   114  H    0.403486
   115  H    0.371241
   116  C    0.789591
   117  O   -0.566736
   118  H    0.427336
 Sum of Mulliken charges =   1.00000
 Mulliken charges with hydrogens summed into heavy atoms:
               1
     1  N   -0.100137
     5  C    0.041916
     7  C    0.642032
     8  C    0.327466
    10  O   -0.541109
    11  C   -0.002053
    15  O   -0.230819
    17  N   -0.271428
    19  C    0.129086
    21  C    0.654099
    22  C    0.031552
    24  O   -0.551741
    25  C    0.034640
    28  C    0.017737
    32  C   -0.010010
    36  N   -0.261053
    38  C    0.126394
    40  C    0.619536
    41  C    0.020705
    45  O   -0.534243
    46  N   -0.226598
    48  C    0.104318
    50  C    0.624977
    51  C    0.077739
    54  O   -0.526388
    55  C   -0.040999
    58  C    0.588349
    59  N   -0.052787
    62  O   -0.513445
    63  N   -0.255001
    65  C    0.142148
    67  C    0.626816
    68  C   -0.024108
    71  O   -0.539043
    72  C    0.183299
    73  C   -0.046757
    75  C   -0.041877
    77  C   -0.031044
    79  C   -0.063066
    81  O   -0.281093
    82  C    0.331339
    83  N   -0.262194
    85  C    0.137394
    87  C    0.641948
    88  C    0.035857
    92  O   -0.551783
    93  N   -0.245561
    95  C    0.170782
    97  C    0.580346
    98  C    0.062087
   101  O   -0.447216
   102  C    0.044657
   105  C    0.204730
   108  N   -0.233480
   110  N    0.017927
   113  N    0.014968
   116  C    0.789591
   117  O   -0.139400
 Electronic spatial extent (au):  <R**2>=          54111.5448
 Charge=              1.0000 electrons
 Dipole moment (field-independent basis, Debye):
    X=              1.0753    Y=             15.6589    Z=            -19.1000  Tot=             24.7218
 Quadrupole moment (field-independent basis, Debye-Ang):
   XX=           -257.2435   YY=           -187.1611   ZZ=           -203.1156
   XY=             53.7218   XZ=             -2.6877   YZ=            -69.8188
 Traceless Quadrupole moment (field-independent basis, Debye-Ang):
   XX=            -41.4034   YY=             28.6789   ZZ=             12.7245
   XY=             53.7218   XZ=             -2.6877   YZ=            -69.8188
 Octapole moment (field-independent basis, Debye-Ang**2):
  XXX=           -324.4536  YYY=           -409.7589  ZZZ=           1162.1732  XYY=             82.3477
  XXY=           -332.3999  XXZ=            554.5235  XZZ=           -216.7005  YZZ=           -366.6726
  YYZ=            216.4573  XYZ=            -84.4851
 Hexadecapole moment (field-independent basis, Debye-Ang**3):
 XXXX=         -18854.7264 YYYY=         -16620.8846 ZZZZ=         -15732.6574 XXXY=          -5817.6962
 XXXZ=            139.9107 YYYX=          -3914.4222 YYYZ=            617.5204 ZZZX=             74.0164
 ZZZY=           2347.7408 XXYY=          -6749.7602 XXZZ=          -6410.1458 YYZZ=          -5421.9162
 XXYZ=            953.3597 YYXZ=           -819.1650 ZZXY=          -1303.3575
 N-N= 9.409656004184D+03 E-N=-2.540011148008D+04  KE= 2.811330363900D+03
 Unable to Open any file for archive entry.
 1\1\GINC-SKL-136\SP\RB3LYP\6-31G(d)\C36H60N11O11(1+)\KENGMITH\02-Jul-2
 022\0\\# B3LYP/6-31G* guess=read geom=check nosymm integral(ultrafineg
 rid)\\Candidate Structure: Conf:962 Charge calc in gas phase\\1,1\N,0,
 -1.0807654279,0.2516227706,-6.9852686154\H,0,-1.7445457551,0.875848150
 6,-7.440698389\H,0,-0.5688806885,-0.2640840505,-7.7004082476\H,0,-0.00
 31484249,1.2422350831,-6.1536331528\C,0,-1.793112994,-0.7366205248,-6.
 1569391309\H,0,-2.529935617,-1.3057232794,-6.7492122563\C,0,-2.5366680
 919,0.0190641367,-5.0418755706\C,0,-0.723770962,-1.7424532598,-5.63148
 36929\H,0,-0.0482124647,-1.1908867746,-4.9733006788\O,0,-2.2839735772,
 1.1919123687,-4.7812602722\C,0,-1.2686488687,-2.9520491085,-4.88157644
 43\H,0,-1.6607162693,-2.6627945896,-3.9037250752\H,0,-2.0497379466,-3.
 4733231849,-5.4542900099\H,0,-0.450490958,-3.6583154354,-4.7089738759\
 O,0,0.0857545163,-2.1418925296,-6.7476487162\H,0,-0.3169658116,-2.9311
 592753,-7.1451837832\N,0,-3.4999076367,-0.6840856818,-4.3775262457\H,0
 ,-3.5443250979,-1.6825942619,-4.5284268686\C,0,-3.985711582,-0.1964930
 633,-3.090248551\H,0,-4.4594504803,0.7723337189,-3.2744056895\C,0,-2.7
 595497672,0.0382386573,-2.1741983889\C,0,-5.0457187826,-1.1714207089,-
 2.5034318408\H,0,-5.7810847735,-1.3018060084,-3.3117977104\O,0,-1.7398
 387368,-0.6460386444,-2.2895508763\C,0,-5.7983345635,-0.5717768168,-1.
 2956717276\H,0,-5.0893447222,-0.3792281604,-0.4794661288\H,0,-6.473112
 6869,-1.3503336398,-0.920012772\C,0,-4.47386246,-2.5528636397,-2.14103
 586\H,0,-3.7612279207,-2.5161340672,-1.3112871966\H,0,-3.9685336972,-3
 .0413281704,-2.9829730072\H,0,-5.28849455,-3.2183376004,-1.8373985365\
 C,0,-6.6277140663,0.6856578919,-1.5867154028\H,0,-7.2024809609,0.98044
 56688,-0.7024795894\H,0,-7.3401536908,0.5112186038,-2.4018089222\H,0,-
 6.0154761379,1.5508130725,-1.8732615298\N,0,-2.8610890308,1.0441326818
 ,-1.26706915\H,0,-3.7144367553,1.5879233539,-1.2831211337\C,0,-1.68534
 48088,1.7494628419,-0.7197762706\H,0,-0.9362541041,1.7688245732,-1.524
 0105594\C,0,-0.9717808063,1.0624328947,0.4708960624\C,0,-2.0877710979,
 3.1765902349,-0.3540065055\H,0,-1.2295703828,3.7072501696,0.0599682135
 \H,0,-2.8689001367,3.1789599847,0.4142022924\H,0,-2.4553784098,3.70894
 02042,-1.2384415187\O,0,-0.5340654964,1.7329242082,1.4071628649\N,0,-0
 .7761669305,-0.2707004421,0.3489949038\H,0,-0.9992092173,-0.6940453121
 ,-0.5537395716\C,0,0.0584331449,-1.0285701971,1.28041477\H,0,0.0128983
 153,-0.4961949187,2.2375965965\C,0,1.536169627,-1.0308298047,0.8077241
 839\C,0,-0.4843458304,-2.4545893762,1.4205368149\H,0,0.2548780089,-3.0
 659060752,1.9452181574\H,0,-0.5961230369,-2.8937485871,0.4232461417\O,
 0,2.1605522528,-2.0684134133,0.6053903979\C,0,-1.8432873493,-2.4944593
 379,2.1407108707\H,0,-1.712349942,-2.4028181394,3.2257466881\H,0,-2.44
 93878093,-1.6400358438,1.8149645117\C,0,-2.6403088623,-3.7404664472,1.
 7640854216\N,0,-3.0537411918,-4.5246407869,2.7992055213\H,0,-2.7620738
 296,-4.3643546978,3.7510811852\H,0,-3.5480943473,-5.3800105072,2.58495
 27051\O,0,-2.9101844464,-4.0031987996,0.5966310457\N,0,2.0700216932,0.
 2065087794,0.6068182745\H,0,1.5889676873,1.040611916,0.9397382147\C,0,
 3.4300653254,0.3784127241,0.1310411298\H,0,4.1047847323,-0.2109357268,
 0.7700153623\C,0,3.8085572269,1.8599037667,0.3200390777\C,0,3.64746348
 43,-0.1644496112,-1.3045296103\H,0,3.4739058873,-1.2430297116,-1.24070
 31596\H,0,4.712145716,-0.0541935883,-1.5588670118\O,0,3.0196833811,2.6
 838469413,0.7816600965\C,0,2.8061779485,0.4050592758,-2.433694532\C,0,
 2.8331548028,-0.2467162166,-3.6765794901\H,0,3.4375087294,-1.143493027
 1,-3.794078107\C,0,2.0088308277,1.5495273822,-2.3187703997\H,0,1.94677
 78371,2.0852633018,-1.3787984338\C,0,2.1173742191,0.2301132915,-4.7742
 244143\H,0,2.1692097957,-0.281862769,-5.7313405358\C,0,1.2646278105,2.
 0208601189,-3.4018291903\H,0,0.6307114402,2.8944625532,-3.2855850972\O
 ,0,0.6470571764,1.9127835553,-5.7217323789\C,0,1.3180928082,1.36950750
 07,-4.633869331\N,0,5.0768477254,2.201487872,-0.0249482171\H,0,5.69552
 25496,1.5167806277,-0.435967372\C,0,5.5920293167,3.5447748301,0.215786
 0513\H,0,5.2804392442,3.8350313618,1.2246966537\C,0,5.0312755731,4.563
 3119987,-0.8023771644\C,0,7.1201719841,3.5379524148,0.1204878035\H,0,7
 .5209574115,4.5265644873,0.3631032722\H,0,7.5458545491,2.8152614747,0.
 824003055\H,0,7.4343817237,3.2873817975,-0.8978116689\O,0,5.2651401556
 ,4.4814220327,-2.0064799048\N,0,4.339985235,5.5941479971,-0.2499862887
 \H,0,4.0538358949,5.5657144692,0.7218361858\C,0,3.9132259906,6.7479651
 919,-1.017934127\H,0,4.7551128348,7.0887726646,-1.6330452468\C,0,3.570
 1642445,7.8428557162,-0.0127335765\C,0,2.7298604996,6.4210677864,-1.96
 8276523\H,0,1.8479647566,6.1633988002,-1.3679953071\H,0,3.0373086845,5
 .5159504972,-2.5007587118\O,0,3.3755951852,7.6529571052,1.1663776881\C
 ,0,2.3896106589,7.5314215957,-2.9738606178\H,0,3.3089698777,7.93398598
 8,-3.4233165005\H,0,1.9123541239,8.3800544987,-2.4750342647\C,0,1.4537
 87841,7.0625345065,-4.0956157768\H,0,1.0975557364,7.9197064018,-4.6792
 521496\H,0,0.5812241837,6.5616257383,-3.6644827732\N,0,2.1306448068,6.
 1098565297,-4.9858810693\H,0,3.0923791082,6.3198250825,-5.2241829284\N
 ,0,0.3385021062,4.6615066008,-5.4031184045\H,0,0.0690491831,3.67493572
 12,-5.5238983248\H,0,-0.3539307478,5.3581498656,-5.1767954227\N,0,2.47
 08722084,4.0729759164,-6.0449862517\H,0,2.0510128682,3.178221304,-6.30
 59476186\H,0,3.4323662965,4.0359777797,-5.7309369689\C,0,1.6391522729,
 4.9565758821,-5.4596485267\O,0,3.4893499339,9.0580838587,-0.5938194023
 \H,0,3.2589617813,9.6936690501,0.1119055213\\Version=ES64L-G16RevC.01\
 HF=-2837.6750317\RMSD=8.828e-10\Dipole=-0.4267692,3.4185819,-3.9086353
 \Quadrupole=-30.782423,21.322093,9.46033,39.9408523,-1.9982103,-51.908
 5395\PG=C01 [X(C36H60N11O11)]\\@
 The archive entry for this job was punched.


 THE DIFFERENCE BETWEEN A NOOSE AND A HALO IS ONLY 12 INCHES.
 Job cpu time:       0 days  0 hours  8 minutes 50.8 seconds.
 Elapsed time:       0 days  0 hours  2 minutes 13.8 seconds.
 File lengths (MBytes):  RWF=    624 Int=      0 D2E=      0 Chk=     96 Scr=     16
 Normal termination of Gaussian 16 at Sat Jul  2 15:36:15 2022.
