 Entering Gaussian System, Link 0=/opt/software/Gaussian/g16-AVX2-C.01/g16/g16
 Input=charge-conf-448.com
 Output=charge-conf-448.log
 Initial command:
 /opt/software/Gaussian/g16-AVX2-C.01/g16/l1.exe "/mnt/gs18/scratch/users/kengmith/Gau-17172.inp" -scrdir="/mnt/gs18/scratch/users/kengmith/"
 Entering Link 1 = /opt/software/Gaussian/g16-AVX2-C.01/g16/l1.exe PID=     17182.
  
 Copyright (c) 1988-2019, Gaussian, Inc.  All Rights Reserved.
  
 This is part of the Gaussian(R) 16 program.  It is based on
 the Gaussian(R) 09 system (copyright 2009, Gaussian, Inc.),
 the Gaussian(R) 03 system (copyright 2003, Gaussian, Inc.),
 the Gaussian(R) 98 system (copyright 1998, Gaussian, Inc.),
 the Gaussian(R) 94 system (copyright 1995, Gaussian, Inc.),
 the Gaussian 92(TM) system (copyright 1992, Gaussian, Inc.),
 the Gaussian 90(TM) system (copyright 1990, Gaussian, Inc.),
 the Gaussian 88(TM) system (copyright 1988, Gaussian, Inc.),
 the Gaussian 86(TM) system (copyright 1986, Carnegie Mellon
 University), and the Gaussian 82(TM) system (copyright 1983,
 Carnegie Mellon University). Gaussian is a federally registered
 trademark of Gaussian, Inc.
  
 This software contains proprietary and confidential information,
 including trade secrets, belonging to Gaussian, Inc.
  
 This software is provided under written license and may be
 used, copied, transmitted, or stored only in accord with that
 written license.
  
 The following legend is applicable only to US Government
 contracts under FAR:
  
                    RESTRICTED RIGHTS LEGEND
  
 Use, reproduction and disclosure by the US Government is
 subject to restrictions as set forth in subparagraphs (a)
 and (c) of the Commercial Computer Software - Restricted
 Rights clause in FAR 52.227-19.
  
 Gaussian, Inc.
 340 Quinnipiac St., Bldg. 40, Wallingford CT 06492
  
  
 ---------------------------------------------------------------
 Warning -- This program may not be used in any manner that
 competes with the business of Gaussian, Inc. or will provide
 assistance to any competitor of Gaussian, Inc.  The licensee
 of this program is prohibited from giving any competitor of
 Gaussian, Inc. access to this program.  By using this program,
 the user acknowledges that Gaussian, Inc. is engaged in the
 business of creating and licensing software in the field of
 computational chemistry and represents and warrants to the
 licensee that it is not a competitor of Gaussian, Inc. and that
 it will not use this program in any manner prohibited above.
 ---------------------------------------------------------------
  

 Cite this work as:
 Gaussian 16, Revision C.01,
 M. J. Frisch, G. W. Trucks, H. B. Schlegel, G. E. Scuseria, 
 M. A. Robb, J. R. Cheeseman, G. Scalmani, V. Barone, 
 G. A. Petersson, H. Nakatsuji, X. Li, M. Caricato, A. V. Marenich, 
 J. Bloino, B. G. Janesko, R. Gomperts, B. Mennucci, H. P. Hratchian, 
 J. V. Ortiz, A. F. Izmaylov, J. L. Sonnenberg, D. Williams-Young, 
 F. Ding, F. Lipparini, F. Egidi, J. Goings, B. Peng, A. Petrone, 
 T. Henderson, D. Ranasinghe, V. G. Zakrzewski, J. Gao, N. Rega, 
 G. Zheng, W. Liang, M. Hada, M. Ehara, K. Toyota, R. Fukuda, 
 J. Hasegawa, M. Ishida, T. Nakajima, Y. Honda, O. Kitao, H. Nakai, 
 T. Vreven, K. Throssell, J. A. Montgomery, Jr., J. E. Peralta, 
 F. Ogliaro, M. J. Bearpark, J. J. Heyd, E. N. Brothers, K. N. Kudin, 
 V. N. Staroverov, T. A. Keith, R. Kobayashi, J. Normand, 
 K. Raghavachari, A. P. Rendell, J. C. Burant, S. S. Iyengar, 
 J. Tomasi, M. Cossi, J. M. Millam, M. Klene, C. Adamo, R. Cammi, 
 J. W. Ochterski, R. L. Martin, K. Morokuma, O. Farkas, 
 J. B. Foresman, and D. J. Fox, Gaussian, Inc., Wallingford CT, 2019.
 
 ******************************************
 Gaussian 16:  ES64L-G16RevC.01  3-Jul-2019
                28-Jun-2022 
 ******************************************
 %mem=8gb
 %nproc=4
 Will use up to    4 processors via shared memory.
 %chk=conf-448.chk
 -------------------------------------------------------------------
 # B3LYP/6-31G* guess=read geom=check nosymm integral(ultrafinegrid)
 -------------------------------------------------------------------
 1/29=2,38=1,172=1/1;
 2/12=2,15=1,40=1/2;
 3/5=1,6=6,7=1,11=2,14=-4,25=1,30=1,74=-5,75=-5,116=-2/1,2,3;
 4/5=1/1;
 5/5=2,38=6/2;
 6/7=2,8=2,9=2,10=2,28=1/1;
 99/5=1,9=1/99;
 ------------------------------------------------------
 Candidate Structure: Conf:448 Charge calc in gas phase
 ------------------------------------------------------
 Structure from the checkpoint file:  "conf-448.chk"
 Charge =  1 Multiplicity = 1
 Redundant internal coordinates found in file.  (old form).
 N,0,-7.7594877911,4.3373519987,5.1653663192
 H,0,-7.7916387634,4.5943883488,6.1553901259
 H,0,-8.6881770865,4.4844789806,4.7601172417
 H,0,-7.0241794999,4.9343919962,4.6576843021
 C,0,-7.2154701124,2.9418124814,4.9167592975
 H,0,-7.0400546356,2.4758744673,5.8895096379
 C,0,-5.8605746129,3.2370107189,4.2031462023
 C,0,-8.1852524514,2.1122880984,4.0760616257
 H,0,-7.7598562213,1.1231680455,3.885458828
 H,0,-9.1366111533,1.9661965584,4.5978371742
 H,0,-8.371554034,2.5849296934,3.1053814292
 O,0,-5.6168616094,4.4260607964,3.9259146645
 N,0,-5.0894534107,2.1951366593,3.9515498601
 H,0,-5.3867240705,1.2263436311,4.1171413988
 C,0,-3.8294689442,2.229911117,3.2029309977
 H,0,-3.9761042667,2.8264006539,2.2961247916
 C,0,-3.6040767397,0.7446279575,2.8217362496
 C,0,-2.6645121232,2.8572394689,4.028040748
 H,0,-2.3133508022,2.1276137934,4.7666638629
 H,0,-3.0902180757,3.6988253326,4.5871716578
 O,0,-4.4048429378,-0.111648913,3.222021721
 C,0,-1.5339528363,3.3469575346,3.1722256979
 C,0,-0.2769443706,2.798563926,3.05290304
 H,0,0.1396513884,1.9157584514,3.5164504082
 C,0,-1.5568617548,4.5111371911,2.3150196793
 C,0,-0.2772083659,4.6007582669,1.7034679215
 C,0,-2.5259955677,5.4856013271,2.0133332902
 H,0,-3.5084223137,5.4526151569,2.4780321262
 N,0,0.4796008017,3.5492895283,2.1839986873
 H,0,1.4064934752,3.3026896286,1.8723137311
 C,0,-0.9299254957,6.5599344809,0.5147453183
 H,0,-0.7087882152,7.3629777275,-0.1822473278
 C,0,0.0504623524,5.6173733719,0.8008022568
 H,0,1.0338160655,5.6716228407,0.3418808433
 C,0,-2.2033647701,6.4966554254,1.1167855976
 H,0,-2.9414035106,7.2562467155,0.8747570237
 N,0,-2.5321681634,0.4691565268,2.0654655262
 H,0,-1.8407758056,1.1866274373,1.8525614322
 C,0,-2.1808685936,-0.8878590759,1.6763075574
 H,0,-2.4567779412,-1.5757227934,2.48168911
 C,0,-0.6726928024,-0.929242802,1.4180552756
 C,0,-2.9606033593,-1.3228742595,0.3939205118
 H,0,-2.7468328667,-0.6035503097,-0.4080758648
 H,0,-4.0273479024,-1.2694263711,0.631888939
 O,0,-0.0058721723,0.0975572187,1.2932434225
 O,0,-2.6608258615,-2.6469754012,0.0090269083
 H,0,-1.9166493622,-2.6118535663,-0.6324690202
 N,0,-0.1680951586,-2.1873683621,1.2911132958
 H,0,-0.8777935809,-2.9079605433,1.1780184736
 C,0,1.0721593241,-2.415675748,0.5546152249
 H,0,1.8270513018,-1.7294296148,0.9520839117
 C,0,0.8139506848,-2.0827839994,-0.9345888029
 C,0,1.5394004667,-3.8814681507,0.7639968936
 H,0,0.7285557765,-4.5281492447,0.3960321703
 O,0,-0.2867655969,-2.2976362124,-1.4624173273
 C,0,2.806901293,-4.2146791449,-0.0371387041
 H,0,3.6424359694,-3.563810564,0.2524036006
 H,0,3.1121671179,-5.2464287101,0.1652687454
 H,0,2.6601501118,-4.1183595536,-1.1165901103
 C,0,1.7596167296,-4.1714814232,2.2570129682
 H,0,2.5757232695,-3.5559549356,2.6561816781
 H,0,2.0333172296,-5.2219731135,2.4017533757
 H,0,0.8651760971,-3.9682277947,2.8523631695
 N,0,1.8470875017,-1.5595868767,-1.6168099711
 H,0,2.7510268916,-1.4012224771,-1.1826695481
 C,0,1.7925542743,-1.2401731657,-3.036003899
 H,0,1.2752367263,-2.0547758118,-3.5550359306
 C,0,3.2479538639,-1.1507514841,-3.5228620633
 C,0,1.0434402628,0.0807807175,-3.3019998609
 H,0,1.0140530218,0.3113882735,-4.371959763
 H,0,1.5361676494,0.9091787955,-2.7829774098
 H,0,0.018127484,-0.0084193196,-2.9354981466
 O,0,4.1771532693,-1.0248492254,-2.7139814467
 N,0,3.4096286651,-1.2058435659,-4.8626769782
 H,0,2.5930901496,-1.1195282402,-5.4615782012
 C,0,4.6547551924,-0.8190867055,-5.514915148
 H,0,5.2939643915,-0.4318255908,-4.7308993486
 C,0,4.3446280253,0.3183294841,-6.5056751719
 C,0,5.334846813,-2.0042411425,-6.2440406598
 H,0,4.5516292413,-2.5308157995,-6.802602865
 H,0,6.0273300695,-1.6056048883,-6.9946980872
 O,0,5.3681868064,1.0883069654,-6.8524053635
 C,0,6.0799202162,-3.0037349999,-5.3365914933
 H,0,5.4926575637,-3.1998697231,-4.4298767235
 H,0,6.1513391647,-3.9607932116,-5.8700200239
 C,0,7.5208938224,-2.6161546498,-4.9422444255
 H,0,8.1026403049,-2.3812167373,-5.8406217742
 H,0,8.0119771715,-3.4821882737,-4.4868410242
 N,0,7.6556518398,-1.5139564119,-3.9920582862
 H,0,7.4943017269,-1.7434173972,-3.0200213367
 N,0,7.6600825737,0.3518342168,-5.4869440786
 H,0,6.2172819149,0.8857205857,-6.3372444246
 H,0,8.1768816598,-0.26814424,-6.1100009933
 N,0,7.0178866628,0.5813203356,-3.2668598147
 H,0,6.908957385,1.5569819831,-3.5166966997
 H,0,6.2341233443,0.1996669968,-2.7426740052
 C,0,7.4680661627,-0.1941470332,-4.3203677732
 O,0,3.222922732,0.4654505203,-6.9517833406
 Recover connectivity data from disk.
                           ----------------------------
                           !    Current Parameters    !
                           ! (Angstroms and Degrees)  !
 --------------------------                            --------------------------
 ! Name  Definition              Value                                          !
 --------------------------------------------------------------------------------
 ! R1    R(1,2)                  1.0234                                         !
 ! R2    R(1,3)                  1.0239                                         !
 ! R3    R(1,4)                  1.0747                                         !
 ! R4    R(1,5)                  1.5183                                         !
 ! R5    R(5,6)                  1.0928                                         !
 ! R6    R(5,7)                  1.5595                                         !
 ! R7    R(5,8)                  1.5282                                         !
 ! R8    R(7,12)                 1.245                                          !
 ! R9    R(7,13)                 1.3204                                         !
 ! R10   R(8,9)                  1.0935                                         !
 ! R11   R(8,10)                 1.0948                                         !
 ! R12   R(8,11)                 1.0956                                         !
 ! R13   R(13,14)                1.0268                                         !
 ! R14   R(13,15)                1.466                                          !
 ! R15   R(15,16)                1.0953                                         !
 ! R16   R(15,17)                1.5499                                         !
 ! R17   R(15,18)                1.5593                                         !
 ! R18   R(17,21)                1.2388                                         !
 ! R19   R(17,37)                1.3405                                         !
 ! R20   R(18,19)                1.096                                          !
 ! R21   R(18,20)                1.0964                                         !
 ! R22   R(18,22)                1.5001                                         !
 ! R23   R(22,23)                1.3766                                         !
 ! R24   R(22,25)                1.4459                                         !
 ! R25   R(23,24)                1.0806                                         !
 ! R26   R(23,29)                1.3751                                         !
 ! R27   R(25,26)                1.4211                                         !
 ! R28   R(25,27)                1.4071                                         !
 ! R29   R(26,29)                1.3818                                         !
 ! R30   R(26,33)                1.3985                                         !
 ! R31   R(27,28)                1.0873                                         !
 ! R32   R(27,35)                1.3893                                         !
 ! R33   R(29,30)                1.0085                                         !
 ! R34   R(31,32)                1.0861                                         !
 ! R35   R(31,33)                1.3898                                         !
 ! R36   R(31,35)                1.41                                           !
 ! R37   R(33,34)                1.0865                                         !
 ! R38   R(35,36)                1.0864                                         !
 ! R39   R(37,38)                1.0189                                         !
 ! R40   R(37,39)                1.4548                                         !
 ! R41   R(39,40)                1.0945                                         !
 ! R42   R(39,41)                1.5307                                         !
 ! R43   R(39,42)                1.5626                                         !
 ! R44   R(41,45)                1.2307                                         !
 ! R45   R(41,48)                1.3615                                         !
 ! R46   R(42,43)                1.0983                                         !
 ! R47   R(42,44)                1.0943                                         !
 ! R48   R(42,46)                1.4111                                         !
 ! R49   R(46,47)                0.9831                                         !
 ! R50   R(48,49)                1.0177                                         !
 ! R51   R(48,50)                1.4604                                         !
 ! R52   R(50,51)                1.0949                                         !
 ! R53   R(50,52)                1.5476                                         !
 ! R54   R(50,53)                1.5526                                         !
 ! R55   R(52,55)                1.2395                                         !
 ! R56   R(52,64)                1.3441                                         !
 ! R57   R(53,54)                1.1005                                         !
 ! R58   R(53,56)                1.536                                          !
 ! R59   R(53,60)                1.5368                                         !
 ! R60   R(56,57)                1.098                                          !
 ! R61   R(56,58)                1.0948                                         !
 ! R62   R(56,59)                1.0936                                         !
 ! R63   R(60,61)                1.0974                                         !
 ! R64   R(60,62)                1.0952                                         !
 ! R65   R(60,63)                1.0935                                         !
 ! R66   R(64,65)                1.0152                                         !
 ! R67   R(64,66)                1.4557                                         !
 ! R68   R(66,67)                1.0957                                         !
 ! R69   R(66,68)                1.5373                                         !
 ! R70   R(66,69)                1.5417                                         !
 ! R71   R(68,73)                1.2384                                         !
 ! R72   R(68,74)                1.3507                                         !
 ! R73   R(69,70)                1.0949                                         !
 ! R74   R(69,71)                1.0947                                         !
 ! R75   R(69,72)                1.0925                                         !
 ! R76   R(74,75)                1.0163                                         !
 ! R77   R(74,76)                1.4579                                         !
 ! R78   R(76,77)                1.0832                                         !
 ! R79   R(76,78)                1.54                                           !
 ! R80   R(76,79)                1.5488                                         !
 ! R81   R(78,82)                1.3269                                         !
 ! R82   R(78,98)                1.2161                                         !
 ! R83   R(79,80)                1.0967                                         !
 ! R84   R(79,81)                1.0963                                         !
 ! R85   R(79,83)                1.5419                                         !
 ! R86   R(83,84)                1.0979                                         !
 ! R87   R(83,85)                1.098                                          !
 ! R88   R(83,86)                1.5434                                         !
 ! R89   R(86,87)                1.0958                                         !
 ! R90   R(86,88)                1.0948                                         !
 ! R91   R(86,89)                1.4615                                         !
 ! R92   R(89,90)                1.0117                                         !
 ! R93   R(89,97)                1.3729                                         !
 ! R94   R(91,92)                1.7578                                         !
 ! R95   R(91,93)                1.0196                                         !
 ! R96   R(91,97)                1.3023                                         !
 ! R97   R(94,95)                1.013                                          !
 ! R98   R(94,96)                1.0172                                         !
 ! R99   R(94,97)                1.3834                                         !
 ! A1    A(2,1,3)              108.5612                                         !
 ! A2    A(2,1,4)              109.815                                          !
 ! A3    A(2,1,5)              113.6109                                         !
 ! A4    A(3,1,4)              110.72                                           !
 ! A5    A(3,1,5)              113.0951                                         !
 ! A6    A(4,1,5)              100.8435                                         !
 ! A7    A(1,5,6)              107.6781                                         !
 ! A8    A(1,5,7)              102.2532                                         !
 ! A9    A(1,5,8)              111.1997                                         !
 ! A10   A(6,5,7)              110.4004                                         !
 ! A11   A(6,5,8)              111.1083                                         !
 ! A12   A(7,5,8)              113.725                                          !
 ! A13   A(5,7,12)             116.919                                          !
 ! A14   A(5,7,13)             116.4368                                         !
 ! A15   A(12,7,13)            126.6439                                         !
 ! A16   A(5,8,9)              109.8788                                         !
 ! A17   A(5,8,10)             111.2037                                         !
 ! A18   A(5,8,11)             111.1705                                         !
 ! A19   A(9,8,10)             107.483                                          !
 ! A20   A(9,8,11)             107.5751                                         !
 ! A21   A(10,8,11)            109.3929                                         !
 ! A22   A(7,13,14)            123.0023                                         !
 ! A23   A(7,13,15)            125.4871                                         !
 ! A24   A(14,13,15)           110.7047                                         !
 ! A25   A(13,15,16)           108.7014                                         !
 ! A26   A(13,15,17)           103.1704                                         !
 ! A27   A(13,15,18)           112.4225                                         !
 ! A28   A(16,15,17)           109.7396                                         !
 ! A29   A(16,15,18)           108.6037                                         !
 ! A30   A(17,15,18)           114.0188                                         !
 ! A31   A(15,17,21)           119.2695                                         !
 ! A32   A(15,17,37)           116.8715                                         !
 ! A33   A(21,17,37)           123.859                                          !
 ! A34   A(15,18,19)           109.1566                                         !
 ! A35   A(15,18,20)           106.7727                                         !
 ! A36   A(15,18,22)           113.11                                           !
 ! A37   A(19,18,20)           106.9607                                         !
 ! A38   A(19,18,22)           111.12                                           !
 ! A39   A(20,18,22)           109.4492                                         !
 ! A40   A(18,22,23)           127.4137                                         !
 ! A41   A(18,22,25)           126.0945                                         !
 ! A42   A(23,22,25)           106.4888                                         !
 ! A43   A(22,23,24)           129.8122                                         !
 ! A44   A(22,23,29)           109.8561                                         !
 ! A45   A(24,23,29)           120.3278                                         !
 ! A46   A(22,25,26)           106.9558                                         !
 ! A47   A(22,25,27)           134.0782                                         !
 ! A48   A(26,25,27)           118.9643                                         !
 ! A49   A(25,26,29)           107.1906                                         !
 ! A50   A(25,26,33)           122.3169                                         !
 ! A51   A(29,26,33)           130.4909                                         !
 ! A52   A(25,27,28)           120.6433                                         !
 ! A53   A(25,27,35)           118.8436                                         !
 ! A54   A(28,27,35)           120.512                                          !
 ! A55   A(23,29,26)           109.5026                                         !
 ! A56   A(23,29,30)           124.5717                                         !
 ! A57   A(26,29,30)           125.59                                           !
 ! A58   A(32,31,33)           119.3361                                         !
 ! A59   A(32,31,35)           119.4119                                         !
 ! A60   A(33,31,35)           121.2513                                         !
 ! A61   A(26,33,31)           117.4262                                         !
 ! A62   A(26,33,34)           121.3986                                         !
 ! A63   A(31,33,34)           121.175                                          !
 ! A64   A(27,35,31)           121.194                                          !
 ! A65   A(27,35,36)           119.6589                                         !
 ! A66   A(31,35,36)           119.1467                                         !
 ! A67   A(17,37,38)           121.0519                                         !
 ! A68   A(17,37,39)           122.3931                                         !
 ! A69   A(38,37,39)           115.9188                                         !
 ! A70   A(37,39,40)           109.1795                                         !
 ! A71   A(37,39,41)           107.9558                                         !
 ! A72   A(37,39,42)           111.0216                                         !
 ! A73   A(40,39,41)           110.8265                                         !
 ! A74   A(40,39,42)           107.6461                                         !
 ! A75   A(41,39,42)           110.2227                                         !
 ! A76   A(39,41,45)           121.8988                                         !
 ! A77   A(39,41,48)           113.9469                                         !
 ! A78   A(45,41,48)           124.1066                                         !
 ! A79   A(39,42,43)           108.6512                                         !
 ! A80   A(39,42,44)           107.1202                                         !
 ! A81   A(39,42,46)           112.2756                                         !
 ! A82   A(43,42,44)           108.4539                                         !
 ! A83   A(43,42,46)           111.9641                                         !
 ! A84   A(44,42,46)           108.1945                                         !
 ! A85   A(42,46,47)           107.7737                                         !
 ! A86   A(41,48,49)           113.9672                                         !
 ! A87   A(41,48,50)           120.4138                                         !
 ! A88   A(49,48,50)           115.1821                                         !
 ! A89   A(48,50,51)           107.7265                                         !
 ! A90   A(48,50,52)           108.0563                                         !
 ! A91   A(48,50,53)           109.5814                                         !
 ! A92   A(51,50,52)           109.2402                                         !
 ! A93   A(51,50,53)           109.5892                                         !
 ! A94   A(52,50,53)           112.5217                                         !
 ! A95   A(50,52,55)           121.375                                          !
 ! A96   A(50,52,64)           116.3527                                         !
 ! A97   A(55,52,64)           122.2711                                         !
 ! A98   A(50,53,54)           106.7348                                         !
 ! A99   A(50,53,56)           112.5061                                         !
 ! A100  A(50,53,60)           110.6278                                         !
 ! A101  A(54,53,56)           107.8261                                         !
 ! A102  A(54,53,60)           108.6346                                         !
 ! A103  A(56,53,60)           110.3359                                         !
 ! A104  A(53,56,57)           111.211                                          !
 ! A105  A(53,56,58)           109.7602                                         !
 ! A106  A(53,56,59)           112.6415                                         !
 ! A107  A(57,56,58)           107.3194                                         !
 ! A108  A(57,56,59)           108.0705                                         !
 ! A109  A(58,56,59)           107.6313                                         !
 ! A110  A(53,60,61)           110.7386                                         !
 ! A111  A(53,60,62)           110.1957                                         !
 ! A112  A(53,60,63)           112.126                                          !
 ! A113  A(61,60,62)           107.7035                                         !
 ! A114  A(61,60,63)           107.8186                                         !
 ! A115  A(62,60,63)           108.1047                                         !
 ! A116  A(52,64,65)           121.8754                                         !
 ! A117  A(52,64,66)           123.4672                                         !
 ! A118  A(65,64,66)           114.5843                                         !
 ! A119  A(64,66,67)           108.4434                                         !
 ! A120  A(64,66,68)           106.6218                                         !
 ! A121  A(64,66,69)           111.9879                                         !
 ! A122  A(67,66,68)           109.8896                                         !
 ! A123  A(67,66,69)           109.0176                                         !
 ! A124  A(68,66,69)           110.8265                                         !
 ! A125  A(66,68,73)           120.6258                                         !
 ! A126  A(66,68,74)           115.1578                                         !
 ! A127  A(73,68,74)           124.2129                                         !
 ! A128  A(66,69,70)           111.2292                                         !
 ! A129  A(66,69,71)           110.357                                          !
 ! A130  A(66,69,72)           109.1585                                         !
 ! A131  A(70,69,71)           108.4217                                         !
 ! A132  A(70,69,72)           108.6527                                         !
 ! A133  A(71,69,72)           108.9746                                         !
 ! A134  A(68,74,75)           119.0077                                         !
 ! A135  A(68,74,76)           122.3587                                         !
 ! A136  A(75,74,76)           113.5798                                         !
 ! A137  A(74,76,77)           105.9642                                         !
 ! A138  A(74,76,78)           108.1667                                         !
 ! A139  A(74,76,79)           112.4982                                         !
 ! A140  A(77,76,78)           108.6905                                         !
 ! A141  A(77,76,79)           110.8061                                         !
 ! A142  A(78,76,79)           110.5325                                         !
 ! A143  A(76,78,82)           116.1902                                         !
 ! A144  A(76,78,98)           120.7384                                         !
 ! A145  A(82,78,98)           123.0551                                         !
 ! A146  A(76,79,80)           107.0732                                         !
 ! A147  A(76,79,81)           108.7512                                         !
 ! A148  A(76,79,83)           115.5401                                         !
 ! A149  A(80,79,81)           106.0786                                         !
 ! A150  A(80,79,83)           109.4871                                         !
 ! A151  A(81,79,83)           109.4776                                         !
 ! A152  A(79,83,84)           110.0811                                         !
 ! A153  A(79,83,85)           108.0906                                         !
 ! A154  A(79,83,86)           116.0224                                         !
 ! A155  A(84,83,85)           106.2773                                         !
 ! A156  A(84,83,86)           109.465                                          !
 ! A157  A(85,83,86)           106.3966                                         !
 ! A158  A(83,86,87)           109.8787                                         !
 ! A159  A(83,86,88)           109.052                                          !
 ! A160  A(83,86,89)           116.2057                                         !
 ! A161  A(87,86,88)           105.8131                                         !
 ! A162  A(87,86,89)           108.8076                                         !
 ! A163  A(88,86,89)           106.5457                                         !
 ! A164  A(86,89,90)           116.0347                                         !
 ! A165  A(86,89,97)           123.8441                                         !
 ! A166  A(90,89,97)           115.2142                                         !
 ! A167  A(92,91,93)           107.7651                                         !
 ! A168  A(92,91,97)           116.0818                                         !
 ! A169  A(93,91,97)           111.5432                                         !
 ! A170  A(95,94,96)           113.9288                                         !
 ! A171  A(95,94,97)           112.771                                          !
 ! A172  A(96,94,97)           115.6478                                         !
 ! A173  A(89,97,91)           126.6637                                         !
 ! A174  A(89,97,94)           113.6542                                         !
 ! A175  A(91,97,94)           119.6795                                         !
 ! D1    D(2,1,5,6)              4.1959                                         !
 ! D2    D(2,1,5,7)           -112.1381                                         !
 ! D3    D(2,1,5,8)            126.1364                                         !
 ! D4    D(3,1,5,6)           -120.1418                                         !
 ! D5    D(3,1,5,7)            123.5242                                         !
 ! D6    D(3,1,5,8)              1.7988                                         !
 ! D7    D(4,1,5,6)            121.6094                                         !
 ! D8    D(4,1,5,7)              5.2753                                         !
 ! D9    D(4,1,5,8)           -116.4501                                         !
 ! D10   D(1,5,7,12)            -5.5184                                         !
 ! D11   D(1,5,7,13)           174.6544                                         !
 ! D12   D(6,5,7,12)          -119.8686                                         !
 ! D13   D(6,5,7,13)            60.3042                                         !
 ! D14   D(8,5,7,12)           114.459                                          !
 ! D15   D(8,5,7,13)           -65.3682                                         !
 ! D16   D(1,5,8,9)            178.339                                          !
 ! D17   D(1,5,8,10)           -62.7842                                         !
 ! D18   D(1,5,8,11)            59.3685                                         !
 ! D19   D(6,5,8,9)            -61.7359                                         !
 ! D20   D(6,5,8,10)            57.1409                                         !
 ! D21   D(6,5,8,11)           179.2937                                         !
 ! D22   D(7,5,8,9)             63.5602                                         !
 ! D23   D(7,5,8,10)          -177.563                                          !
 ! D24   D(7,5,8,11)           -55.4102                                         !
 ! D25   D(5,7,13,14)            6.3099                                         !
 ! D26   D(5,7,13,15)          175.0601                                         !
 ! D27   D(12,7,13,14)        -173.498                                          !
 ! D28   D(12,7,13,15)          -4.7479                                         !
 ! D29   D(7,13,15,16)         -45.9446                                         !
 ! D30   D(7,13,15,17)        -162.3945                                         !
 ! D31   D(7,13,15,18)          74.3223                                         !
 ! D32   D(14,13,15,16)        123.9822                                         !
 ! D33   D(14,13,15,17)          7.5323                                         !
 ! D34   D(14,13,15,18)       -115.7509                                         !
 ! D35   D(13,15,17,21)         -2.8299                                         !
 ! D36   D(13,15,17,37)        177.1977                                         !
 ! D37   D(16,15,17,21)       -118.5404                                         !
 ! D38   D(16,15,17,37)         61.4872                                         !
 ! D39   D(18,15,17,21)        119.3886                                         !
 ! D40   D(18,15,17,37)        -60.5838                                         !
 ! D41   D(13,15,18,19)         76.1031                                         !
 ! D42   D(13,15,18,20)        -39.1895                                         !
 ! D43   D(13,15,18,22)       -159.6355                                         !
 ! D44   D(16,15,18,19)       -163.5736                                         !
 ! D45   D(16,15,18,20)         81.1338                                         !
 ! D46   D(16,15,18,22)        -39.3122                                         !
 ! D47   D(17,15,18,19)        -40.8799                                         !
 ! D48   D(17,15,18,20)       -156.1724                                         !
 ! D49   D(17,15,18,22)         83.3815                                         !
 ! D50   D(15,17,37,38)          7.3668                                         !
 ! D51   D(15,17,37,39)        177.8482                                         !
 ! D52   D(21,17,37,38)       -172.6043                                         !
 ! D53   D(21,17,37,39)         -2.1229                                         !
 ! D54   D(15,18,22,23)       -108.9792                                         !
 ! D55   D(15,18,22,25)         71.7416                                         !
 ! D56   D(19,18,22,23)         14.2035                                         !
 ! D57   D(19,18,22,25)       -165.0757                                         !
 ! D58   D(20,18,22,23)        132.111                                          !
 ! D59   D(20,18,22,25)        -47.1683                                         !
 ! D60   D(18,22,23,24)          1.599                                          !
 ! D61   D(18,22,23,29)       -179.1354                                         !
 ! D62   D(25,22,23,24)       -179.0083                                         !
 ! D63   D(25,22,23,29)          0.2572                                         !
 ! D64   D(18,22,25,26)        179.6488                                         !
 ! D65   D(18,22,25,27)          0.1386                                         !
 ! D66   D(23,22,25,26)          0.2458                                         !
 ! D67   D(23,22,25,27)       -179.2644                                         !
 ! D68   D(22,23,29,26)         -0.685                                          !
 ! D69   D(22,23,29,30)       -174.3398                                         !
 ! D70   D(24,23,29,26)        178.6614                                         !
 ! D71   D(24,23,29,30)          5.0066                                         !
 ! D72   D(22,25,26,29)         -0.6496                                         !
 ! D73   D(22,25,26,33)        179.7759                                         !
 ! D74   D(27,25,26,29)        178.9482                                         !
 ! D75   D(27,25,26,33)         -0.6263                                         !
 ! D76   D(22,25,27,28)          0.4674                                         !
 ! D77   D(22,25,27,35)       -179.9232                                         !
 ! D78   D(26,25,27,28)       -178.9971                                         !
 ! D79   D(26,25,27,35)          0.6123                                         !
 ! D80   D(25,26,29,23)          0.823                                          !
 ! D81   D(25,26,29,30)        174.3978                                         !
 ! D82   D(33,26,29,23)       -179.6498                                         !
 ! D83   D(33,26,29,30)         -6.075                                          !
 ! D84   D(25,26,33,31)          0.164                                          !
 ! D85   D(25,26,33,34)        179.9976                                         !
 ! D86   D(29,26,33,31)       -179.3015                                         !
 ! D87   D(29,26,33,34)          0.5321                                         !
 ! D88   D(25,27,35,31)         -0.1686                                         !
 ! D89   D(25,27,35,36)       -179.9643                                         !
 ! D90   D(28,27,35,31)        179.4414                                         !
 ! D91   D(28,27,35,36)         -0.3544                                         !
 ! D92   D(32,31,33,26)       -179.994                                          !
 ! D93   D(32,31,33,34)          0.1719                                         !
 ! D94   D(35,31,33,26)          0.3007                                         !
 ! D95   D(35,31,33,34)       -179.5333                                         !
 ! D96   D(32,31,35,27)        179.9911                                         !
 ! D97   D(32,31,35,36)         -0.2122                                         !
 ! D98   D(33,31,35,27)         -0.3039                                         !
 ! D99   D(33,31,35,36)        179.4929                                         !
 ! D100  D(17,37,39,40)        -33.6892                                         !
 ! D101  D(17,37,39,41)       -154.2483                                         !
 ! D102  D(17,37,39,42)         84.8335                                         !
 ! D103  D(38,37,39,40)        137.2482                                         !
 ! D104  D(38,37,39,41)         16.689                                          !
 ! D105  D(38,37,39,42)       -104.2292                                         !
 ! D106  D(37,39,41,45)        -14.1263                                         !
 ! D107  D(37,39,41,48)        168.2884                                         !
 ! D108  D(40,39,41,45)       -133.6486                                         !
 ! D109  D(40,39,41,48)         48.7661                                         !
 ! D110  D(42,39,41,45)        107.289                                          !
 ! D111  D(42,39,41,48)        -70.2963                                         !
 ! D112  D(37,39,42,43)         56.875                                          !
 ! D113  D(37,39,42,44)        -60.0964                                         !
 ! D114  D(37,39,42,46)       -178.7326                                         !
 ! D115  D(40,39,42,43)        176.3192                                         !
 ! D116  D(40,39,42,44)         59.3478                                         !
 ! D117  D(40,39,42,46)        -59.2884                                         !
 ! D118  D(41,39,42,43)        -62.6976                                         !
 ! D119  D(41,39,42,44)       -179.669                                          !
 ! D120  D(41,39,42,46)         61.6948                                         !
 ! D121  D(39,41,48,49)         12.8874                                         !
 ! D122  D(39,41,48,50)        156.1037                                         !
 ! D123  D(45,41,48,49)       -164.6366                                         !
 ! D124  D(45,41,48,50)        -21.4204                                         !
 ! D125  D(39,42,46,47)        -92.0889                                         !
 ! D126  D(43,42,46,47)         30.4484                                         !
 ! D127  D(44,42,46,47)        149.9095                                         !
 ! D128  D(41,48,50,51)         51.4748                                         !
 ! D129  D(41,48,50,52)        -66.4351                                         !
 ! D130  D(41,48,50,53)        170.6379                                         !
 ! D131  D(49,48,50,51)       -165.7275                                         !
 ! D132  D(49,48,50,52)         76.3626                                         !
 ! D133  D(49,48,50,53)        -46.5643                                         !
 ! D134  D(48,50,52,55)        -33.9078                                         !
 ! D135  D(48,50,52,64)        146.4874                                         !
 ! D136  D(51,50,52,55)       -150.8425                                         !
 ! D137  D(51,50,52,64)         29.5527                                         !
 ! D138  D(53,50,52,55)         87.2094                                         !
 ! D139  D(53,50,52,64)        -92.3954                                         !
 ! D140  D(48,50,53,54)         59.2184                                         !
 ! D141  D(48,50,53,56)        177.2918                                         !
 ! D142  D(48,50,53,60)        -58.7966                                         !
 ! D143  D(51,50,53,54)        177.2272                                         !
 ! D144  D(51,50,53,56)        -64.6993                                         !
 ! D145  D(51,50,53,60)         59.2122                                         !
 ! D146  D(52,50,53,54)        -61.0227                                         !
 ! D147  D(52,50,53,56)         57.0508                                         !
 ! D148  D(52,50,53,60)       -179.0377                                         !
 ! D149  D(50,52,64,65)          0.6954                                         !
 ! D150  D(50,52,64,66)        177.417                                          !
 ! D151  D(55,52,64,65)       -178.9055                                         !
 ! D152  D(55,52,64,66)         -2.184                                          !
 ! D153  D(50,53,56,57)         59.7749                                         !
 ! D154  D(50,53,56,58)        178.3774                                         !
 ! D155  D(50,53,56,59)        -61.7179                                         !
 ! D156  D(54,53,56,57)        177.2031                                         !
 ! D157  D(54,53,56,58)        -64.1944                                         !
 ! D158  D(54,53,56,59)         55.7103                                         !
 ! D159  D(60,53,56,57)        -64.2983                                         !
 ! D160  D(60,53,56,58)         54.3042                                         !
 ! D161  D(60,53,56,59)        174.2089                                         !
 ! D162  D(50,53,60,61)        -64.1642                                         !
 ! D163  D(50,53,60,62)        176.7748                                         !
 ! D164  D(50,53,60,63)         56.3111                                         !
 ! D165  D(54,53,60,61)        178.9879                                         !
 ! D166  D(54,53,60,62)         59.9269                                         !
 ! D167  D(54,53,60,63)        -60.5368                                         !
 ! D168  D(56,53,60,61)         60.9848                                         !
 ! D169  D(56,53,60,62)        -58.0761                                         !
 ! D170  D(56,53,60,63)       -178.5399                                         !
 ! D171  D(52,64,66,67)        -42.1901                                         !
 ! D172  D(52,64,66,68)       -160.4731                                         !
 ! D173  D(52,64,66,69)         78.1484                                         !
 ! D174  D(65,64,66,67)        134.7485                                         !
 ! D175  D(65,64,66,68)         16.4655                                         !
 ! D176  D(65,64,66,69)       -104.913                                          !
 ! D177  D(64,66,68,73)        -17.0487                                         !
 ! D178  D(64,66,68,74)        163.6035                                         !
 ! D179  D(67,66,68,73)       -134.3785                                         !
 ! D180  D(67,66,68,74)         46.2736                                         !
 ! D181  D(69,66,68,73)        105.0657                                         !
 ! D182  D(69,66,68,74)        -74.2821                                         !
 ! D183  D(64,66,69,70)        179.7225                                         !
 ! D184  D(64,66,69,71)         59.3424                                         !
 ! D185  D(64,66,69,72)        -60.3969                                         !
 ! D186  D(67,66,69,70)        -60.2739                                         !
 ! D187  D(67,66,69,71)        179.346                                          !
 ! D188  D(67,66,69,72)         59.6067                                         !
 ! D189  D(68,66,69,70)         60.7982                                         !
 ! D190  D(68,66,69,71)        -59.5819                                         !
 ! D191  D(68,66,69,72)       -179.3212                                         !
 ! D192  D(66,68,74,75)         11.6716                                         !
 ! D193  D(66,68,74,76)        164.9009                                         !
 ! D194  D(73,68,74,75)       -167.6498                                         !
 ! D195  D(73,68,74,76)        -14.4205                                         !
 ! D196  D(68,74,76,77)         -4.9084                                         !
 ! D197  D(68,74,76,78)       -121.3104                                         !
 ! D198  D(68,74,76,79)        116.3148                                         !
 ! D199  D(75,74,76,77)        149.6365                                         !
 ! D200  D(75,74,76,78)         33.2345                                         !
 ! D201  D(75,74,76,79)        -89.1404                                         !
 ! D202  D(74,76,78,82)        158.2764                                         !
 ! D203  D(74,76,78,98)        -23.145                                          !
 ! D204  D(77,76,78,82)         43.657                                          !
 ! D205  D(77,76,78,98)       -137.7644                                         !
 ! D206  D(79,76,78,82)        -78.1541                                         !
 ! D207  D(79,76,78,98)        100.4245                                         !
 ! D208  D(74,76,79,80)         45.2454                                         !
 ! D209  D(74,76,79,81)        159.4644                                         !
 ! D210  D(74,76,79,83)        -76.9985                                         !
 ! D211  D(77,76,79,80)        163.6595                                         !
 ! D212  D(77,76,79,81)        -82.1214                                         !
 ! D213  D(77,76,79,83)         41.4157                                         !
 ! D214  D(78,76,79,80)        -75.7843                                         !
 ! D215  D(78,76,79,81)         38.4347                                         !
 ! D216  D(78,76,79,83)        161.9718                                         !
 ! D217  D(76,79,83,84)         41.4698                                         !
 ! D218  D(76,79,83,85)        157.1514                                         !
 ! D219  D(76,79,83,86)        -83.5113                                         !
 ! D220  D(80,79,83,84)        -79.4776                                         !
 ! D221  D(80,79,83,85)         36.204                                          !
 ! D222  D(80,79,83,86)        155.5414                                         !
 ! D223  D(81,79,83,84)        164.6243                                         !
 ! D224  D(81,79,83,85)        -79.6941                                         !
 ! D225  D(81,79,83,86)         39.6433                                         !
 ! D226  D(79,83,86,87)        -52.5284                                         !
 ! D227  D(79,83,86,88)       -168.0865                                         !
 ! D228  D(79,83,86,89)         71.531                                          !
 ! D229  D(84,83,86,87)       -177.8242                                         !
 ! D230  D(84,83,86,88)         66.6178                                         !
 ! D231  D(84,83,86,89)        -53.7648                                         !
 ! D232  D(85,83,86,87)         67.7272                                         !
 ! D233  D(85,83,86,88)        -47.8309                                         !
 ! D234  D(85,83,86,89)       -168.2134                                         !
 ! D235  D(83,86,89,90)         78.9735                                         !
 ! D236  D(83,86,89,97)        -74.9738                                         !
 ! D237  D(87,86,89,90)       -156.4166                                         !
 ! D238  D(87,86,89,97)         49.6361                                         !
 ! D239  D(88,86,89,90)        -42.7456                                         !
 ! D240  D(88,86,89,97)        163.3071                                         !
 ! D241  D(86,89,97,91)        -28.5556                                         !
 ! D242  D(86,89,97,94)        150.8466                                         !
 ! D243  D(90,89,97,91)        177.3054                                         !
 ! D244  D(90,89,97,94)         -3.2923                                         !
 ! D245  D(92,91,97,89)        110.9231                                         !
 ! D246  D(92,91,97,94)        -68.4467                                         !
 ! D247  D(93,91,97,89)        -13.0269                                         !
 ! D248  D(93,91,97,94)        167.6033                                         !
 ! D249  D(95,94,97,89)        178.3876                                         !
 ! D250  D(95,94,97,91)         -2.1643                                         !
 ! D251  D(96,94,97,89)        -48.0208                                         !
 ! D252  D(96,94,97,91)        131.4273                                         !
 --------------------------------------------------------------------------------
 Symmetry turned off by external request.
 Stoichiometry    C31H49N10O8(1+)
 Framework group  C1[X(C31H49N10O8)]
 Deg. of freedom   288
 Full point group                 C1      NOp   1
                          Input orientation:                          
 ---------------------------------------------------------------------
 Center     Atomic      Atomic             Coordinates (Angstroms)
 Number     Number       Type             X           Y           Z
 ---------------------------------------------------------------------
      1          7           0       -7.759488    4.337352    5.165366
      2          1           0       -7.791639    4.594388    6.155390
      3          1           0       -8.688177    4.484479    4.760117
      4          1           0       -7.024179    4.934392    4.657684
      5          6           0       -7.215470    2.941812    4.916759
      6          1           0       -7.040055    2.475874    5.889510
      7          6           0       -5.860575    3.237011    4.203146
      8          6           0       -8.185252    2.112288    4.076062
      9          1           0       -7.759856    1.123168    3.885459
     10          1           0       -9.136611    1.966197    4.597837
     11          1           0       -8.371554    2.584930    3.105381
     12          8           0       -5.616862    4.426061    3.925915
     13          7           0       -5.089453    2.195137    3.951550
     14          1           0       -5.386724    1.226344    4.117141
     15          6           0       -3.829469    2.229911    3.202931
     16          1           0       -3.976104    2.826401    2.296125
     17          6           0       -3.604077    0.744628    2.821736
     18          6           0       -2.664512    2.857239    4.028041
     19          1           0       -2.313351    2.127614    4.766664
     20          1           0       -3.090218    3.698825    4.587172
     21          8           0       -4.404843   -0.111649    3.222022
     22          6           0       -1.533953    3.346958    3.172226
     23          6           0       -0.276944    2.798564    3.052903
     24          1           0        0.139651    1.915758    3.516450
     25          6           0       -1.556862    4.511137    2.315020
     26          6           0       -0.277208    4.600758    1.703468
     27          6           0       -2.525996    5.485601    2.013333
     28          1           0       -3.508422    5.452615    2.478032
     29          7           0        0.479601    3.549290    2.183999
     30          1           0        1.406493    3.302690    1.872314
     31          6           0       -0.929925    6.559934    0.514745
     32          1           0       -0.708788    7.362978   -0.182247
     33          6           0        0.050462    5.617373    0.800802
     34          1           0        1.033816    5.671623    0.341881
     35          6           0       -2.203365    6.496655    1.116786
     36          1           0       -2.941404    7.256247    0.874757
     37          7           0       -2.532168    0.469157    2.065466
     38          1           0       -1.840776    1.186627    1.852561
     39          6           0       -2.180869   -0.887859    1.676308
     40          1           0       -2.456778   -1.575723    2.481689
     41          6           0       -0.672693   -0.929243    1.418055
     42          6           0       -2.960603   -1.322874    0.393921
     43          1           0       -2.746833   -0.603550   -0.408076
     44          1           0       -4.027348   -1.269426    0.631889
     45          8           0       -0.005872    0.097557    1.293243
     46          8           0       -2.660826   -2.646975    0.009027
     47          1           0       -1.916649   -2.611854   -0.632469
     48          7           0       -0.168095   -2.187368    1.291113
     49          1           0       -0.877794   -2.907961    1.178018
     50          6           0        1.072159   -2.415676    0.554615
     51          1           0        1.827051   -1.729430    0.952084
     52          6           0        0.813951   -2.082784   -0.934589
     53          6           0        1.539400   -3.881468    0.763997
     54          1           0        0.728556   -4.528149    0.396032
     55          8           0       -0.286766   -2.297636   -1.462417
     56          6           0        2.806901   -4.214679   -0.037139
     57          1           0        3.642436   -3.563811    0.252404
     58          1           0        3.112167   -5.246429    0.165269
     59          1           0        2.660150   -4.118360   -1.116590
     60          6           0        1.759617   -4.171481    2.257013
     61          1           0        2.575723   -3.555955    2.656182
     62          1           0        2.033317   -5.221973    2.401753
     63          1           0        0.865176   -3.968228    2.852363
     64          7           0        1.847088   -1.559587   -1.616810
     65          1           0        2.751027   -1.401222   -1.182670
     66          6           0        1.792554   -1.240173   -3.036004
     67          1           0        1.275237   -2.054776   -3.555036
     68          6           0        3.247954   -1.150751   -3.522862
     69          6           0        1.043440    0.080781   -3.302000
     70          1           0        1.014053    0.311388   -4.371960
     71          1           0        1.536168    0.909179   -2.782977
     72          1           0        0.018127   -0.008419   -2.935498
     73          8           0        4.177153   -1.024849   -2.713981
     74          7           0        3.409629   -1.205844   -4.862677
     75          1           0        2.593090   -1.119528   -5.461578
     76          6           0        4.654755   -0.819087   -5.514915
     77          1           0        5.293964   -0.431826   -4.730899
     78          6           0        4.344628    0.318329   -6.505675
     79          6           0        5.334847   -2.004241   -6.244041
     80          1           0        4.551629   -2.530816   -6.802603
     81          1           0        6.027330   -1.605605   -6.994698
     82          8           0        5.368187    1.088307   -6.852405
     83          6           0        6.079920   -3.003735   -5.336591
     84          1           0        5.492658   -3.199870   -4.429877
     85          1           0        6.151339   -3.960793   -5.870020
     86          6           0        7.520894   -2.616155   -4.942244
     87          1           0        8.102640   -2.381217   -5.840622
     88          1           0        8.011977   -3.482188   -4.486841
     89          7           0        7.655652   -1.513956   -3.992058
     90          1           0        7.494302   -1.743417   -3.020021
     91          7           0        7.660083    0.351834   -5.486944
     92          1           0        6.217282    0.885721   -6.337244
     93          1           0        8.176882   -0.268144   -6.110001
     94          7           0        7.017887    0.581320   -3.266860
     95          1           0        6.908957    1.556982   -3.516697
     96          1           0        6.234123    0.199667   -2.742674
     97          6           0        7.468066   -0.194147   -4.320368
     98          8           0        3.222923    0.465451   -6.951783
 ---------------------------------------------------------------------
 Rotational constants (GHZ):           0.0958486           0.0220679           0.0197927
 Standard basis: 6-31G(d) (6D, 7F)
   833 basis functions,  1568 primitive gaussians,   833 cartesian basis functions
   184 alpha electrons      184 beta electrons
       nuclear repulsion energy      6418.9033683860 Hartrees.
 NAtoms=   98 NActive=   98 NUniq=   98 SFac= 1.00D+00 NAtFMM=   60 NAOKFM=T Big=T
 Integral buffers will be    131072 words long.
 Raffenetti 2 integral format.
 Two-electron integral symmetry is turned off.
 One-electron integrals computed using PRISM.
 NBasis=   833 RedAO= T EigKep=  3.66D-04  NBF=   833
 NBsUse=   833 1.00D-06 EigRej= -1.00D+00 NBFU=   833
 Initial guess from the checkpoint file:  "conf-448.chk"
 B after Tr=     0.000000    0.000000    0.000000
         Rot=    1.000000    0.000000    0.000000    0.000000 Ang=   0.00 deg.
 Requested convergence on RMS density matrix=1.00D-08 within 128 cycles.
 Requested convergence on MAX density matrix=1.00D-06.
 Requested convergence on             energy=1.00D-06.
 No special actions if energy rises.
 SCF Done:  E(RB3LYP) =  -2360.03116217     A.U. after    2 cycles
            NFock=  2  Conv=0.65D-08     -V/T= 2.0094

 **********************************************************************

            Population analysis using the SCF Density.

 **********************************************************************

 Alpha  occ. eigenvalues --  -19.27501 -19.21935 -19.21729 -19.20531 -19.20145
 Alpha  occ. eigenvalues --  -19.20094 -19.19816 -19.17565 -14.60360 -14.49438
 Alpha  occ. eigenvalues --  -14.45222 -14.44827 -14.43643 -14.43303 -14.43248
 Alpha  occ. eigenvalues --  -14.41786 -14.40413 -14.35463 -10.43965 -10.41703
 Alpha  occ. eigenvalues --  -10.38915 -10.36847 -10.36780 -10.36572 -10.36014
 Alpha  occ. eigenvalues --  -10.35189 -10.34392 -10.34216 -10.31100 -10.31049
 Alpha  occ. eigenvalues --  -10.30911 -10.30614 -10.29305 -10.29233 -10.28980
 Alpha  occ. eigenvalues --  -10.28943 -10.28534 -10.27266 -10.25845 -10.25532
 Alpha  occ. eigenvalues --  -10.25272 -10.25241 -10.25224 -10.25045 -10.25026
 Alpha  occ. eigenvalues --  -10.24717 -10.24584 -10.24431 -10.24173  -1.19758
 Alpha  occ. eigenvalues --   -1.14314  -1.13743  -1.13212  -1.12214  -1.11601
 Alpha  occ. eigenvalues --   -1.10835  -1.08073  -1.06205  -1.05279  -1.04840
 Alpha  occ. eigenvalues --   -1.04416  -1.01702  -1.00321  -1.00123  -0.99861
 Alpha  occ. eigenvalues --   -0.95145  -0.93792  -0.90557  -0.90473  -0.89328
 Alpha  occ. eigenvalues --   -0.88170  -0.86407  -0.85260  -0.84059  -0.83290
 Alpha  occ. eigenvalues --   -0.81536  -0.80083  -0.80002  -0.79114  -0.77878
 Alpha  occ. eigenvalues --   -0.76402  -0.75330  -0.74564  -0.74194  -0.73191
 Alpha  occ. eigenvalues --   -0.72733  -0.72332  -0.70320  -0.68813  -0.68226
 Alpha  occ. eigenvalues --   -0.67354  -0.67060  -0.66779  -0.66007  -0.65979
 Alpha  occ. eigenvalues --   -0.65362  -0.64820  -0.64587  -0.63773  -0.63695
 Alpha  occ. eigenvalues --   -0.63341  -0.62362  -0.61240  -0.60775  -0.60343
 Alpha  occ. eigenvalues --   -0.59642  -0.59214  -0.58733  -0.57781  -0.57668
 Alpha  occ. eigenvalues --   -0.56990  -0.56175  -0.56102  -0.55406  -0.54944
 Alpha  occ. eigenvalues --   -0.54900  -0.54598  -0.54462  -0.53966  -0.53700
 Alpha  occ. eigenvalues --   -0.53240  -0.52856  -0.52441  -0.52364  -0.52164
 Alpha  occ. eigenvalues --   -0.51912  -0.51650  -0.50981  -0.50871  -0.50367
 Alpha  occ. eigenvalues --   -0.50186  -0.49935  -0.49493  -0.49342  -0.49276
 Alpha  occ. eigenvalues --   -0.48707  -0.48552  -0.48285  -0.47866  -0.47407
 Alpha  occ. eigenvalues --   -0.47068  -0.47044  -0.46760  -0.46448  -0.46310
 Alpha  occ. eigenvalues --   -0.45932  -0.45662  -0.45240  -0.45101  -0.44957
 Alpha  occ. eigenvalues --   -0.44840  -0.44172  -0.43820  -0.42950  -0.42327
 Alpha  occ. eigenvalues --   -0.42126  -0.41846  -0.41220  -0.41161  -0.41002
 Alpha  occ. eigenvalues --   -0.40842  -0.40210  -0.40086  -0.39845  -0.39548
 Alpha  occ. eigenvalues --   -0.39420  -0.39405  -0.36816  -0.36322  -0.34998
 Alpha  occ. eigenvalues --   -0.34859  -0.34387  -0.34258  -0.34128  -0.33960
 Alpha  occ. eigenvalues --   -0.33502  -0.33052  -0.32670  -0.32156  -0.32015
 Alpha  occ. eigenvalues --   -0.31057  -0.29186  -0.28828  -0.27281
 Alpha virt. eigenvalues --   -0.12672  -0.11600  -0.07886  -0.07366  -0.06700
 Alpha virt. eigenvalues --   -0.06578  -0.05899  -0.04991  -0.04777  -0.03942
 Alpha virt. eigenvalues --   -0.03249  -0.02460  -0.01727  -0.01289  -0.01063
 Alpha virt. eigenvalues --    0.00992   0.01051   0.01222   0.01619   0.01828
 Alpha virt. eigenvalues --    0.02014   0.02314   0.02857   0.03134   0.03206
 Alpha virt. eigenvalues --    0.03662   0.03909   0.04136   0.04643   0.04994
 Alpha virt. eigenvalues --    0.05641   0.06121   0.06427   0.06530   0.06610
 Alpha virt. eigenvalues --    0.06736   0.07538   0.07757   0.08078   0.08318
 Alpha virt. eigenvalues --    0.08543   0.08625   0.08835   0.09059   0.09324
 Alpha virt. eigenvalues --    0.09398   0.09683   0.09932   0.10435   0.10565
 Alpha virt. eigenvalues --    0.10689   0.10896   0.11094   0.11356   0.11731
 Alpha virt. eigenvalues --    0.11883   0.12087   0.12146   0.12389   0.12837
 Alpha virt. eigenvalues --    0.13039   0.13405   0.13667   0.14049   0.14650
 Alpha virt. eigenvalues --    0.14713   0.15140   0.15571   0.15695   0.16226
 Alpha virt. eigenvalues --    0.16306   0.16650   0.16914   0.17023   0.17303
 Alpha virt. eigenvalues --    0.17858   0.18240   0.18529   0.18881   0.19555
 Alpha virt. eigenvalues --    0.19837   0.20030   0.20775   0.21240   0.21494
 Alpha virt. eigenvalues --    0.22055   0.22222   0.23034   0.23664   0.24323
 Alpha virt. eigenvalues --    0.25107   0.26180   0.27549   0.28162   0.28569
 Alpha virt. eigenvalues --    0.28761   0.29066   0.30034   0.31689   0.32247
 Alpha virt. eigenvalues --    0.32627   0.32898   0.34073   0.34450   0.34695
 Alpha virt. eigenvalues --    0.35240   0.36421   0.36755   0.37588   0.39362
 Alpha virt. eigenvalues --    0.39540   0.39798   0.41147   0.41588   0.41968
 Alpha virt. eigenvalues --    0.42505   0.42966   0.43220   0.43653   0.43730
 Alpha virt. eigenvalues --    0.44552   0.45036   0.45578   0.45825   0.45899
 Alpha virt. eigenvalues --    0.46141   0.46329   0.46812   0.47045   0.47321
 Alpha virt. eigenvalues --    0.47794   0.48094   0.48243   0.48856   0.49233
 Alpha virt. eigenvalues --    0.49463   0.49993   0.50528   0.50906   0.51271
 Alpha virt. eigenvalues --    0.51610   0.51737   0.52216   0.52378   0.52476
 Alpha virt. eigenvalues --    0.52918   0.53402   0.53463   0.53983   0.54098
 Alpha virt. eigenvalues --    0.54644   0.54883   0.54922   0.55089   0.55192
 Alpha virt. eigenvalues --    0.55653   0.55894   0.56220   0.56563   0.56967
 Alpha virt. eigenvalues --    0.57066   0.57321   0.58082   0.58211   0.58815
 Alpha virt. eigenvalues --    0.58971   0.59199   0.59698   0.60039   0.60502
 Alpha virt. eigenvalues --    0.60575   0.60770   0.61933   0.62126   0.62431
 Alpha virt. eigenvalues --    0.62680   0.63163   0.63449   0.63739   0.64484
 Alpha virt. eigenvalues --    0.64958   0.65454   0.65702   0.65786   0.66052
 Alpha virt. eigenvalues --    0.66440   0.66709   0.67180   0.67883   0.68188
 Alpha virt. eigenvalues --    0.68758   0.69274   0.69529   0.70106   0.70239
 Alpha virt. eigenvalues --    0.71102   0.71258   0.71634   0.72053   0.72248
 Alpha virt. eigenvalues --    0.72930   0.73111   0.73169   0.73662   0.73980
 Alpha virt. eigenvalues --    0.74437   0.74620   0.74942   0.75252   0.75365
 Alpha virt. eigenvalues --    0.75660   0.76040   0.76270   0.76326   0.76711
 Alpha virt. eigenvalues --    0.76926   0.77550   0.77625   0.78190   0.78233
 Alpha virt. eigenvalues --    0.78534   0.78601   0.78930   0.79238   0.80342
 Alpha virt. eigenvalues --    0.80365   0.80621   0.80853   0.81456   0.81672
 Alpha virt. eigenvalues --    0.81865   0.82023   0.82232   0.82450   0.82613
 Alpha virt. eigenvalues --    0.82950   0.83355   0.83529   0.83739   0.84162
 Alpha virt. eigenvalues --    0.84400   0.84515   0.85185   0.85357   0.85750
 Alpha virt. eigenvalues --    0.85826   0.86184   0.86201   0.86349   0.86679
 Alpha virt. eigenvalues --    0.86989   0.87475   0.87922   0.88589   0.88625
 Alpha virt. eigenvalues --    0.89140   0.89451   0.89590   0.90086   0.90637
 Alpha virt. eigenvalues --    0.90751   0.91610   0.91831   0.92027   0.92207
 Alpha virt. eigenvalues --    0.93024   0.93131   0.93439   0.93869   0.94346
 Alpha virt. eigenvalues --    0.94821   0.95063   0.95380   0.95757   0.96598
 Alpha virt. eigenvalues --    0.97407   0.97738   0.98566   0.98998   0.99773
 Alpha virt. eigenvalues --    0.99928   1.00568   1.00783   1.01380   1.01889
 Alpha virt. eigenvalues --    1.03013   1.03740   1.04584   1.05279   1.05960
 Alpha virt. eigenvalues --    1.06885   1.07522   1.07553   1.07665   1.07942
 Alpha virt. eigenvalues --    1.08792   1.09112   1.09953   1.10568   1.11416
 Alpha virt. eigenvalues --    1.12812   1.13316   1.13379   1.14290   1.15010
 Alpha virt. eigenvalues --    1.15165   1.16311   1.17011   1.17982   1.18733
 Alpha virt. eigenvalues --    1.18958   1.19701   1.20588   1.21390   1.22474
 Alpha virt. eigenvalues --    1.23238   1.23709   1.24063   1.25412   1.26098
 Alpha virt. eigenvalues --    1.26310   1.26915   1.27534   1.27825   1.28189
 Alpha virt. eigenvalues --    1.28774   1.29588   1.29895   1.30472   1.31474
 Alpha virt. eigenvalues --    1.32442   1.32990   1.33539   1.33676   1.33983
 Alpha virt. eigenvalues --    1.34760   1.35443   1.36031   1.36754   1.37054
 Alpha virt. eigenvalues --    1.37914   1.39105   1.39502   1.40409   1.40581
 Alpha virt. eigenvalues --    1.40901   1.41941   1.42331   1.42622   1.43697
 Alpha virt. eigenvalues --    1.43844   1.44249   1.44906   1.45353   1.45411
 Alpha virt. eigenvalues --    1.45978   1.47526   1.48243   1.48948   1.49373
 Alpha virt. eigenvalues --    1.49712   1.50484   1.52169   1.52879   1.53671
 Alpha virt. eigenvalues --    1.54014   1.54429   1.54752   1.55462   1.55976
 Alpha virt. eigenvalues --    1.56153   1.57583   1.59095   1.60969   1.61079
 Alpha virt. eigenvalues --    1.61503   1.62409   1.63248   1.63678   1.63827
 Alpha virt. eigenvalues --    1.64670   1.65409   1.65689   1.66516   1.66850
 Alpha virt. eigenvalues --    1.67865   1.68033   1.68339   1.68920   1.69068
 Alpha virt. eigenvalues --    1.69402   1.69813   1.70530   1.71129   1.71378
 Alpha virt. eigenvalues --    1.71466   1.71948   1.72283   1.72924   1.73142
 Alpha virt. eigenvalues --    1.73416   1.74218   1.74554   1.74617   1.75191
 Alpha virt. eigenvalues --    1.75501   1.75830   1.76311   1.76798   1.76946
 Alpha virt. eigenvalues --    1.77807   1.78081   1.78116   1.78544   1.78742
 Alpha virt. eigenvalues --    1.79842   1.79996   1.80640   1.81452   1.81707
 Alpha virt. eigenvalues --    1.82332   1.82665   1.83356   1.83629   1.84034
 Alpha virt. eigenvalues --    1.84679   1.84940   1.85222   1.85866   1.86093
 Alpha virt. eigenvalues --    1.86304   1.87060   1.87688   1.87969   1.88118
 Alpha virt. eigenvalues --    1.89340   1.89456   1.89764   1.90216   1.90651
 Alpha virt. eigenvalues --    1.91283   1.91646   1.91844   1.91959   1.92990
 Alpha virt. eigenvalues --    1.93164   1.93446   1.93579   1.94005   1.94796
 Alpha virt. eigenvalues --    1.95522   1.95899   1.96074   1.96479   1.97028
 Alpha virt. eigenvalues --    1.97531   1.97859   1.98459   1.98525   2.00209
 Alpha virt. eigenvalues --    2.00894   2.01381   2.02114   2.02804   2.03000
 Alpha virt. eigenvalues --    2.03816   2.04775   2.05368   2.05930   2.06412
 Alpha virt. eigenvalues --    2.06456   2.07518   2.08554   2.09874   2.09987
 Alpha virt. eigenvalues --    2.11017   2.11148   2.11408   2.11822   2.12896
 Alpha virt. eigenvalues --    2.13253   2.13274   2.14587   2.15394   2.15485
 Alpha virt. eigenvalues --    2.16672   2.16814   2.17094   2.17693   2.18920
 Alpha virt. eigenvalues --    2.19447   2.19640   2.20380   2.20697   2.21821
 Alpha virt. eigenvalues --    2.22182   2.23166   2.23216   2.23488   2.24278
 Alpha virt. eigenvalues --    2.25056   2.25432   2.25798   2.26249   2.27820
 Alpha virt. eigenvalues --    2.28392   2.28701   2.29515   2.30065   2.31088
 Alpha virt. eigenvalues --    2.31337   2.32640   2.33322   2.33526   2.33597
 Alpha virt. eigenvalues --    2.35473   2.36053   2.36239   2.37518   2.38300
 Alpha virt. eigenvalues --    2.39331   2.39902   2.40094   2.41022   2.42161
 Alpha virt. eigenvalues --    2.42368   2.42468   2.43381   2.44416   2.44946
 Alpha virt. eigenvalues --    2.45210   2.46016   2.46890   2.47771   2.48206
 Alpha virt. eigenvalues --    2.48388   2.49246   2.50300   2.50323   2.50931
 Alpha virt. eigenvalues --    2.51746   2.52110   2.53384   2.54390   2.54540
 Alpha virt. eigenvalues --    2.55102   2.56918   2.57464   2.58772   2.58934
 Alpha virt. eigenvalues --    2.59506   2.60036   2.61148   2.61713   2.62045
 Alpha virt. eigenvalues --    2.62953   2.64175   2.64677   2.66143   2.66574
 Alpha virt. eigenvalues --    2.67178   2.67469   2.67566   2.67905   2.68565
 Alpha virt. eigenvalues --    2.69216   2.71973   2.72303   2.73097   2.73987
 Alpha virt. eigenvalues --    2.75880   2.76692   2.78655   2.79469   2.80762
 Alpha virt. eigenvalues --    2.82177   2.82471   2.85235   2.85715   2.86169
 Alpha virt. eigenvalues --    2.87291   2.87984   2.88947   2.91419   2.91964
 Alpha virt. eigenvalues --    2.92266   2.93240   2.95733   2.96922   2.98712
 Alpha virt. eigenvalues --    3.01252   3.03596   3.04003   3.06078   3.09366
 Alpha virt. eigenvalues --    3.11644   3.12857   3.14118   3.18145   3.37812
 Alpha virt. eigenvalues --    3.63129   3.79558   3.80639   3.90665   3.91530
 Alpha virt. eigenvalues --    3.92412   3.92950   3.95170   3.95942   3.96245
 Alpha virt. eigenvalues --    4.00366   4.01460   4.02512   4.03520   4.05380
 Alpha virt. eigenvalues --    4.06250   4.07859   4.09199   4.10326   4.10401
 Alpha virt. eigenvalues --    4.11422   4.15000   4.16151   4.18071   4.19748
 Alpha virt. eigenvalues --    4.21490   4.22975   4.23364   4.23960   4.27469
 Alpha virt. eigenvalues --    4.28403   4.28843   4.31171   4.34382   4.36200
 Alpha virt. eigenvalues --    4.36517   4.39315   4.39937   4.41681   4.44198
 Alpha virt. eigenvalues --    4.44602   4.49197   4.50133   4.52704   4.53961
 Alpha virt. eigenvalues --    4.59138   4.63434   4.66298   4.73202
          Condensed to atoms (all electrons):
 Mulliken charges:
               1
     1  N   -0.759559
     2  H    0.417504
     3  H    0.414742
     4  H    0.438023
     5  C   -0.105455
     6  H    0.226480
     7  C    0.654576
     8  C   -0.485802
     9  H    0.224475
    10  H    0.196247
    11  H    0.196393
    12  O   -0.542730
    13  N   -0.614777
    14  H    0.378800
    15  C   -0.056509
    16  H    0.208879
    17  C    0.618853
    18  C   -0.357423
    19  H    0.163523
    20  H    0.177443
    21  O   -0.552936
    22  C    0.015089
    23  C    0.019503
    24  H    0.168863
    25  C    0.086130
    26  C    0.312063
    27  C   -0.227245
    28  H    0.136814
    29  N   -0.680037
    30  H    0.341165
    31  C   -0.148633
    32  H    0.139689
    33  C   -0.158467
    34  H    0.136670
    35  C   -0.139522
    36  H    0.128723
    37  N   -0.626757
    38  H    0.383280
    39  C   -0.074943
    40  H    0.193204
    41  C    0.602205
    42  C   -0.035741
    43  H    0.146746
    44  H    0.168117
    45  O   -0.544597
    46  O   -0.647537
    47  H    0.443162
    48  N   -0.599901
    49  H    0.349505
    50  C   -0.053019
    51  H    0.167007
    52  C    0.647306
    53  C   -0.100024
    54  H    0.146811
    55  O   -0.572490
    56  C   -0.463453
    57  H    0.144734
    58  H    0.164211
    59  H    0.159074
    60  C   -0.443526
    61  H    0.147310
    62  H    0.159528
    63  H    0.158429
    64  N   -0.602319
    65  H    0.357362
    66  C   -0.043672
    67  H    0.186734
    68  C    0.619301
    69  C   -0.452727
    70  H    0.173849
    71  H    0.161378
    72  H    0.185659
    73  O   -0.565531
    74  N   -0.592196
    75  H    0.354601
    76  C   -0.100495
    77  H    0.177245
    78  C    0.604769
    79  C   -0.263703
    80  H    0.159847
    81  H    0.156241
    82  O   -0.596879
    83  C   -0.263557
    84  H    0.150910
    85  H    0.152771
    86  C   -0.157388
    87  H    0.161255
    88  H    0.165088
    89  N   -0.563620
    90  H    0.333449
    91  N   -0.717516
    92  H    0.460928
    93  H    0.296915
    94  N   -0.745517
    95  H    0.345380
    96  H    0.353169
    97  C    0.598054
    98  O   -0.479980
 Sum of Mulliken charges =   1.00000
 Mulliken charges with hydrogens summed into heavy atoms:
               1
     1  N    0.510709
     5  C    0.121026
     7  C    0.654576
     8  C    0.131313
    12  O   -0.542730
    13  N   -0.235978
    15  C    0.152370
    17  C    0.618853
    18  C   -0.016457
    21  O   -0.552936
    22  C    0.015089
    23  C    0.188365
    25  C    0.086130
    26  C    0.312063
    27  C   -0.090431
    29  N   -0.338872
    31  C   -0.008943
    33  C   -0.021797
    35  C   -0.010799
    37  N   -0.243476
    39  C    0.118261
    41  C    0.602205
    42  C    0.279122
    45  O   -0.544597
    46  O   -0.204375
    48  N   -0.250396
    50  C    0.113988
    52  C    0.647306
    53  C    0.046787
    55  O   -0.572490
    56  C    0.004565
    60  C    0.021743
    64  N   -0.244957
    66  C    0.143062
    68  C    0.619301
    69  C    0.068159
    73  O   -0.565531
    74  N   -0.237594
    76  C    0.076750
    78  C    0.604769
    79  C    0.052385
    82  O   -0.135950
    83  C    0.040124
    86  C    0.168956
    89  N   -0.230172
    91  N   -0.420601
    94  N   -0.046968
    97  C    0.598054
    98  O   -0.479980
 Electronic spatial extent (au):  <R**2>=          53065.4338
 Charge=              1.0000 electrons
 Dipole moment (field-independent basis, Debye):
    X=            -20.2594    Y=              7.9952    Z=             19.0976  Tot=             28.9670
 Quadrupole moment (field-independent basis, Debye-Ang):
   XX=            -24.7783   YY=           -220.4405   ZZ=           -198.5954
   XY=           -143.1116   XZ=           -158.9867   YZ=             94.1419
 Traceless Quadrupole moment (field-independent basis, Debye-Ang):
   XX=            123.1598   YY=            -72.5024   ZZ=            -50.6574
   XY=           -143.1116   XZ=           -158.9867   YZ=             94.1419
 Octapole moment (field-independent basis, Debye-Ang**2):
  XXX=          -1994.2802  YYY=           -253.6427  ZZZ=           1004.0614  XYY=           -417.8182
  XXY=            581.1566  XXZ=           1154.3882  XZZ=           -875.2628  YZZ=             37.7542
  YYZ=            303.1311  XYZ=           -404.9410
 Hexadecapole moment (field-independent basis, Debye-Ang**3):
 XXXX=         -14801.2346 YYYY=         -13723.6451 ZZZZ=         -21053.4214 XXXY=          -3871.1653
 XXXZ=            738.2668 YYYX=           2863.5656 YYYZ=          -2880.3135 ZZZX=           7187.3762
 ZZZY=           -265.9643 XXYY=          -3665.1718 XXZZ=          -1983.7944 YYZZ=          -4651.4241
 XXYZ=           4571.3815 YYXZ=           1246.5574 ZZXY=          -2594.1384
 N-N= 6.418903368386D+03 E-N=-1.830660271004D+04  KE= 2.338089025870D+03
 Unable to Open any file for archive entry.
 1\1\GINC-AMR-103\SP\RB3LYP\6-31G(d)\C31H49N10O8(1+)\KENGMITH\28-Jun-20
 22\0\\# B3LYP/6-31G* guess=read geom=check nosymm integral(ultrafinegr
 id)\\Candidate Structure: Conf:448 Charge calc in gas phase\\1,1\N,0,-
 7.7594877911,4.3373519987,5.1653663192\H,0,-7.7916387634,4.5943883488,
 6.1553901259\H,0,-8.6881770865,4.4844789806,4.7601172417\H,0,-7.024179
 4999,4.9343919962,4.6576843021\C,0,-7.2154701124,2.9418124814,4.916759
 2975\H,0,-7.0400546356,2.4758744673,5.8895096379\C,0,-5.8605746129,3.2
 370107189,4.2031462023\C,0,-8.1852524514,2.1122880984,4.0760616257\H,0
 ,-7.7598562213,1.1231680455,3.885458828\H,0,-9.1366111533,1.9661965584
 ,4.5978371742\H,0,-8.371554034,2.5849296934,3.1053814292\O,0,-5.616861
 6094,4.4260607964,3.9259146645\N,0,-5.0894534107,2.1951366593,3.951549
 8601\H,0,-5.3867240705,1.2263436311,4.1171413988\C,0,-3.8294689442,2.2
 29911117,3.2029309977\H,0,-3.9761042667,2.8264006539,2.2961247916\C,0,
 -3.6040767397,0.7446279575,2.8217362496\C,0,-2.6645121232,2.8572394689
 ,4.028040748\H,0,-2.3133508022,2.1276137934,4.7666638629\H,0,-3.090218
 0757,3.6988253326,4.5871716578\O,0,-4.4048429378,-0.111648913,3.222021
 721\C,0,-1.5339528363,3.3469575346,3.1722256979\C,0,-0.2769443706,2.79
 8563926,3.05290304\H,0,0.1396513884,1.9157584514,3.5164504082\C,0,-1.5
 568617548,4.5111371911,2.3150196793\C,0,-0.2772083659,4.6007582669,1.7
 034679215\C,0,-2.5259955677,5.4856013271,2.0133332902\H,0,-3.508422313
 7,5.4526151569,2.4780321262\N,0,0.4796008017,3.5492895283,2.1839986873
 \H,0,1.4064934752,3.3026896286,1.8723137311\C,0,-0.9299254957,6.559934
 4809,0.5147453183\H,0,-0.7087882152,7.3629777275,-0.1822473278\C,0,0.0
 504623524,5.6173733719,0.8008022568\H,0,1.0338160655,5.6716228407,0.34
 18808433\C,0,-2.2033647701,6.4966554254,1.1167855976\H,0,-2.9414035106
 ,7.2562467155,0.8747570237\N,0,-2.5321681634,0.4691565268,2.0654655262
 \H,0,-1.8407758056,1.1866274373,1.8525614322\C,0,-2.1808685936,-0.8878
 590759,1.6763075574\H,0,-2.4567779412,-1.5757227934,2.48168911\C,0,-0.
 6726928024,-0.929242802,1.4180552756\C,0,-2.9606033593,-1.3228742595,0
 .3939205118\H,0,-2.7468328667,-0.6035503097,-0.4080758648\H,0,-4.02734
 79024,-1.2694263711,0.631888939\O,0,-0.0058721723,0.0975572187,1.29324
 34225\O,0,-2.6608258615,-2.6469754012,0.0090269083\H,0,-1.9166493622,-
 2.6118535663,-0.6324690202\N,0,-0.1680951586,-2.1873683621,1.291113295
 8\H,0,-0.8777935809,-2.9079605433,1.1780184736\C,0,1.0721593241,-2.415
 675748,0.5546152249\H,0,1.8270513018,-1.7294296148,0.9520839117\C,0,0.
 8139506848,-2.0827839994,-0.9345888029\C,0,1.5394004667,-3.8814681507,
 0.7639968936\H,0,0.7285557765,-4.5281492447,0.3960321703\O,0,-0.286765
 5969,-2.2976362124,-1.4624173273\C,0,2.806901293,-4.2146791449,-0.0371
 387041\H,0,3.6424359694,-3.563810564,0.2524036006\H,0,3.1121671179,-5.
 2464287101,0.1652687454\H,0,2.6601501118,-4.1183595536,-1.1165901103\C
 ,0,1.7596167296,-4.1714814232,2.2570129682\H,0,2.5757232695,-3.5559549
 356,2.6561816781\H,0,2.0333172296,-5.2219731135,2.4017533757\H,0,0.865
 1760971,-3.9682277947,2.8523631695\N,0,1.8470875017,-1.5595868767,-1.6
 168099711\H,0,2.7510268916,-1.4012224771,-1.1826695481\C,0,1.792554274
 3,-1.2401731657,-3.036003899\H,0,1.2752367263,-2.0547758118,-3.5550359
 306\C,0,3.2479538639,-1.1507514841,-3.5228620633\C,0,1.0434402628,0.08
 07807175,-3.3019998609\H,0,1.0140530218,0.3113882735,-4.371959763\H,0,
 1.5361676494,0.9091787955,-2.7829774098\H,0,0.018127484,-0.0084193196,
 -2.9354981466\O,0,4.1771532693,-1.0248492254,-2.7139814467\N,0,3.40962
 86651,-1.2058435659,-4.8626769782\H,0,2.5930901496,-1.1195282402,-5.46
 15782012\C,0,4.6547551924,-0.8190867055,-5.514915148\H,0,5.2939643915,
 -0.4318255908,-4.7308993486\C,0,4.3446280253,0.3183294841,-6.505675171
 9\C,0,5.334846813,-2.0042411425,-6.2440406598\H,0,4.5516292413,-2.5308
 157995,-6.802602865\H,0,6.0273300695,-1.6056048883,-6.9946980872\O,0,5
 .3681868064,1.0883069654,-6.8524053635\C,0,6.0799202162,-3.0037349999,
 -5.3365914933\H,0,5.4926575637,-3.1998697231,-4.4298767235\H,0,6.15133
 91647,-3.9607932116,-5.8700200239\C,0,7.5208938224,-2.6161546498,-4.94
 22444255\H,0,8.1026403049,-2.3812167373,-5.8406217742\H,0,8.0119771715
 ,-3.4821882737,-4.4868410242\N,0,7.6556518398,-1.5139564119,-3.9920582
 862\H,0,7.4943017269,-1.7434173972,-3.0200213367\N,0,7.6600825737,0.35
 18342168,-5.4869440786\H,0,6.2172819149,0.8857205857,-6.3372444246\H,0
 ,8.1768816598,-0.26814424,-6.1100009933\N,0,7.0178866628,0.5813203356,
 -3.2668598147\H,0,6.908957385,1.5569819831,-3.5166966997\H,0,6.2341233
 443,0.1996669968,-2.7426740052\C,0,7.4680661627,-0.1941470332,-4.32036
 77732\O,0,3.222922732,0.4654505203,-6.9517833406\\Version=ES64L-G16Rev
 C.01\HF=-2360.0311622\RMSD=6.470e-09\Dipole=-8.588152,2.2437953,8.0777
 983\Quadrupole=91.5662918,-53.9037637,-37.662528,-106.399949,-118.2026
 986,69.9921958\PG=C01 [X(C31H49N10O8)]\\@
 The archive entry for this job was punched.


 THERE IS SOMETHING FASCINATING ABOUT SCIENCE.
 ONE GETS SUCH WHOLESALE CONJECTURE OUT OF SUCH TRIFLING INVESTMENTS.

                                                       -- MARK TWAIN
 Job cpu time:       0 days  0 hours  3 minutes 32.6 seconds.
 Elapsed time:       0 days  0 hours  0 minutes 53.9 seconds.
 File lengths (MBytes):  RWF=    480 Int=      0 D2E=      0 Chk=     72 Scr=     16
 Normal termination of Gaussian 16 at Tue Jun 28 00:39:45 2022.
