 Entering Gaussian System, Link 0=/opt/software/Gaussian/g16-AVX2-C.01/g16/g16
 Input=charge-conf-222.com
 Output=charge-conf-222.log
 Initial command:
 /opt/software/Gaussian/g16-AVX2-C.01/g16/l1.exe "/mnt/gs18/scratch/users/kengmith/Gau-127254.inp" -scrdir="/mnt/gs18/scratch/users/kengmith/"
 Entering Link 1 = /opt/software/Gaussian/g16-AVX2-C.01/g16/l1.exe PID=    127264.
  
 Copyright (c) 1988-2019, Gaussian, Inc.  All Rights Reserved.
  
 This is part of the Gaussian(R) 16 program.  It is based on
 the Gaussian(R) 09 system (copyright 2009, Gaussian, Inc.),
 the Gaussian(R) 03 system (copyright 2003, Gaussian, Inc.),
 the Gaussian(R) 98 system (copyright 1998, Gaussian, Inc.),
 the Gaussian(R) 94 system (copyright 1995, Gaussian, Inc.),
 the Gaussian 92(TM) system (copyright 1992, Gaussian, Inc.),
 the Gaussian 90(TM) system (copyright 1990, Gaussian, Inc.),
 the Gaussian 88(TM) system (copyright 1988, Gaussian, Inc.),
 the Gaussian 86(TM) system (copyright 1986, Carnegie Mellon
 University), and the Gaussian 82(TM) system (copyright 1983,
 Carnegie Mellon University). Gaussian is a federally registered
 trademark of Gaussian, Inc.
  
 This software contains proprietary and confidential information,
 including trade secrets, belonging to Gaussian, Inc.
  
 This software is provided under written license and may be
 used, copied, transmitted, or stored only in accord with that
 written license.
  
 The following legend is applicable only to US Government
 contracts under FAR:
  
                    RESTRICTED RIGHTS LEGEND
  
 Use, reproduction and disclosure by the US Government is
 subject to restrictions as set forth in subparagraphs (a)
 and (c) of the Commercial Computer Software - Restricted
 Rights clause in FAR 52.227-19.
  
 Gaussian, Inc.
 340 Quinnipiac St., Bldg. 40, Wallingford CT 06492
  
  
 ---------------------------------------------------------------
 Warning -- This program may not be used in any manner that
 competes with the business of Gaussian, Inc. or will provide
 assistance to any competitor of Gaussian, Inc.  The licensee
 of this program is prohibited from giving any competitor of
 Gaussian, Inc. access to this program.  By using this program,
 the user acknowledges that Gaussian, Inc. is engaged in the
 business of creating and licensing software in the field of
 computational chemistry and represents and warrants to the
 licensee that it is not a competitor of Gaussian, Inc. and that
 it will not use this program in any manner prohibited above.
 ---------------------------------------------------------------
  

 Cite this work as:
 Gaussian 16, Revision C.01,
 M. J. Frisch, G. W. Trucks, H. B. Schlegel, G. E. Scuseria, 
 M. A. Robb, J. R. Cheeseman, G. Scalmani, V. Barone, 
 G. A. Petersson, H. Nakatsuji, X. Li, M. Caricato, A. V. Marenich, 
 J. Bloino, B. G. Janesko, R. Gomperts, B. Mennucci, H. P. Hratchian, 
 J. V. Ortiz, A. F. Izmaylov, J. L. Sonnenberg, D. Williams-Young, 
 F. Ding, F. Lipparini, F. Egidi, J. Goings, B. Peng, A. Petrone, 
 T. Henderson, D. Ranasinghe, V. G. Zakrzewski, J. Gao, N. Rega, 
 G. Zheng, W. Liang, M. Hada, M. Ehara, K. Toyota, R. Fukuda, 
 J. Hasegawa, M. Ishida, T. Nakajima, Y. Honda, O. Kitao, H. Nakai, 
 T. Vreven, K. Throssell, J. A. Montgomery, Jr., J. E. Peralta, 
 F. Ogliaro, M. J. Bearpark, J. J. Heyd, E. N. Brothers, K. N. Kudin, 
 V. N. Staroverov, T. A. Keith, R. Kobayashi, J. Normand, 
 K. Raghavachari, A. P. Rendell, J. C. Burant, S. S. Iyengar, 
 J. Tomasi, M. Cossi, J. M. Millam, M. Klene, C. Adamo, R. Cammi, 
 J. W. Ochterski, R. L. Martin, K. Morokuma, O. Farkas, 
 J. B. Foresman, and D. J. Fox, Gaussian, Inc., Wallingford CT, 2019.
 
 ******************************************
 Gaussian 16:  ES64L-G16RevC.01  3-Jul-2019
                 2-Jun-2022 
 ******************************************
 %mem=8gb
 %nproc=4
 Will use up to    4 processors via shared memory.
 %chk=conf-222.chk
 ----------------------------------------------------------------------
 # B3LYP/6-31G* empiricaldispersion=gd3 guess=read geom=check nosymm in
 tegral(ultrafinegrid)
 ----------------------------------------------------------------------
 1/29=2,38=1,172=1/1;
 2/12=2,15=1,40=1/2;
 3/5=1,6=6,7=1,11=2,14=-4,25=1,30=1,74=-5,75=-5,116=-2,124=31/1,2,3;
 4/5=1/1;
 5/5=2,38=6/2;
 6/7=2,8=2,9=2,10=2,28=1/1;
 99/5=1,9=1/99;
 ------------------------------------------------------
 Candidate Structure: Conf:222 Charge calc in gas phase
 ------------------------------------------------------
 Structure from the checkpoint file:  "conf-222.chk"
 Charge =  1 Multiplicity = 1
 Redundant internal coordinates found in file.  (old form).
 N,0,-0.0907241823,-0.4480590613,2.6219042981
 H,0,0.8765790335,0.8881154776,2.8768298605
 H,0,-0.775745369,-0.7005951575,3.3327444152
 H,0,0.5992345685,-1.1999736223,2.5709189038
 C,0,-0.7440994539,-0.301615755,1.3011380952
 H,0,-1.4009517036,0.5687424903,1.3502536566
 C,0,0.3817264437,-0.0264858753,0.2890084119
 C,0,-1.5714971861,-1.5493065616,0.9212132077
 H,0,-2.391356426,-1.6417109747,1.6444826127
 H,0,-0.9305804938,-2.4299211997,1.0512567002
 O,0,1.4516196969,-0.6329726991,0.3515761747
 C,0,-2.131991493,-1.6034012691,-0.5103923375
 H,0,-2.6867441234,-2.5335518587,-0.6552645659
 H,0,-1.3067468048,-1.6145316305,-1.2317098767
 C,0,-3.0031804434,-0.4366478604,-0.9224890441
 O,0,-2.7458943788,0.7407680698,-0.723990915
 O,0,-4.0965023665,-0.8319130316,-1.5910629332
 N,0,0.1498182543,0.9712599996,-0.6082034056
 H,0,-0.8220420173,1.2400226462,-0.7593773992
 C,0,1.1436248817,1.3259512145,-1.6271876208
 H,0,0.8534804888,2.3212318677,-1.9848351463
 C,0,2.5169868914,1.4867281306,-0.9518800675
 C,0,1.2016904006,0.3532288011,-2.8208195913
 H,0,1.9144603595,0.7602306709,-3.5484822605
 H,0,1.6224521301,-0.592260523,-2.4673218578
 O,0,3.5444181075,1.0134930287,-1.4685128452
 C,0,-0.1615362005,0.1255126387,-3.4401938128
 C,0,-0.6368319823,-1.1713374496,-3.6603009259
 H,0,0.0030056404,-2.0217045546,-3.4346218238
 C,0,-1.0099675207,1.1945958382,-3.7706747632
 H,0,-0.6691162398,2.2202402932,-3.6478150888
 C,0,-1.9256862245,-1.4047819315,-4.1434330858
 H,0,-2.2801218548,-2.4236541684,-4.2832549864
 C,0,-2.2992144607,0.982643907,-4.2441309517
 H,0,-2.9578849887,1.8125613076,-4.4787343976
 O,0,-4.0742605857,-0.467700115,-4.7906739649
 H,0,-4.5472854808,-0.0335987437,-1.9294733982
 C,0,-2.7723401172,-0.3245642584,-4.4071608741
 N,0,2.5155371644,2.2105326681,0.1923919358
 H,0,1.5922647154,2.4400868434,0.5512555966
 C,0,3.4709011425,1.9100368793,1.2586900694
 H,0,4.1335483116,1.1425636739,0.8686802645
 C,0,2.7384106071,1.1961690906,2.4072064437
 C,0,4.3060646435,3.1138888161,1.7596363708
 H,0,4.2885263798,3.9003561748,0.996123476
 H,0,3.831833091,3.5456600139,2.6466686817
 O,0,3.2715075821,0.3241101385,3.0571988715
 C,0,5.7544052696,2.6859872312,2.0813986586
 H,0,5.7508266567,1.6351974531,2.4017597964
 H,0,6.1330828914,3.2421452487,2.9449272604
 C,0,6.759242947,2.9208850495,0.9298746839
 H,0,6.957666114,3.9975208651,0.8543480214
 H,0,7.7225126539,2.454858663,1.1755782887
 C,0,6.3374559974,2.5069409326,-0.4809276686
 H,0,5.4066109852,2.988812489,-0.78714259
 H,0,7.1109337603,2.7739822231,-1.2032523476
 N,0,6.0762554894,1.0110081568,-0.6395410831
 H,0,6.6646589698,0.5892928428,-1.3626898882
 H,0,5.0473520244,0.8878157989,-0.9275705778
 H,0,6.2442969056,0.4975737843,0.2306695323
 O,0,1.4922723986,1.6483348248,2.5565941286
 H,0,-4.2740563904,-1.4074999221,-4.9263319717
 Recover connectivity data from disk.
                           ----------------------------
                           !    Current Parameters    !
                           ! (Angstroms and Degrees)  !
 --------------------------                            --------------------------
 ! Name  Definition              Value                                          !
 --------------------------------------------------------------------------------
 ! R1    R(1,2)                  1.6691                                         !
 ! R2    R(1,3)                  1.019                                          !
 ! R3    R(1,4)                  1.0218                                         !
 ! R4    R(1,5)                  1.4808                                         !
 ! R5    R(5,6)                  1.0915                                         !
 ! R6    R(5,7)                  1.5387                                         !
 ! R7    R(5,8)                  1.5446                                         !
 ! R8    R(7,11)                 1.2314                                         !
 ! R9    R(7,18)                 1.3617                                         !
 ! R10   R(8,9)                  1.0972                                         !
 ! R11   R(8,10)                 1.0969                                         !
 ! R12   R(8,12)                 1.5384                                         !
 ! R13   R(12,13)                1.0927                                         !
 ! R14   R(12,14)                1.0961                                         !
 ! R15   R(12,15)                1.5133                                         !
 ! R16   R(15,16)                1.2214                                         !
 ! R17   R(15,17)                1.3411                                         !
 ! R18   R(18,19)                1.0196                                         !
 ! R19   R(18,20)                1.4669                                         !
 ! R20   R(20,21)                1.0967                                         !
 ! R21   R(20,22)                1.5388                                         !
 ! R22   R(20,23)                1.5409                                         !
 ! R23   R(22,26)                1.2436                                         !
 ! R24   R(22,39)                1.354                                          !
 ! R25   R(23,24)                1.0969                                         !
 ! R26   R(23,25)                1.0936                                         !
 ! R27   R(23,27)                1.5146                                         !
 ! R28   R(27,28)                1.3986                                         !
 ! R29   R(27,30)                1.4043                                         !
 ! R30   R(28,29)                1.0879                                         !
 ! R31   R(28,32)                1.3961                                         !
 ! R32   R(30,31)                1.0878                                         !
 ! R33   R(30,34)                1.3897                                         !
 ! R34   R(32,33)                1.0878                                         !
 ! R35   R(32,38)                1.3976                                         !
 ! R36   R(34,35)                1.0852                                         !
 ! R37   R(34,38)                1.3997                                         !
 ! R38   R(36,37)                2.9323                                         !
 ! R39   R(36,38)                1.3648                                         !
 ! R40   R(36,62)                0.9703                                         !
 ! R41   R(39,40)                1.0168                                         !
 ! R42   R(39,41)                1.4629                                         !
 ! R43   R(41,42)                1.0864                                         !
 ! R44   R(41,43)                1.5379                                         !
 ! R45   R(41,44)                1.5485                                         !
 ! R46   R(43,47)                1.2113                                         !
 ! R47   R(43,61)                1.334                                          !
 ! R48   R(44,45)                1.0963                                         !
 ! R49   R(44,46)                1.0946                                         !
 ! R50   R(44,48)                1.5441                                         !
 ! R51   R(48,49)                1.0985                                         !
 ! R52   R(48,50)                1.0947                                         !
 ! R53   R(48,51)                1.5462                                         !
 ! R54   R(51,52)                1.0974                                         !
 ! R55   R(51,53)                1.0979                                         !
 ! R56   R(51,54)                1.5296                                         !
 ! R57   R(54,55)                1.092                                          !
 ! R58   R(54,56)                1.0915                                         !
 ! R59   R(54,57)                1.5268                                         !
 ! R60   R(57,58)                1.0232                                         !
 ! R61   R(57,59)                1.0755                                         !
 ! R62   R(57,60)                1.0243                                         !
 ! A1    A(2,1,3)              118.7795                                         !
 ! A2    A(2,1,4)              101.8523                                         !
 ! A3    A(2,1,5)              108.2256                                         !
 ! A4    A(3,1,4)              107.8413                                         !
 ! A5    A(3,1,5)              110.4931                                         !
 ! A6    A(4,1,5)              109.0392                                         !
 ! A7    A(1,5,6)              107.713                                          !
 ! A8    A(1,5,7)              106.3522                                         !
 ! A9    A(1,5,8)              112.0779                                         !
 ! A10   A(6,5,7)              109.1068                                         !
 ! A11   A(6,5,8)              109.4407                                         !
 ! A12   A(7,5,8)              111.9989                                         !
 ! A13   A(5,7,11)             120.9448                                         !
 ! A14   A(5,7,18)             116.0917                                         !
 ! A15   A(11,7,18)            122.841                                          !
 ! A16   A(5,8,9)              107.8284                                         !
 ! A17   A(5,8,10)             107.8399                                         !
 ! A18   A(5,8,12)             116.9032                                         !
 ! A19   A(9,8,10)             106.9086                                         !
 ! A20   A(9,8,12)             109.7698                                         !
 ! A21   A(10,8,12)            107.1567                                         !
 ! A22   A(8,12,13)            109.7732                                         !
 ! A23   A(8,12,14)            109.7824                                         !
 ! A24   A(8,12,15)            115.8523                                         !
 ! A25   A(13,12,14)           106.6395                                         !
 ! A26   A(13,12,15)           109.1437                                         !
 ! A27   A(14,12,15)           105.1918                                         !
 ! A28   A(12,15,16)           125.2882                                         !
 ! A29   A(12,15,17)           112.1999                                         !
 ! A30   A(16,15,17)           122.4692                                         !
 ! A31   A(7,18,19)            116.9466                                         !
 ! A32   A(7,18,20)            121.2976                                         !
 ! A33   A(19,18,20)           118.6222                                         !
 ! A34   A(18,20,21)           105.4705                                         !
 ! A35   A(18,20,22)           108.969                                          !
 ! A36   A(18,20,23)           114.2675                                         !
 ! A37   A(21,20,22)           106.5239                                         !
 ! A38   A(21,20,23)           109.2844                                         !
 ! A39   A(22,20,23)           111.8557                                         !
 ! A40   A(20,22,26)           121.016                                          !
 ! A41   A(20,22,39)           115.1995                                         !
 ! A42   A(26,22,39)           123.7392                                         !
 ! A43   A(20,23,24)           107.7062                                         !
 ! A44   A(20,23,25)           108.0522                                         !
 ! A45   A(20,23,27)           112.1965                                         !
 ! A46   A(24,23,25)           106.5719                                         !
 ! A47   A(24,23,27)           111.6773                                         !
 ! A48   A(25,23,27)           110.3961                                         !
 ! A49   A(23,27,28)           120.6401                                         !
 ! A50   A(23,27,30)           121.7079                                         !
 ! A51   A(28,27,30)           117.6164                                         !
 ! A52   A(27,28,29)           119.4905                                         !
 ! A53   A(27,28,32)           121.5493                                         !
 ! A54   A(29,28,32)           118.9513                                         !
 ! A55   A(27,30,31)           120.1279                                         !
 ! A56   A(27,30,34)           121.6396                                         !
 ! A57   A(31,30,34)           118.2287                                         !
 ! A58   A(28,32,33)           120.1263                                         !
 ! A59   A(28,32,38)           119.6913                                         !
 ! A60   A(33,32,38)           120.1528                                         !
 ! A61   A(30,34,35)           121.3392                                         !
 ! A62   A(30,34,38)           119.716                                          !
 ! A63   A(35,34,38)           118.9389                                         !
 ! A64   A(37,36,38)            82.1931                                         !
 ! A65   A(37,36,62)           104.2752                                         !
 ! A66   A(38,36,62)           109.7119                                         !
 ! A67   A(32,38,34)           119.6754                                         !
 ! A68   A(32,38,36)           123.358                                          !
 ! A69   A(34,38,36)           116.9446                                         !
 ! A70   A(22,39,40)           114.8298                                         !
 ! A71   A(22,39,41)           120.3647                                         !
 ! A72   A(40,39,41)           112.4647                                         !
 ! A73   A(39,41,42)           106.3668                                         !
 ! A74   A(39,41,43)           109.1863                                         !
 ! A75   A(39,41,44)           115.3627                                         !
 ! A76   A(42,41,43)           103.338                                          !
 ! A77   A(42,41,44)           109.6571                                         !
 ! A78   A(43,41,44)           112.0961                                         !
 ! A79   A(41,43,47)           121.6891                                         !
 ! A80   A(41,43,61)           111.7897                                         !
 ! A81   A(47,43,61)           126.5165                                         !
 ! A82   A(41,44,45)           108.8933                                         !
 ! A83   A(41,44,46)           109.5826                                         !
 ! A84   A(41,44,48)           110.9691                                         !
 ! A85   A(45,44,46)           105.9311                                         !
 ! A86   A(45,44,48)           111.0351                                         !
 ! A87   A(46,44,48)           110.2928                                         !
 ! A88   A(44,48,49)           108.8312                                         !
 ! A89   A(44,48,50)           110.3678                                         !
 ! A90   A(44,48,51)           114.347                                          !
 ! A91   A(49,48,50)           104.8948                                         !
 ! A92   A(49,48,51)           111.3833                                         !
 ! A93   A(50,48,51)           106.5873                                         !
 ! A94   A(48,51,52)           108.5302                                         !
 ! A95   A(48,51,53)           109.8167                                         !
 ! A96   A(48,51,54)           117.8124                                         !
 ! A97   A(52,51,53)           105.8549                                         !
 ! A98   A(52,51,54)           104.5896                                         !
 ! A99   A(53,51,54)           109.4798                                         !
 ! A100  A(51,54,55)           111.98                                           !
 ! A101  A(51,54,56)           110.4121                                         !
 ! A102  A(51,54,57)           114.0881                                         !
 ! A103  A(55,54,56)           108.0914                                         !
 ! A104  A(55,54,57)           104.9152                                         !
 ! A105  A(56,54,57)           106.9892                                         !
 ! A106  A(54,57,58)           112.2621                                         !
 ! A107  A(54,57,59)           107.68                                           !
 ! A108  A(54,57,60)           112.0121                                         !
 ! A109  A(58,57,59)           108.2788                                         !
 ! A110  A(58,57,60)           107.4274                                         !
 ! A111  A(59,57,60)           109.09                                           !
 ! D1    D(2,1,5,6)            -64.3541                                         !
 ! D2    D(2,1,5,7)             52.5063                                         !
 ! D3    D(2,1,5,8)            175.209                                          !
 ! D4    D(3,1,5,6)             67.2654                                         !
 ! D5    D(3,1,5,7)           -175.8742                                         !
 ! D6    D(3,1,5,8)            -53.1715                                         !
 ! D7    D(4,1,5,6)           -174.3762                                         !
 ! D8    D(4,1,5,7)            -57.5158                                         !
 ! D9    D(4,1,5,8)             65.1869                                         !
 ! D10   D(1,5,7,11)            40.889                                          !
 ! D11   D(1,5,7,18)          -135.1978                                         !
 ! D12   D(6,5,7,11)           156.8145                                         !
 ! D13   D(6,5,7,18)           -19.2723                                         !
 ! D14   D(8,5,7,11)           -81.8634                                         !
 ! D15   D(8,5,7,18)           102.0498                                         !
 ! D16   D(1,5,8,9)             64.3648                                         !
 ! D17   D(1,5,8,10)           -50.7514                                         !
 ! D18   D(1,5,8,12)          -171.468                                          !
 ! D19   D(6,5,8,9)            -55.0637                                         !
 ! D20   D(6,5,8,10)          -170.1799                                         !
 ! D21   D(6,5,8,12)            69.1035                                         !
 ! D22   D(7,5,8,9)           -176.1931                                         !
 ! D23   D(7,5,8,10)            68.6907                                         !
 ! D24   D(7,5,8,12)           -52.0259                                         !
 ! D25   D(5,7,18,19)          -20.0519                                         !
 ! D26   D(5,7,18,20)         -179.7613                                         !
 ! D27   D(11,7,18,19)         163.9428                                         !
 ! D28   D(11,7,18,20)           4.2335                                         !
 ! D29   D(5,8,12,13)          179.4996                                         !
 ! D30   D(5,8,12,14)           62.5841                                         !
 ! D31   D(5,8,12,15)          -56.3456                                         !
 ! D32   D(9,8,12,13)          -57.3253                                         !
 ! D33   D(9,8,12,14)         -174.2408                                         !
 ! D34   D(9,8,12,15)           66.8296                                         !
 ! D35   D(10,8,12,13)          58.423                                          !
 ! D36   D(10,8,12,14)         -58.4925                                         !
 ! D37   D(10,8,12,15)        -177.4221                                         !
 ! D38   D(8,12,15,16)          45.6185                                         !
 ! D39   D(8,12,15,17)        -136.7169                                         !
 ! D40   D(13,12,15,16)        170.0992                                         !
 ! D41   D(13,12,15,17)        -12.2363                                         !
 ! D42   D(14,12,15,16)        -75.7996                                         !
 ! D43   D(14,12,15,17)        101.8649                                         !
 ! D44   D(7,18,20,21)        -162.7174                                         !
 ! D45   D(7,18,20,22)         -48.6892                                         !
 ! D46   D(7,18,20,23)          77.2386                                         !
 ! D47   D(19,18,20,21)         37.9026                                         !
 ! D48   D(19,18,20,22)        151.9308                                         !
 ! D49   D(19,18,20,23)        -82.1414                                         !
 ! D50   D(18,20,22,26)        136.5938                                         !
 ! D51   D(18,20,22,39)        -45.7653                                         !
 ! D52   D(21,20,22,26)       -110.0666                                         !
 ! D53   D(21,20,22,39)         67.5744                                         !
 ! D54   D(23,20,22,26)          9.2842                                         !
 ! D55   D(23,20,22,39)       -173.0749                                         !
 ! D56   D(18,20,23,24)        175.5015                                         !
 ! D57   D(18,20,23,25)        -69.7297                                         !
 ! D58   D(18,20,23,27)         52.1998                                         !
 ! D59   D(21,20,23,24)         57.6143                                         !
 ! D60   D(21,20,23,25)        172.3831                                         !
 ! D61   D(21,20,23,27)        -65.6873                                         !
 ! D62   D(22,20,23,24)        -60.0958                                         !
 ! D63   D(22,20,23,25)         54.673                                          !
 ! D64   D(22,20,23,27)        176.6026                                         !
 ! D65   D(20,22,39,40)          9.1706                                         !
 ! D66   D(20,22,39,41)        148.5514                                         !
 ! D67   D(26,22,39,40)       -173.2607                                         !
 ! D68   D(26,22,39,41)        -33.8799                                         !
 ! D69   D(20,23,27,28)       -129.0528                                         !
 ! D70   D(20,23,27,30)         48.7253                                         !
 ! D71   D(24,23,27,28)        109.9055                                         !
 ! D72   D(24,23,27,30)        -72.3164                                         !
 ! D73   D(25,23,27,28)         -8.47                                           !
 ! D74   D(25,23,27,30)        169.3081                                         !
 ! D75   D(23,27,28,29)         -3.4048                                         !
 ! D76   D(23,27,28,32)        175.4997                                         !
 ! D77   D(30,27,28,29)        178.7284                                         !
 ! D78   D(30,27,28,32)         -2.3671                                         !
 ! D79   D(23,27,30,31)          4.2264                                         !
 ! D80   D(23,27,30,34)       -175.0393                                         !
 ! D81   D(28,27,30,31)       -177.931                                          !
 ! D82   D(28,27,30,34)          2.8033                                         !
 ! D83   D(27,28,32,33)       -178.5087                                         !
 ! D84   D(27,28,32,38)         -0.483                                          !
 ! D85   D(29,28,32,33)          0.4016                                         !
 ! D86   D(29,28,32,38)        178.4273                                         !
 ! D87   D(27,30,34,35)        178.7268                                         !
 ! D88   D(27,30,34,38)         -0.3764                                         !
 ! D89   D(31,30,34,35)         -0.5524                                         !
 ! D90   D(31,30,34,38)       -179.6556                                         !
 ! D91   D(28,32,38,34)          2.9818                                         !
 ! D92   D(28,32,38,36)       -175.2569                                         !
 ! D93   D(33,32,38,34)       -178.993                                          !
 ! D94   D(33,32,38,36)          2.7682                                         !
 ! D95   D(30,34,38,32)         -2.5607                                         !
 ! D96   D(30,34,38,36)        175.789                                          !
 ! D97   D(35,34,38,32)        178.3145                                         !
 ! D98   D(35,34,38,36)         -3.3357                                         !
 ! D99   D(37,36,38,32)         97.13                                           !
 ! D100  D(37,36,38,34)        -81.1534                                         !
 ! D101  D(62,36,38,32)         -5.3005                                         !
 ! D102  D(62,36,38,34)        176.4161                                         !
 ! D103  D(22,39,41,42)          5.4313                                         !
 ! D104  D(22,39,41,43)       -105.4709                                         !
 ! D105  D(22,39,41,44)        127.2486                                         !
 ! D106  D(40,39,41,42)        145.6868                                         !
 ! D107  D(40,39,41,43)         34.7847                                         !
 ! D108  D(40,39,41,44)        -92.4958                                         !
 ! D109  D(39,41,43,47)        144.4462                                         !
 ! D110  D(39,41,43,61)        -34.8104                                         !
 ! D111  D(42,41,43,47)         31.5459                                         !
 ! D112  D(42,41,43,61)       -147.7107                                         !
 ! D113  D(44,41,43,47)        -86.4477                                         !
 ! D114  D(44,41,43,61)         94.2957                                         !
 ! D115  D(39,41,44,45)        -19.842                                          !
 ! D116  D(39,41,44,46)         95.6048                                         !
 ! D117  D(39,41,44,48)       -142.3523                                         !
 ! D118  D(42,41,44,45)        100.1891                                         !
 ! D119  D(42,41,44,46)       -144.364                                          !
 ! D120  D(42,41,44,48)        -22.3212                                         !
 ! D121  D(43,41,44,45)       -145.6432                                         !
 ! D122  D(43,41,44,46)        -30.1964                                         !
 ! D123  D(43,41,44,48)         91.8465                                         !
 ! D124  D(41,44,48,49)        -29.8445                                         !
 ! D125  D(41,44,48,50)       -144.4461                                         !
 ! D126  D(41,44,48,51)         95.4058                                         !
 ! D127  D(45,44,48,49)       -151.104                                          !
 ! D128  D(45,44,48,50)         94.2945                                         !
 ! D129  D(45,44,48,51)        -25.8536                                         !
 ! D130  D(46,44,48,49)         91.7834                                         !
 ! D131  D(46,44,48,50)        -22.8182                                         !
 ! D132  D(46,44,48,51)       -142.9662                                         !
 ! D133  D(44,48,51,52)         73.3409                                         !
 ! D134  D(44,48,51,53)       -171.3779                                         !
 ! D135  D(44,48,51,54)        -45.1604                                         !
 ! D136  D(49,48,51,52)       -162.7646                                         !
 ! D137  D(49,48,51,53)        -47.4834                                         !
 ! D138  D(49,48,51,54)         78.7341                                         !
 ! D139  D(50,48,51,52)        -48.8943                                         !
 ! D140  D(50,48,51,53)         66.3869                                         !
 ! D141  D(50,48,51,54)       -167.3956                                         !
 ! D142  D(48,51,54,55)         56.498                                          !
 ! D143  D(48,51,54,56)        176.9963                                         !
 ! D144  D(48,51,54,57)        -62.481                                          !
 ! D145  D(52,51,54,55)        -64.072                                          !
 ! D146  D(52,51,54,56)         56.4263                                         !
 ! D147  D(52,51,54,57)        176.949                                          !
 ! D148  D(53,51,54,55)       -177.1208                                         !
 ! D149  D(53,51,54,56)        -56.6225                                         !
 ! D150  D(53,51,54,57)         63.9002                                         !
 ! D151  D(51,54,57,58)       -122.1985                                         !
 ! D152  D(51,54,57,59)        118.7112                                         !
 ! D153  D(51,54,57,60)         -1.2306                                         !
 ! D154  D(55,54,57,58)        114.8886                                         !
 ! D155  D(55,54,57,59)         -4.2018                                         !
 ! D156  D(55,54,57,60)       -124.1436                                         !
 ! D157  D(56,54,57,58)          0.2176                                         !
 ! D158  D(56,54,57,59)       -118.8728                                         !
 ! D159  D(56,54,57,60)        121.1854                                         !
 --------------------------------------------------------------------------------
 Symmetry turned off by external request.
 Stoichiometry    C20H31N4O7(1+)
 Framework group  C1[X(C20H31N4O7)]
 Deg. of freedom   180
 Full point group                 C1      NOp   1
                          Input orientation:                          
 ---------------------------------------------------------------------
 Center     Atomic      Atomic             Coordinates (Angstroms)
 Number     Number       Type             X           Y           Z
 ---------------------------------------------------------------------
      1          7           0       -0.090724   -0.448059    2.621904
      2          1           0        0.876579    0.888115    2.876830
      3          1           0       -0.775745   -0.700595    3.332744
      4          1           0        0.599235   -1.199974    2.570919
      5          6           0       -0.744099   -0.301616    1.301138
      6          1           0       -1.400952    0.568742    1.350254
      7          6           0        0.381726   -0.026486    0.289008
      8          6           0       -1.571497   -1.549307    0.921213
      9          1           0       -2.391356   -1.641711    1.644483
     10          1           0       -0.930580   -2.429921    1.051257
     11          8           0        1.451620   -0.632973    0.351576
     12          6           0       -2.131991   -1.603401   -0.510392
     13          1           0       -2.686744   -2.533552   -0.655265
     14          1           0       -1.306747   -1.614532   -1.231710
     15          6           0       -3.003180   -0.436648   -0.922489
     16          8           0       -2.745894    0.740768   -0.723991
     17          8           0       -4.096502   -0.831913   -1.591063
     18          7           0        0.149818    0.971260   -0.608203
     19          1           0       -0.822042    1.240023   -0.759377
     20          6           0        1.143625    1.325951   -1.627188
     21          1           0        0.853480    2.321232   -1.984835
     22          6           0        2.516987    1.486728   -0.951880
     23          6           0        1.201690    0.353229   -2.820820
     24          1           0        1.914460    0.760231   -3.548482
     25          1           0        1.622452   -0.592261   -2.467322
     26          8           0        3.544418    1.013493   -1.468513
     27          6           0       -0.161536    0.125513   -3.440194
     28          6           0       -0.636832   -1.171337   -3.660301
     29          1           0        0.003006   -2.021705   -3.434622
     30          6           0       -1.009968    1.194596   -3.770675
     31          1           0       -0.669116    2.220240   -3.647815
     32          6           0       -1.925686   -1.404782   -4.143433
     33          1           0       -2.280122   -2.423654   -4.283255
     34          6           0       -2.299214    0.982644   -4.244131
     35          1           0       -2.957885    1.812561   -4.478734
     36          8           0       -4.074261   -0.467700   -4.790674
     37          1           0       -4.547285   -0.033599   -1.929473
     38          6           0       -2.772340   -0.324564   -4.407161
     39          7           0        2.515537    2.210533    0.192392
     40          1           0        1.592265    2.440087    0.551256
     41          6           0        3.470901    1.910037    1.258690
     42          1           0        4.133548    1.142564    0.868680
     43          6           0        2.738411    1.196169    2.407206
     44          6           0        4.306065    3.113889    1.759636
     45          1           0        4.288526    3.900356    0.996123
     46          1           0        3.831833    3.545660    2.646669
     47          8           0        3.271508    0.324110    3.057199
     48          6           0        5.754405    2.685987    2.081399
     49          1           0        5.750827    1.635197    2.401760
     50          1           0        6.133083    3.242145    2.944927
     51          6           0        6.759243    2.920885    0.929875
     52          1           0        6.957666    3.997521    0.854348
     53          1           0        7.722513    2.454859    1.175578
     54          6           0        6.337456    2.506941   -0.480928
     55          1           0        5.406611    2.988812   -0.787143
     56          1           0        7.110934    2.773982   -1.203252
     57          7           0        6.076255    1.011008   -0.639541
     58          1           0        6.664659    0.589293   -1.362690
     59          1           0        5.047352    0.887816   -0.927571
     60          1           0        6.244297    0.497574    0.230670
     61          8           0        1.492272    1.648335    2.556594
     62          1           0       -4.274056   -1.407500   -4.926332
 ---------------------------------------------------------------------
 Rotational constants (GHZ):           0.2797174           0.0848972           0.0713006
 Standard basis: 6-31G(d) (6D, 7F)
   527 basis functions,   992 primitive gaussians,   527 cartesian basis functions
   117 alpha electrons      117 beta electrons
       nuclear repulsion energy      3462.0286730564 Hartrees.
 NAtoms=   62 NActive=   62 NUniq=   62 SFac= 1.00D+00 NAtFMM=   60 NAOKFM=T Big=T
 Integral buffers will be    131072 words long.
 Raffenetti 2 integral format.
 Two-electron integral symmetry is turned off.
 Nuclear repulsion after empirical dispersion term =     3461.9376679702 Hartrees.
 One-electron integrals computed using PRISM.
 NBasis=   527 RedAO= T EigKep=  4.24D-04  NBF=   527
 NBsUse=   527 1.00D-06 EigRej= -1.00D+00 NBFU=   527
 Initial guess from the checkpoint file:  "conf-222.chk"
 B after Tr=     0.000000    0.000000    0.000000
         Rot=    1.000000    0.000000    0.000000    0.000000 Ang=   0.00 deg.
 Requested convergence on RMS density matrix=1.00D-08 within 128 cycles.
 Requested convergence on MAX density matrix=1.00D-06.
 Requested convergence on             energy=1.00D-06.
 No special actions if energy rises.
 SCF Done:  E(RB3LYP) =  -1526.31750090     A.U. after    1 cycles
            NFock=  1  Conv=0.43D-08     -V/T= 2.0093

 **********************************************************************

            Population analysis using the SCF Density.

 **********************************************************************

 Alpha  occ. eigenvalues --  -19.29090 -19.25990 -19.25922 -19.25645 -19.23893
 Alpha  occ. eigenvalues --  -19.22463 -19.22272 -14.57711 -14.47319 -14.46336
 Alpha  occ. eigenvalues --  -14.44399 -10.42078 -10.41820 -10.40568 -10.39206
 Alpha  occ. eigenvalues --  -10.38169 -10.34743 -10.34528 -10.33256 -10.32998
 Alpha  occ. eigenvalues --  -10.32438 -10.30555 -10.30280 -10.29671 -10.29558
 Alpha  occ. eigenvalues --  -10.28442 -10.27899 -10.27680 -10.27649 -10.27372
 Alpha  occ. eigenvalues --  -10.26901  -1.20174  -1.17868  -1.16631  -1.14231
 Alpha  occ. eigenvalues --   -1.14029  -1.12301  -1.11105  -1.09470  -1.04952
 Alpha  occ. eigenvalues --   -1.02608  -1.00459  -0.93990  -0.93295  -0.89878
 Alpha  occ. eigenvalues --   -0.88972  -0.87789  -0.83830  -0.83300  -0.82150
 Alpha  occ. eigenvalues --   -0.80673  -0.77426  -0.75901  -0.74185  -0.72222
 Alpha  occ. eigenvalues --   -0.71923  -0.71104  -0.70300  -0.69979  -0.69229
 Alpha  occ. eigenvalues --   -0.68577  -0.68102  -0.66645  -0.63937  -0.62835
 Alpha  occ. eigenvalues --   -0.62636  -0.62276  -0.61475  -0.59951  -0.59334
 Alpha  occ. eigenvalues --   -0.58758  -0.58321  -0.57898  -0.57064  -0.56878
 Alpha  occ. eigenvalues --   -0.56236  -0.55400  -0.55170  -0.54963  -0.54068
 Alpha  occ. eigenvalues --   -0.53954  -0.53113  -0.52702  -0.52277  -0.52107
 Alpha  occ. eigenvalues --   -0.51524  -0.51093  -0.50846  -0.50603  -0.50295
 Alpha  occ. eigenvalues --   -0.49507  -0.48738  -0.48365  -0.48263  -0.47889
 Alpha  occ. eigenvalues --   -0.47584  -0.46726  -0.46176  -0.45727  -0.45442
 Alpha  occ. eigenvalues --   -0.45358  -0.45056  -0.44479  -0.43887  -0.42076
 Alpha  occ. eigenvalues --   -0.41614  -0.40928  -0.40289  -0.39455  -0.39057
 Alpha  occ. eigenvalues --   -0.37638  -0.37435  -0.36059  -0.35803  -0.34528
 Alpha  occ. eigenvalues --   -0.33613  -0.30191
 Alpha virt. eigenvalues --   -0.11211  -0.10138  -0.09636  -0.09170  -0.08544
 Alpha virt. eigenvalues --   -0.07392  -0.07037  -0.05770  -0.02607  -0.01996
 Alpha virt. eigenvalues --   -0.01395  -0.01328  -0.00384   0.00342   0.00694
 Alpha virt. eigenvalues --    0.01055   0.01625   0.02366   0.02799   0.02861
 Alpha virt. eigenvalues --    0.03642   0.03824   0.04076   0.04336   0.04954
 Alpha virt. eigenvalues --    0.05598   0.05894   0.06506   0.06787   0.07452
 Alpha virt. eigenvalues --    0.07955   0.08140   0.08588   0.08703   0.09046
 Alpha virt. eigenvalues --    0.09388   0.09771   0.09852   0.10611   0.10849
 Alpha virt. eigenvalues --    0.11596   0.12590   0.13033   0.13498   0.14125
 Alpha virt. eigenvalues --    0.14876   0.15148   0.16125   0.16574   0.16920
 Alpha virt. eigenvalues --    0.17321   0.17771   0.17890   0.19032   0.20106
 Alpha virt. eigenvalues --    0.21795   0.22700   0.23168   0.23798   0.25498
 Alpha virt. eigenvalues --    0.25670   0.26761   0.27688   0.28660   0.29308
 Alpha virt. eigenvalues --    0.31610   0.33374   0.36788   0.37132   0.37883
 Alpha virt. eigenvalues --    0.38759   0.39686   0.40193   0.41370   0.41860
 Alpha virt. eigenvalues --    0.42597   0.42996   0.43424   0.43856   0.45292
 Alpha virt. eigenvalues --    0.45395   0.45894   0.46563   0.46756   0.47383
 Alpha virt. eigenvalues --    0.47830   0.47961   0.49592   0.49760   0.50129
 Alpha virt. eigenvalues --    0.50387   0.50965   0.51623   0.52101   0.52415
 Alpha virt. eigenvalues --    0.52997   0.53120   0.53367   0.53806   0.54407
 Alpha virt. eigenvalues --    0.55130   0.55663   0.56594   0.56685   0.57338
 Alpha virt. eigenvalues --    0.57680   0.58258   0.58907   0.60103   0.61115
 Alpha virt. eigenvalues --    0.61824   0.62145   0.63667   0.64208   0.64673
 Alpha virt. eigenvalues --    0.65199   0.65877   0.66485   0.67002   0.67179
 Alpha virt. eigenvalues --    0.68675   0.69100   0.69325   0.69985   0.70892
 Alpha virt. eigenvalues --    0.71445   0.71951   0.72181   0.72404   0.72739
 Alpha virt. eigenvalues --    0.73271   0.73574   0.73798   0.74329   0.74915
 Alpha virt. eigenvalues --    0.75180   0.75725   0.76201   0.76703   0.77199
 Alpha virt. eigenvalues --    0.77679   0.77856   0.78380   0.78838   0.79630
 Alpha virt. eigenvalues --    0.79831   0.80216   0.80653   0.81170   0.82238
 Alpha virt. eigenvalues --    0.82254   0.82388   0.82790   0.83445   0.83498
 Alpha virt. eigenvalues --    0.84232   0.84787   0.85407   0.86042   0.86472
 Alpha virt. eigenvalues --    0.86962   0.87269   0.87949   0.88668   0.89175
 Alpha virt. eigenvalues --    0.89589   0.90425   0.90857   0.91703   0.92205
 Alpha virt. eigenvalues --    0.93375   0.93947   0.94794   0.95376   0.95649
 Alpha virt. eigenvalues --    0.96895   0.98196   0.99613   1.00104   1.00853
 Alpha virt. eigenvalues --    1.01319   1.02773   1.03389   1.04265   1.05316
 Alpha virt. eigenvalues --    1.05859   1.06799   1.08584   1.09735   1.10283
 Alpha virt. eigenvalues --    1.11947   1.12472   1.13328   1.14798   1.16161
 Alpha virt. eigenvalues --    1.16781   1.17374   1.18409   1.19675   1.21429
 Alpha virt. eigenvalues --    1.22311   1.23635   1.24673   1.25985   1.28012
 Alpha virt. eigenvalues --    1.28729   1.29431   1.29683   1.29976   1.31160
 Alpha virt. eigenvalues --    1.32485   1.33153   1.33718   1.34525   1.35804
 Alpha virt. eigenvalues --    1.36717   1.37523   1.37661   1.38152   1.39966
 Alpha virt. eigenvalues --    1.40525   1.41369   1.42760   1.43022   1.45579
 Alpha virt. eigenvalues --    1.47117   1.47670   1.48395   1.49451   1.50140
 Alpha virt. eigenvalues --    1.51647   1.52656   1.52777   1.54813   1.55223
 Alpha virt. eigenvalues --    1.58337   1.58580   1.59989   1.60711   1.61613
 Alpha virt. eigenvalues --    1.63143   1.63716   1.64002   1.65785   1.65992
 Alpha virt. eigenvalues --    1.66601   1.67835   1.67900   1.68969   1.69334
 Alpha virt. eigenvalues --    1.70158   1.70585   1.70729   1.71253   1.72982
 Alpha virt. eigenvalues --    1.73218   1.73998   1.74234   1.74476   1.75268
 Alpha virt. eigenvalues --    1.75469   1.77470   1.77932   1.78992   1.79426
 Alpha virt. eigenvalues --    1.79736   1.80369   1.80833   1.82116   1.83094
 Alpha virt. eigenvalues --    1.83338   1.84386   1.85165   1.85957   1.86395
 Alpha virt. eigenvalues --    1.87010   1.87880   1.88218   1.88414   1.89600
 Alpha virt. eigenvalues --    1.90405   1.91403   1.91629   1.92175   1.92364
 Alpha virt. eigenvalues --    1.93572   1.94906   1.95941   1.96333   1.96990
 Alpha virt. eigenvalues --    1.97865   1.98709   1.99055   2.00753   2.01267
 Alpha virt. eigenvalues --    2.02635   2.04529   2.05209   2.05591   2.07126
 Alpha virt. eigenvalues --    2.07327   2.08155   2.09033   2.10438   2.10751
 Alpha virt. eigenvalues --    2.13550   2.16223   2.18524   2.18696   2.18846
 Alpha virt. eigenvalues --    2.19316   2.20919   2.22070   2.22679   2.23170
 Alpha virt. eigenvalues --    2.23360   2.25294   2.26030   2.27222   2.27336
 Alpha virt. eigenvalues --    2.27701   2.29138   2.30798   2.32069   2.32492
 Alpha virt. eigenvalues --    2.32679   2.33214   2.34872   2.35122   2.36646
 Alpha virt. eigenvalues --    2.37595   2.38344   2.39758   2.40841   2.42099
 Alpha virt. eigenvalues --    2.43731   2.44027   2.45251   2.46073   2.48901
 Alpha virt. eigenvalues --    2.49845   2.50588   2.51365   2.52655   2.53277
 Alpha virt. eigenvalues --    2.54489   2.56044   2.57040   2.57789   2.58757
 Alpha virt. eigenvalues --    2.59169   2.59869   2.60599   2.62114   2.65359
 Alpha virt. eigenvalues --    2.66917   2.67080   2.68203   2.71213   2.71939
 Alpha virt. eigenvalues --    2.72717   2.74771   2.77937   2.79203   2.80336
 Alpha virt. eigenvalues --    2.82002   2.82951   2.84954   2.89702   2.90944
 Alpha virt. eigenvalues --    2.91726   2.92186   2.95963   2.99137   3.00195
 Alpha virt. eigenvalues --    3.03988   3.05827   3.08013   3.33335   3.68245
 Alpha virt. eigenvalues --    3.76686   3.79240   3.88419   3.90392   3.90954
 Alpha virt. eigenvalues --    3.97796   4.00528   4.04189   4.05651   4.08290
 Alpha virt. eigenvalues --    4.11270   4.12407   4.13588   4.19687   4.21490
 Alpha virt. eigenvalues --    4.22553   4.25228   4.25859   4.30483   4.33193
 Alpha virt. eigenvalues --    4.33598   4.38603   4.41041   4.43229   4.44926
 Alpha virt. eigenvalues --    4.47704   4.54686   4.60820   4.67818   4.72702
          Condensed to atoms (all electrons):
 Mulliken charges:
               1
     1  N   -0.782340
     2  H    0.466885
     3  H    0.339806
     4  H    0.354808
     5  C   -0.060161
     6  H    0.187769
     7  C    0.613027
     8  C   -0.279956
     9  H    0.165246
    10  H    0.167925
    11  O   -0.543324
    12  C   -0.385392
    13  H    0.191149
    14  H    0.204069
    15  C    0.622925
    16  O   -0.494158
    17  O   -0.549446
    18  N   -0.639833
    19  H    0.395344
    20  C   -0.067486
    21  H    0.186379
    22  C    0.656883
    23  C   -0.345715
    24  H    0.171268
    25  H    0.179587
    26  O   -0.586361
    27  C    0.173894
    28  C   -0.225143
    29  H    0.141526
    30  C   -0.196755
    31  H    0.130794
    32  C   -0.185334
    33  H    0.138976
    34  C   -0.157674
    35  H    0.157947
    36  O   -0.642560
    37  H    0.428826
    38  C    0.346534
    39  N   -0.578997
    40  H    0.370366
    41  C   -0.055453
    42  H    0.136558
    43  C    0.612345
    44  C   -0.290155
    45  H    0.162295
    46  H    0.189173
    47  O   -0.464092
    48  C   -0.294586
    49  H    0.166116
    50  H    0.184816
    51  C   -0.306655
    52  H    0.193073
    53  H    0.172284
    54  C   -0.184342
    55  H    0.214497
    56  H    0.209926
    57  N   -0.784289
    58  H    0.408994
    59  H    0.458552
    60  H    0.407822
    61  O   -0.626943
    62  H    0.418770
 Sum of Mulliken charges =   1.00000
 Mulliken charges with hydrogens summed into heavy atoms:
               1
     1  N   -0.087726
     5  C    0.127608
     7  C    0.613027
     8  C    0.053215
    11  O   -0.543324
    12  C    0.009826
    15  C    0.622925
    16  O   -0.494158
    17  O   -0.120620
    18  N   -0.244489
    20  C    0.118892
    22  C    0.656883
    23  C    0.005139
    26  O   -0.586361
    27  C    0.173894
    28  C   -0.083617
    30  C   -0.065962
    32  C   -0.046358
    34  C    0.000272
    36  O   -0.223790
    38  C    0.346534
    39  N   -0.208631
    41  C    0.081105
    43  C    0.612345
    44  C    0.061312
    47  O   -0.464092
    48  C    0.056346
    51  C    0.058702
    54  C    0.240081
    57  N    0.491080
    61  O   -0.160058
 Electronic spatial extent (au):  <R**2>=          16112.2922
 Charge=              1.0000 electrons
 Dipole moment (field-independent basis, Debye):
    X=             13.8054    Y=              3.8492    Z=             -3.3497  Tot=             14.7182
 Quadrupole moment (field-independent basis, Debye-Ang):
   XX=            -35.4849   YY=           -151.5153   ZZ=           -164.6791
   XY=             45.7597   XZ=             -4.0378   YZ=              4.4886
 Traceless Quadrupole moment (field-independent basis, Debye-Ang):
   XX=             81.7415   YY=            -34.2888   ZZ=            -47.4527
   XY=             45.7597   XZ=             -4.0378   YZ=              4.4886
 Octapole moment (field-independent basis, Debye-Ang**2):
  XXX=            331.7917  YYY=           -289.1601  ZZZ=            325.7273  XYY=            -88.5415
  XXY=             86.7511  XXZ=             14.7819  XZZ=           -214.8640  YZZ=           -141.4485
  YYZ=             94.8416  XYZ=             -9.6720
 Hexadecapole moment (field-independent basis, Debye-Ang**3):
 XXXX=          -5320.7713 YYYY=          -2469.8210 ZZZZ=          -6336.3826 XXXY=           -556.7376
 XXXZ=          -1837.2116 YYYX=          -1699.9445 YYYZ=           -295.3640 ZZZX=          -1632.4794
 ZZZY=           -186.2528 XXYY=          -1744.8497 XXZZ=          -2695.5552 YYZZ=          -1294.2503
 XXYZ=             81.2108 YYXZ=           -394.6938 ZZXY=           -426.7843
 N-N= 3.461937667970D+03 E-N=-1.045905830836D+04  KE= 1.512250538681D+03
 Unable to Open any file for archive entry.
 1\1\GINC-NAL-000\SP\RB3LYP\6-31G(d)\C20H31N4O7(1+)\KENGMITH\02-Jun-202
 2\0\\# B3LYP/6-31G* empiricaldispersion=gd3 guess=read geom=check nosy
 mm integral(ultrafinegrid)\\Candidate Structure: Conf:222 Charge calc 
 in gas phase\\1,1\N,0,-0.0907241823,-0.4480590613,2.6219042981\H,0,0.8
 765790335,0.8881154776,2.8768298605\H,0,-0.775745369,-0.7005951575,3.3
 327444152\H,0,0.5992345685,-1.1999736223,2.5709189038\C,0,-0.744099453
 9,-0.301615755,1.3011380952\H,0,-1.4009517036,0.5687424903,1.350253656
 6\C,0,0.3817264437,-0.0264858753,0.2890084119\C,0,-1.5714971861,-1.549
 3065616,0.9212132077\H,0,-2.391356426,-1.6417109747,1.6444826127\H,0,-
 0.9305804938,-2.4299211997,1.0512567002\O,0,1.4516196969,-0.6329726991
 ,0.3515761747\C,0,-2.131991493,-1.6034012691,-0.5103923375\H,0,-2.6867
 441234,-2.5335518587,-0.6552645659\H,0,-1.3067468048,-1.6145316305,-1.
 2317098767\C,0,-3.0031804434,-0.4366478604,-0.9224890441\O,0,-2.745894
 3788,0.7407680698,-0.723990915\O,0,-4.0965023665,-0.8319130316,-1.5910
 629332\N,0,0.1498182543,0.9712599996,-0.6082034056\H,0,-0.8220420173,1
 .2400226462,-0.7593773992\C,0,1.1436248817,1.3259512145,-1.6271876208\
 H,0,0.8534804888,2.3212318677,-1.9848351463\C,0,2.5169868914,1.4867281
 306,-0.9518800675\C,0,1.2016904006,0.3532288011,-2.8208195913\H,0,1.91
 44603595,0.7602306709,-3.5484822605\H,0,1.6224521301,-0.592260523,-2.4
 673218578\O,0,3.5444181075,1.0134930287,-1.4685128452\C,0,-0.161536200
 5,0.1255126387,-3.4401938128\C,0,-0.6368319823,-1.1713374496,-3.660300
 9259\H,0,0.0030056404,-2.0217045546,-3.4346218238\C,0,-1.0099675207,1.
 1945958382,-3.7706747632\H,0,-0.6691162398,2.2202402932,-3.6478150888\
 C,0,-1.9256862245,-1.4047819315,-4.1434330858\H,0,-2.2801218548,-2.423
 6541684,-4.2832549864\C,0,-2.2992144607,0.982643907,-4.2441309517\H,0,
 -2.9578849887,1.8125613076,-4.4787343976\O,0,-4.0742605857,-0.46770011
 5,-4.7906739649\H,0,-4.5472854808,-0.0335987437,-1.9294733982\C,0,-2.7
 723401172,-0.3245642584,-4.4071608741\N,0,2.5155371644,2.2105326681,0.
 1923919358\H,0,1.5922647154,2.4400868434,0.5512555966\C,0,3.4709011425
 ,1.9100368793,1.2586900694\H,0,4.1335483116,1.1425636739,0.8686802645\
 C,0,2.7384106071,1.1961690906,2.4072064437\C,0,4.3060646435,3.11388881
 61,1.7596363708\H,0,4.2885263798,3.9003561748,0.996123476\H,0,3.831833
 091,3.5456600139,2.6466686817\O,0,3.2715075821,0.3241101385,3.05719887
 15\C,0,5.7544052696,2.6859872312,2.0813986586\H,0,5.7508266567,1.63519
 74531,2.4017597964\H,0,6.1330828914,3.2421452487,2.9449272604\C,0,6.75
 9242947,2.9208850495,0.9298746839\H,0,6.957666114,3.9975208651,0.85434
 80214\H,0,7.7225126539,2.454858663,1.1755782887\C,0,6.3374559974,2.506
 9409326,-0.4809276686\H,0,5.4066109852,2.988812489,-0.78714259\H,0,7.1
 109337603,2.7739822231,-1.2032523476\N,0,6.0762554894,1.0110081568,-0.
 6395410831\H,0,6.6646589698,0.5892928428,-1.3626898882\H,0,5.047352024
 4,0.8878157989,-0.9275705778\H,0,6.2442969056,0.4975737843,0.230669532
 3\O,0,1.4922723986,1.6483348248,2.5565941286\H,0,-4.2740563904,-1.4074
 999221,-4.9263319717\\Version=ES64L-G16RevC.01\HF=-1526.3175009\RMSD=4
 .259e-09\Dipole=3.7175446,0.3742915,-0.1741884\Quadrupole=60.7728079,-
 25.4928983,-35.2799095,34.0212506,-3.0019931,3.3371645\PG=C01 [X(C20H3
 1N4O7)]\\@
 The archive entry for this job was punched.


 BULLDOZER: SOMEONE WHO SLEEPS THROUGH SPEECHES.
 Job cpu time:       0 days  0 hours  1 minutes  3.3 seconds.
 Elapsed time:       0 days  0 hours  0 minutes 16.3 seconds.
 File lengths (MBytes):  RWF=    264 Int=      0 D2E=      0 Chk=     40 Scr=     16
 Normal termination of Gaussian 16 at Thu Jun  2 00:02:28 2022.
