 Entering Gaussian System, Link 0=/opt/software/Gaussian/g16-AVX2-C.01/g16/g16
 Input=charge-conf-126.com
 Output=charge-conf-126.log
 Initial command:
 /opt/software/Gaussian/g16-AVX2-C.01/g16/l1.exe "/mnt/gs21/scratch/kengmith/Gau-45673.inp" -scrdir="/mnt/gs21/scratch/kengmith/"
 Entering Link 1 = /opt/software/Gaussian/g16-AVX2-C.01/g16/l1.exe PID=     45702.
  
 Copyright (c) 1988-2019, Gaussian, Inc.  All Rights Reserved.
  
 This is part of the Gaussian(R) 16 program.  It is based on
 the Gaussian(R) 09 system (copyright 2009, Gaussian, Inc.),
 the Gaussian(R) 03 system (copyright 2003, Gaussian, Inc.),
 the Gaussian(R) 98 system (copyright 1998, Gaussian, Inc.),
 the Gaussian(R) 94 system (copyright 1995, Gaussian, Inc.),
 the Gaussian 92(TM) system (copyright 1992, Gaussian, Inc.),
 the Gaussian 90(TM) system (copyright 1990, Gaussian, Inc.),
 the Gaussian 88(TM) system (copyright 1988, Gaussian, Inc.),
 the Gaussian 86(TM) system (copyright 1986, Carnegie Mellon
 University), and the Gaussian 82(TM) system (copyright 1983,
 Carnegie Mellon University). Gaussian is a federally registered
 trademark of Gaussian, Inc.
  
 This software contains proprietary and confidential information,
 including trade secrets, belonging to Gaussian, Inc.
  
 This software is provided under written license and may be
 used, copied, transmitted, or stored only in accord with that
 written license.
  
 The following legend is applicable only to US Government
 contracts under FAR:
  
                    RESTRICTED RIGHTS LEGEND
  
 Use, reproduction and disclosure by the US Government is
 subject to restrictions as set forth in subparagraphs (a)
 and (c) of the Commercial Computer Software - Restricted
 Rights clause in FAR 52.227-19.
  
 Gaussian, Inc.
 340 Quinnipiac St., Bldg. 40, Wallingford CT 06492
  
  
 ---------------------------------------------------------------
 Warning -- This program may not be used in any manner that
 competes with the business of Gaussian, Inc. or will provide
 assistance to any competitor of Gaussian, Inc.  The licensee
 of this program is prohibited from giving any competitor of
 Gaussian, Inc. access to this program.  By using this program,
 the user acknowledges that Gaussian, Inc. is engaged in the
 business of creating and licensing software in the field of
 computational chemistry and represents and warrants to the
 licensee that it is not a competitor of Gaussian, Inc. and that
 it will not use this program in any manner prohibited above.
 ---------------------------------------------------------------
  

 Cite this work as:
 Gaussian 16, Revision C.01,
 M. J. Frisch, G. W. Trucks, H. B. Schlegel, G. E. Scuseria, 
 M. A. Robb, J. R. Cheeseman, G. Scalmani, V. Barone, 
 G. A. Petersson, H. Nakatsuji, X. Li, M. Caricato, A. V. Marenich, 
 J. Bloino, B. G. Janesko, R. Gomperts, B. Mennucci, H. P. Hratchian, 
 J. V. Ortiz, A. F. Izmaylov, J. L. Sonnenberg, D. Williams-Young, 
 F. Ding, F. Lipparini, F. Egidi, J. Goings, B. Peng, A. Petrone, 
 T. Henderson, D. Ranasinghe, V. G. Zakrzewski, J. Gao, N. Rega, 
 G. Zheng, W. Liang, M. Hada, M. Ehara, K. Toyota, R. Fukuda, 
 J. Hasegawa, M. Ishida, T. Nakajima, Y. Honda, O. Kitao, H. Nakai, 
 T. Vreven, K. Throssell, J. A. Montgomery, Jr., J. E. Peralta, 
 F. Ogliaro, M. J. Bearpark, J. J. Heyd, E. N. Brothers, K. N. Kudin, 
 V. N. Staroverov, T. A. Keith, R. Kobayashi, J. Normand, 
 K. Raghavachari, A. P. Rendell, J. C. Burant, S. S. Iyengar, 
 J. Tomasi, M. Cossi, J. M. Millam, M. Klene, C. Adamo, R. Cammi, 
 J. W. Ochterski, R. L. Martin, K. Morokuma, O. Farkas, 
 J. B. Foresman, and D. J. Fox, Gaussian, Inc., Wallingford CT, 2019.
 
 ******************************************
 Gaussian 16:  ES64L-G16RevC.01  3-Jul-2019
                12-Aug-2022 
 ******************************************
 %mem=8gb
 %nproc=4
 Will use up to    4 processors via shared memory.
 %chk=conf-126.chk
 -------------------------------------------------------------------
 # B3LYP/6-31G* guess=read geom=check nosymm integral(ultrafinegrid)
 -------------------------------------------------------------------
 1/29=2,38=1,172=1/1;
 2/12=2,15=1,40=1/2;
 3/5=1,6=6,7=1,11=2,14=-4,25=1,30=1,74=-5,75=-5,116=-2/1,2,3;
 4/5=1/1;
 5/5=2,38=6/2;
 6/7=2,8=2,9=2,10=2,28=1/1;
 99/5=1,9=1/99;
 ------------------------------------------------------
 Candidate Structure: Conf:126 Charge calc in gas phase
 ------------------------------------------------------
 Structure from the checkpoint file:  "conf-126.chk"
 Charge =  1 Multiplicity = 1
 Redundant internal coordinates found in file.  (old form).
 N,0,-1.7078161325,-3.7295482778,6.6416128378
 H,0,-2.1834340164,-4.5117902174,7.0983223301
 H,0,-1.5310076875,-3.9684805345,5.6195237325
 H,0,-0.8238731681,-3.5489488897,7.1256755256
 C,0,-2.5705468521,-2.4833553383,6.5217446136
 H,0,-3.4686282423,-2.6438816786,7.124221955
 C,0,-2.9270989761,-2.4772218544,5.0075916123
 C,0,-1.7902180012,-1.2526059264,7.0596713579
 H,0,-1.5116179699,-1.5361626588,8.0872652766
 O,0,-2.3003099021,-3.2660610824,4.2705968308
 C,0,-0.5084368757,-0.9488641698,6.2671159658
 H,0,-0.7102029732,-0.5482828966,5.269161791
 H,0,0.0729001566,-0.1916034894,6.8015415698
 H,0,0.1478343259,-1.8202157673,6.140254461
 C,0,-2.6927664997,-0.013995516,7.1756155684
 H,0,-2.9646791756,0.3956511359,6.1984054618
 H,0,-3.6114312478,-0.2248781566,7.736242199
 H,0,-2.1539703051,0.7714095802,7.71357424
 N,0,-3.877630664,-1.6476111647,4.6114850957
 H,0,-4.3462937882,-1.0040972071,5.2519047736
 C,0,-4.2348689294,-1.3933835197,3.2093713014
 H,0,-3.316117061,-1.440990547,2.6215773953
 C,0,-4.7667733077,0.0597669313,3.2269038346
 C,0,-5.2527755466,-2.4439406324,2.6719398418
 H,0,-4.8007517531,-3.4166129355,2.9136235836
 O,0,-5.2407052191,0.5227557694,4.2728067744
 C,0,-5.4126763281,-2.3886285662,1.1373266532
 H,0,-5.8291981109,-1.4177240392,0.8398239568
 H,0,-6.1760132022,-3.1305207083,0.8707427111
 C,0,-6.6133549318,-2.3531195246,3.378082556
 H,0,-7.1317683225,-1.4182648276,3.1385861373
 H,0,-6.5161374123,-2.4064803836,4.468068216
 H,0,-7.2560947132,-3.1809877927,3.0612905702
 C,0,-4.1404685162,-2.6832773877,0.3312509613
 H,0,-4.3704698803,-2.7295800439,-0.7378281023
 H,0,-3.3641179759,-1.9191028514,0.4543596329
 H,0,-3.7065855349,-3.6489693922,0.6194453826
 N,0,-4.6408619839,0.713326586,2.0654327737
 H,0,-4.214573602,0.2548738068,1.2595246859
 C,0,-5.004627539,2.0979362888,1.7698077399
 H,0,-6.0941756174,2.2163492457,1.8269210786
 C,0,-4.5355409289,2.2808639903,0.298797741
 C,0,-4.3329075723,3.1036764306,2.7535071286
 H,0,-3.2680776826,3.1827209913,2.5119039707
 H,0,-4.4134749935,2.65679426,3.748097904
 O,0,-4.093440299,1.3115272881,-0.3269436415
 C,0,-4.9644635313,4.4823140959,2.7851535159
 C,0,-4.2735214557,5.6083942733,2.3107051944
 H,0,-3.2784536682,5.4899150262,1.8866325507
 C,0,-6.2503170513,4.656805722,3.320755312
 H,0,-6.7883828388,3.7963790387,3.7136813306
 C,0,-4.8603219915,6.8765842296,2.3665104129
 H,0,-4.3101031767,7.7385378054,1.9991433915
 C,0,-6.8347647293,5.9213563426,3.3744793946
 H,0,-7.8295090786,6.0389087053,3.7956626862
 C,0,-6.1405281858,7.0361059892,2.8964907754
 H,0,-6.5948845346,8.0218588743,2.9415050774
 N,0,-4.5742755204,3.5237795173,-0.2273270702
 H,0,-4.7933921679,4.299031892,0.3899354528
 C,0,-3.7525589528,3.8389971514,-1.409427814
 H,0,-3.9752461946,3.0830067113,-2.1652750723
 C,0,-2.2703796533,3.7464062195,-0.9673559989
 C,0,-4.1029594937,5.2422687353,-1.9180525906
 H,0,-3.8991136515,5.9534328943,-1.1074095478
 H,0,-5.182945925,5.2731745142,-2.1168209313
 O,0,-1.8222661743,4.5071773596,-0.1073906422
 C,0,-3.335109624,5.6923712377,-3.1772708991
 H,0,-2.2602484581,5.6526948785,-2.9483120954
 C,0,-3.6008353928,4.7885792523,-4.3914221661
 H,0,-4.6725722855,4.7498083023,-4.6260876052
 H,0,-3.2527995544,3.7614636907,-4.2343491834
 H,0,-3.0820906448,5.1714043977,-5.277381253
 C,0,-3.6869748312,7.1523544865,-3.5006646475
 H,0,-4.7529922884,7.2564931839,-3.740771943
 H,0,-3.1161334142,7.5110574755,-4.364368692
 H,0,-3.4675088792,7.8140646152,-2.6547446417
 N,0,-1.5514216589,2.7555284415,-1.5411109296
 H,0,-1.9655216138,2.1419092908,-2.2346453058
 C,0,-0.1811264957,2.4339391373,-1.1919521341
 H,0,0.3367675599,3.3602138793,-0.9235239217
 C,0,0.4541750902,1.7469427023,-2.4165103176
 C,0,-0.0709826729,1.4007356649,-0.0354301633
 H,0,0.9913944285,1.2146992348,0.1617134749
 H,0,-0.4974185676,0.4548677798,-0.3862811769
 O,0,-0.2466176882,1.2508710753,-3.2947795082
 C,0,-0.774955515,1.7969185174,1.2737844067
 H,0,-0.3979588768,2.7395002853,1.6744804029
 H,0,-1.8450743377,1.9035950228,1.0773827584
 C,0,-0.591480998,0.7199890051,2.3180911735
 O,0,-0.0390912996,0.8597376201,3.3924615976
 O,0,-1.1007125817,-0.4700812917,1.916387703
 N,0,1.8080204392,1.6402409093,-2.3746765397
 H,0,2.2971809893,1.9369140492,-1.5318597167
 C,0,2.4999369828,0.5363345707,-3.0286617817
 H,0,1.764350772,-0.2311146049,-3.2863267317
 C,0,3.4809918483,-0.0226866235,-1.9627333363
 C,0,3.1908127598,0.976821698,-4.3379110752
 H,0,2.5453941673,1.7198385073,-4.8204983414
 H,0,4.1474980337,1.4747985763,-4.1331500897
 O,0,3.695358592,0.6233836119,-0.9285682095
 C,0,3.4114677445,-0.1872440527,-5.3047531199
 N,0,3.8378274727,0.1617639025,-6.5457020714
 H,0,3.9928475129,-0.5724347199,-7.2229034856
 H,0,3.9446937896,1.1215645442,-6.8370966813
 O,0,3.2130172057,-1.3588054992,-4.9909770779
 N,0,4.0383232756,-1.2152529798,-2.2380304817
 H,0,3.8876132251,-1.6261375552,-3.1626127523
 C,0,5.0486936853,-1.8173743897,-1.3808749101
 H,0,5.3293775847,-1.0631088805,-0.641899293
 C,0,6.2618051329,-2.1977462363,-2.2538878535
 C,0,4.5413222763,-3.0990813991,-0.672482442
 H,0,4.2995573019,-3.8351724802,-1.44791095
 H,0,5.3911094275,-3.5151541034,-0.1127654096
 O,0,6.100894775,-2.5943005588,-3.407060332
 C,0,3.3549944642,-2.9405531389,0.2617351336
 C,0,3.2877741126,-1.9225364702,1.2259868704
 H,0,4.0612718147,-1.1625729801,1.2693454301
 C,0,2.311239368,-3.872871747,0.2263061691
 H,0,2.330582343,-4.6688134285,-0.5138152478
 C,0,2.227609255,-1.8420720475,2.1265115611
 H,0,2.1736607417,-1.0434028293,2.8602965615
 C,0,1.2419311328,-3.8113442632,1.1230391311
 H,0,0.4406085673,-4.5462915038,1.0706770182
 O,0,0.1698213673,-2.6652956462,2.9918795818
 H,0,-0.5016549526,-3.3516732855,2.8427923678
 C,0,1.2098489888,-2.7943768053,2.0731454781
 N,0,7.4607402015,-2.1175030584,-1.6375719892
 H,0,7.5649475981,-1.7332697702,-0.7040076096
 C,0,8.7153015741,-2.5681722579,-2.2304025355
 H,0,8.5366787342,-3.4976970737,-2.7756519003
 C,0,9.7289051972,-2.8326700357,-1.0971627658
 C,0,9.2658313745,-1.4966343193,-3.2165522145
 H,0,8.5932278877,-1.4840384781,-4.0796204463
 H,0,9.1579101322,-0.5150825666,-2.7335500388
 O,0,10.5715540717,-3.7264169583,-1.2620587214
 C,0,10.7297308571,-1.7064380878,-3.6794341618
 H,0,11.0450304521,-2.7340215004,-3.4705577423
 H,0,10.8018577709,-1.5565540657,-4.7638150018
 C,0,11.735884839,-0.7272800003,-3.043406618
 H,0,12.7319282111,-0.8828480148,-3.4696609743
 H,0,11.460004514,0.3051155724,-3.2862257187
 N,0,11.8136533874,-0.80996826,-1.5772115693
 H,0,10.9114843937,-0.7281975883,-1.0973516848
 N,0,13.9041202283,-1.8553641162,-1.3343028254
 H,0,14.387648483,-2.6534987895,-0.9496525648
 H,0,14.1587082501,-1.6002363203,-2.2757652701
 N,0,12.3174894491,-1.8999287904,0.3773281921
 H,0,12.9345601842,-2.5098070155,0.8957507749
 H,0,11.2799502243,-2.0434367145,0.4910060613
 C,0,12.6707151423,-1.5565437888,-0.8646869986
 O,0,9.6732352736,-1.9888321356,-0.1220428507
 H,0,-0.7292792649,-1.1750855057,2.5036743947
 Recover connectivity data from disk.
                           ----------------------------
                           !    Current Parameters    !
                           ! (Angstroms and Degrees)  !
 --------------------------                            --------------------------
 ! Name  Definition              Value                                          !
 --------------------------------------------------------------------------------
 ! R1    R(1,2)                  1.0231                                         !
 ! R2    R(1,3)                  1.0644                                         !
 ! R3    R(1,4)                  1.0239                                         !
 ! R4    R(1,5)                  1.5204                                         !
 ! R5    R(5,6)                  1.0933                                         !
 ! R6    R(5,7)                  1.5556                                         !
 ! R7    R(5,8)                  1.5534                                         !
 ! R8    R(7,10)                 1.2483                                         !
 ! R9    R(7,19)                 1.3224                                         !
 ! R10   R(8,9)                  1.1018                                         !
 ! R11   R(8,11)                 1.5373                                         !
 ! R12   R(8,15)                 1.5369                                         !
 ! R13   R(11,12)                1.0941                                         !
 ! R14   R(11,13)                1.0941                                         !
 ! R15   R(11,14)                1.0982                                         !
 ! R16   R(15,16)                1.0939                                         !
 ! R17   R(15,17)                1.0967                                         !
 ! R18   R(15,18)                1.0939                                         !
 ! R19   R(19,20)                1.0217                                         !
 ! R20   R(19,21)                1.4691                                         !
 ! R21   R(21,22)                1.0917                                         !
 ! R22   R(21,23)                1.5475                                         !
 ! R23   R(21,24)                1.5584                                         !
 ! R24   R(23,26)                1.2381                                         !
 ! R25   R(23,38)                1.3387                                         !
 ! R26   R(24,25)                1.0995                                         !
 ! R27   R(24,27)                1.5439                                         !
 ! R28   R(24,30)                1.5356                                         !
 ! R29   R(27,28)                1.0976                                         !
 ! R30   R(27,29)                1.0973                                         !
 ! R31   R(27,34)                1.5346                                         !
 ! R32   R(30,31)                1.0955                                         !
 ! R33   R(30,32)                1.0956                                         !
 ! R34   R(30,33)                1.0949                                         !
 ! R35   R(34,35)                1.0945                                         !
 ! R36   R(34,36)                1.0963                                         !
 ! R37   R(34,37)                1.0972                                         !
 ! R38   R(38,39)                1.0205                                         !
 ! R39   R(38,40)                1.4618                                         !
 ! R40   R(40,41)                1.0975                                         !
 ! R41   R(40,42)                1.5548                                         !
 ! R42   R(40,43)                1.559                                          !
 ! R43   R(42,46)                1.2356                                         !
 ! R44   R(42,58)                1.3502                                         !
 ! R45   R(43,44)                1.0948                                         !
 ! R46   R(43,45)                1.0933                                         !
 ! R47   R(43,47)                1.5167                                         !
 ! R48   R(47,48)                1.4038                                         !
 ! R49   R(47,50)                1.4038                                         !
 ! R50   R(48,49)                1.0881                                         !
 ! R51   R(48,52)                1.3985                                         !
 ! R52   R(50,51)                1.0882                                         !
 ! R53   R(50,54)                1.3941                                         !
 ! R54   R(52,53)                1.0866                                         !
 ! R55   R(52,56)                1.3947                                         !
 ! R56   R(54,55)                1.0866                                         !
 ! R57   R(54,56)                1.3975                                         !
 ! R58   R(56,57)                1.0864                                         !
 ! R59   R(58,59)                1.0149                                         !
 ! R60   R(58,60)                1.4738                                         !
 ! R61   R(60,61)                1.092                                          !
 ! R62   R(60,62)                1.5495                                         !
 ! R63   R(60,63)                1.5332                                         !
 ! R64   R(62,66)                1.2325                                         !
 ! R65   R(62,77)                1.352                                          !
 ! R66   R(63,64)                1.0975                                         !
 ! R67   R(63,65)                1.0986                                         !
 ! R68   R(63,67)                1.542                                          !
 ! R69   R(67,68)                1.0997                                         !
 ! R70   R(67,69)                1.5368                                         !
 ! R71   R(67,73)                1.5362                                         !
 ! R72   R(69,70)                1.0978                                         !
 ! R73   R(69,71)                1.0958                                         !
 ! R74   R(69,72)                1.0957                                         !
 ! R75   R(73,74)                1.0977                                         !
 ! R76   R(73,75)                1.0957                                         !
 ! R77   R(73,76)                1.0962                                         !
 ! R78   R(77,78)                1.0144                                         !
 ! R79   R(77,79)                1.4502                                         !
 ! R80   R(79,80)                1.0946                                         !
 ! R81   R(79,81)                1.5411                                         !
 ! R82   R(79,82)                1.5547                                         !
 ! R83   R(81,85)                1.2282                                         !
 ! R84   R(81,92)                1.3587                                         !
 ! R85   R(82,83)                1.0964                                         !
 ! R86   R(82,84)                1.0953                                         !
 ! R87   R(82,86)                1.5384                                         !
 ! R88   R(86,87)                1.0914                                         !
 ! R89   R(86,88)                1.0932                                         !
 ! R90   R(86,89)                1.5113                                         !
 ! R91   R(89,90)                1.2161                                         !
 ! R92   R(89,91)                1.3553                                         !
 ! R93   R(91,152)               0.9899                                         !
 ! R94   R(92,93)                1.0186                                         !
 ! R95   R(92,94)                1.4578                                         !
 ! R96   R(94,95)                1.0938                                         !
 ! R97   R(94,96)                1.5528                                         !
 ! R98   R(94,97)                1.5445                                         !
 ! R99   R(96,100)               1.2381                                         !
 ! R100  R(96,106)               1.3448                                         !
 ! R101  R(97,98)                1.0961                                         !
 ! R102  R(97,99)                1.0978                                         !
 ! R103  R(97,101)               1.5292                                         !
 ! R104  R(101,102)              1.3578                                         !
 ! R105  R(101,105)              1.229                                          !
 ! R106  R(102,103)              1.0108                                         !
 ! R107  R(102,104)              1.0087                                         !
 ! R108  R(106,107)              1.0229                                         !
 ! R109  R(106,108)              1.4554                                         !
 ! R110  R(108,109)              1.0926                                         !
 ! R111  R(108,110)              1.5422                                         !
 ! R112  R(108,111)              1.5498                                         !
 ! R113  R(110,114)              1.23                                           !
 ! R114  R(110,127)              1.3505                                         !
 ! R115  R(111,112)              1.0962                                         !
 ! R116  R(111,113)              1.0993                                         !
 ! R117  R(111,115)              1.5183                                         !
 ! R118  R(115,116)              1.4038                                         !
 ! R119  R(115,118)              1.4                                            !
 ! R120  R(116,117)              1.0852                                         !
 ! R121  R(116,120)              1.3933                                         !
 ! R122  R(118,119)              1.087                                          !
 ! R123  R(118,122)              1.3969                                         !
 ! R124  R(120,121)              1.0859                                         !
 ! R125  R(120,126)              1.3948                                         !
 ! R126  R(122,123)              1.0886                                         !
 ! R127  R(122,126)              1.3921                                         !
 ! R128  R(124,125)              0.9717                                         !
 ! R129  R(124,126)              1.3937                                         !
 ! R130  R(127,128)              1.0149                                         !
 ! R131  R(127,129)              1.4589                                         !
 ! R132  R(129,130)              1.0923                                         !
 ! R133  R(129,131)              1.5432                                         !
 ! R134  R(129,132)              1.5568                                         !
 ! R135  R(131,135)              1.2394                                         !
 ! R136  R(131,151)              1.2907                                         !
 ! R137  R(132,133)              1.0943                                         !
 ! R138  R(132,134)              1.0993                                         !
 ! R139  R(132,136)              1.5496                                         !
 ! R140  R(136,137)              1.095                                          !
 ! R141  R(136,138)              1.0971                                         !
 ! R142  R(136,139)              1.5413                                         !
 ! R143  R(139,140)              1.0945                                         !
 ! R144  R(139,141)              1.0959                                         !
 ! R145  R(139,142)              1.4706                                         !
 ! R146  R(142,143)              1.0251                                         !
 ! R147  R(142,150)              1.3415                                         !
 ! R148  R(144,145)              1.0093                                         !
 ! R149  R(144,146)              1.0081                                         !
 ! R150  R(144,150)              1.3532                                         !
 ! R151  R(147,148)              1.0107                                         !
 ! R152  R(147,149)              1.0536                                         !
 ! R153  R(147,150)              1.3361                                         !
 ! A1    A(2,1,3)              109.5263                                         !
 ! A2    A(2,1,4)              108.976                                          !
 ! A3    A(2,1,5)              113.459                                          !
 ! A4    A(3,1,4)              110.4973                                         !
 ! A5    A(3,1,5)              101.6852                                         !
 ! A6    A(4,1,5)              112.4939                                         !
 ! A7    A(1,5,6)              107.597                                          !
 ! A8    A(1,5,7)              102.1242                                         !
 ! A9    A(1,5,8)              109.6975                                         !
 ! A10   A(6,5,7)              110.407                                          !
 ! A11   A(6,5,8)              109.7639                                         !
 ! A12   A(7,5,8)              116.6851                                         !
 ! A13   A(5,7,10)             117.1995                                         !
 ! A14   A(5,7,19)             117.3095                                         !
 ! A15   A(10,7,19)            125.487                                          !
 ! A16   A(5,8,9)              104.246                                          !
 ! A17   A(5,8,11)             113.3814                                         !
 ! A18   A(5,8,15)             111.6934                                         !
 ! A19   A(9,8,11)             108.7138                                         !
 ! A20   A(9,8,15)             106.5907                                         !
 ! A21   A(11,8,15)            111.6717                                         !
 ! A22   A(8,11,12)            112.8807                                         !
 ! A23   A(8,11,13)            109.1444                                         !
 ! A24   A(8,11,14)            113.6434                                         !
 ! A25   A(12,11,13)           106.8649                                         !
 ! A26   A(12,11,14)           107.1775                                         !
 ! A27   A(13,11,14)           106.7426                                         !
 ! A28   A(8,15,16)            112.3561                                         !
 ! A29   A(8,15,17)            112.0559                                         !
 ! A30   A(8,15,18)            109.0556                                         !
 ! A31   A(16,15,17)           108.69                                           !
 ! A32   A(16,15,18)           107.0304                                         !
 ! A33   A(17,15,18)           107.4134                                         !
 ! A34   A(7,19,20)            122.4867                                         !
 ! A35   A(7,19,21)            124.6981                                         !
 ! A36   A(20,19,21)           112.1914                                         !
 ! A37   A(19,21,22)           107.5583                                         !
 ! A38   A(19,21,23)           103.6073                                         !
 ! A39   A(19,21,24)           111.7968                                         !
 ! A40   A(22,21,23)           109.6515                                         !
 ! A41   A(22,21,24)           109.5488                                         !
 ! A42   A(23,21,24)           114.3564                                         !
 ! A43   A(21,23,26)           119.4908                                         !
 ! A44   A(21,23,38)           114.6002                                         !
 ! A45   A(26,23,38)           125.9009                                         !
 ! A46   A(21,24,25)           104.598                                          !
 ! A47   A(21,24,27)           112.7232                                         !
 ! A48   A(21,24,30)           112.3506                                         !
 ! A49   A(25,24,27)           107.0238                                         !
 ! A50   A(25,24,30)           108.3917                                         !
 ! A51   A(27,24,30)           111.2966                                         !
 ! A52   A(24,27,28)           109.9024                                         !
 ! A53   A(24,27,29)           106.8159                                         !
 ! A54   A(24,27,34)           115.4268                                         !
 ! A55   A(28,27,29)           105.5586                                         !
 ! A56   A(28,27,34)           110.003                                          !
 ! A57   A(29,27,34)           108.6182                                         !
 ! A58   A(24,30,31)           111.6684                                         !
 ! A59   A(24,30,32)           112.0853                                         !
 ! A60   A(24,30,33)           110.0201                                         !
 ! A61   A(31,30,32)           107.521                                          !
 ! A62   A(31,30,33)           107.7094                                         !
 ! A63   A(32,30,33)           107.6443                                         !
 ! A64   A(27,34,35)           110.3018                                         !
 ! A65   A(27,34,36)           113.2192                                         !
 ! A66   A(27,34,37)           111.0291                                         !
 ! A67   A(35,34,36)           106.7375                                         !
 ! A68   A(35,34,37)           107.603                                          !
 ! A69   A(36,34,37)           107.6963                                         !
 ! A70   A(23,38,39)           120.3419                                         !
 ! A71   A(23,38,40)           127.9154                                         !
 ! A72   A(39,38,40)           111.7013                                         !
 ! A73   A(38,40,41)           109.7996                                         !
 ! A74   A(38,40,42)           103.1616                                         !
 ! A75   A(38,40,43)           112.1006                                         !
 ! A76   A(41,40,42)           109.6379                                         !
 ! A77   A(41,40,43)           108.9853                                         !
 ! A78   A(42,40,43)           113.0225                                         !
 ! A79   A(40,42,46)           119.6567                                         !
 ! A80   A(40,42,58)           117.9242                                         !
 ! A81   A(46,42,58)           122.3506                                         !
 ! A82   A(40,43,44)           109.0518                                         !
 ! A83   A(40,43,45)           106.1746                                         !
 ! A84   A(40,43,47)           114.8437                                         !
 ! A85   A(44,43,45)           107.5744                                         !
 ! A86   A(44,43,47)           110.1198                                         !
 ! A87   A(45,43,47)           108.7748                                         !
 ! A88   A(43,47,48)           121.1407                                         !
 ! A89   A(43,47,50)           120.1547                                         !
 ! A90   A(48,47,50)           118.6908                                         !
 ! A91   A(47,48,49)           119.6358                                         !
 ! A92   A(47,48,52)           120.4929                                         !
 ! A93   A(49,48,52)           119.8678                                         !
 ! A94   A(47,50,51)           119.4966                                         !
 ! A95   A(47,50,54)           120.7599                                         !
 ! A96   A(51,50,54)           119.735                                          !
 ! A97   A(48,52,53)           119.5641                                         !
 ! A98   A(48,52,56)           120.2668                                         !
 ! A99   A(53,52,56)           120.1682                                         !
 ! A100  A(50,54,55)           119.7916                                         !
 ! A101  A(50,54,56)           120.1383                                         !
 ! A102  A(55,54,56)           120.0687                                         !
 ! A103  A(52,56,54)           119.6502                                         !
 ! A104  A(52,56,57)           120.2269                                         !
 ! A105  A(54,56,57)           120.1225                                         !
 ! A106  A(42,58,59)           118.1874                                         !
 ! A107  A(42,58,60)           119.5665                                         !
 ! A108  A(59,58,60)           116.4126                                         !
 ! A109  A(58,60,61)           107.0628                                         !
 ! A110  A(58,60,62)           106.9615                                         !
 ! A111  A(58,60,63)           109.5378                                         !
 ! A112  A(61,60,62)           110.5599                                         !
 ! A113  A(61,60,63)           110.9416                                         !
 ! A114  A(62,60,63)           111.5899                                         !
 ! A115  A(60,62,66)           120.6615                                         !
 ! A116  A(60,62,77)           115.5561                                         !
 ! A117  A(66,62,77)           123.7198                                         !
 ! A118  A(60,63,64)           107.7944                                         !
 ! A119  A(60,63,65)           108.0866                                         !
 ! A120  A(60,63,67)           115.1038                                         !
 ! A121  A(64,63,65)           107.3385                                         !
 ! A122  A(64,63,67)           108.7563                                         !
 ! A123  A(65,63,67)           109.4855                                         !
 ! A124  A(63,67,68)           107.8278                                         !
 ! A125  A(63,67,69)           112.7934                                         !
 ! A126  A(63,67,73)           109.5884                                         !
 ! A127  A(68,67,69)           108.197                                          !
 ! A128  A(68,67,73)           107.5774                                         !
 ! A129  A(69,67,73)           110.6714                                         !
 ! A130  A(67,69,70)           111.0057                                         !
 ! A131  A(67,69,71)           112.525                                          !
 ! A132  A(67,69,72)           110.5785                                         !
 ! A133  A(70,69,71)           107.9149                                         !
 ! A134  A(70,69,72)           107.5591                                         !
 ! A135  A(71,69,72)           107.039                                          !
 ! A136  A(67,73,74)           111.0176                                         !
 ! A137  A(67,73,75)           110.9619                                         !
 ! A138  A(67,73,76)           111.4314                                         !
 ! A139  A(74,73,75)           107.6065                                         !
 ! A140  A(74,73,76)           107.8165                                         !
 ! A141  A(75,73,76)           107.8415                                         !
 ! A142  A(62,77,78)           121.0906                                         !
 ! A143  A(62,77,79)           124.2512                                         !
 ! A144  A(78,77,79)           114.5951                                         !
 ! A145  A(77,79,80)           108.5689                                         !
 ! A146  A(77,79,81)           107.2812                                         !
 ! A147  A(77,79,82)           113.167                                          !
 ! A148  A(80,79,81)           112.1492                                         !
 ! A149  A(80,79,82)           110.2677                                         !
 ! A150  A(81,79,82)           105.4039                                         !
 ! A151  A(79,81,85)           120.8649                                         !
 ! A152  A(79,81,92)           114.9168                                         !
 ! A153  A(85,81,92)           123.9753                                         !
 ! A154  A(79,82,83)           108.3704                                         !
 ! A155  A(79,82,84)           107.9409                                         !
 ! A156  A(79,82,86)           115.4359                                         !
 ! A157  A(83,82,84)           106.7576                                         !
 ! A158  A(83,82,86)           109.5165                                         !
 ! A159  A(84,82,86)           108.4728                                         !
 ! A160  A(82,86,87)           112.1356                                         !
 ! A161  A(82,86,88)           108.6738                                         !
 ! A162  A(82,86,89)           110.4261                                         !
 ! A163  A(87,86,88)           108.6516                                         !
 ! A164  A(87,86,89)           108.6505                                         !
 ! A165  A(88,86,89)           108.2109                                         !
 ! A166  A(86,89,90)           125.7125                                         !
 ! A167  A(86,89,91)           112.0415                                         !
 ! A168  A(90,89,91)           122.2357                                         !
 ! A169  A(89,91,152)          107.9709                                         !
 ! A170  A(81,92,93)           118.7572                                         !
 ! A171  A(81,92,94)           121.2391                                         !
 ! A172  A(93,92,94)           111.3343                                         !
 ! A173  A(92,94,95)           108.5297                                         !
 ! A174  A(92,94,96)           105.3397                                         !
 ! A175  A(92,94,97)           112.1256                                         !
 ! A176  A(95,94,96)           109.5113                                         !
 ! A177  A(95,94,97)           107.5315                                         !
 ! A178  A(96,94,97)           113.7009                                         !
 ! A179  A(94,96,100)          119.6646                                         !
 ! A180  A(94,96,106)          116.1391                                         !
 ! A181  A(100,96,106)         124.1925                                         !
 ! A182  A(94,97,98)           107.6463                                         !
 ! A183  A(94,97,99)           111.1663                                         !
 ! A184  A(94,97,101)          112.544                                          !
 ! A185  A(98,97,99)           106.7238                                         !
 ! A186  A(98,97,101)          108.82                                           !
 ! A187  A(99,97,101)          109.7234                                         !
 ! A188  A(97,101,102)         115.3084                                         !
 ! A189  A(97,101,105)         122.7469                                         !
 ! A190  A(102,101,105)        121.9438                                         !
 ! A191  A(101,102,103)        118.2802                                         !
 ! A192  A(101,102,104)        122.8102                                         !
 ! A193  A(103,102,104)        118.7733                                         !
 ! A194  A(96,106,107)         118.6956                                         !
 ! A195  A(96,106,108)         122.2772                                         !
 ! A196  A(107,106,108)        117.9327                                         !
 ! A197  A(106,108,109)        106.9223                                         !
 ! A198  A(106,108,110)        108.3444                                         !
 ! A199  A(106,108,111)        112.5861                                         !
 ! A200  A(109,108,110)        110.5515                                         !
 ! A201  A(109,108,111)        110.2345                                         !
 ! A202  A(110,108,111)        108.1965                                         !
 ! A203  A(108,110,114)        120.4853                                         !
 ! A204  A(108,110,127)        115.1724                                         !
 ! A205  A(114,110,127)        124.2747                                         !
 ! A206  A(108,111,112)        107.7104                                         !
 ! A207  A(108,111,113)        107.017                                          !
 ! A208  A(108,111,115)        116.7873                                         !
 ! A209  A(112,111,113)        106.0517                                         !
 ! A210  A(112,111,115)        109.4539                                         !
 ! A211  A(113,111,115)        109.2824                                         !
 ! A212  A(111,115,116)        122.3964                                         !
 ! A213  A(111,115,118)        119.8305                                         !
 ! A214  A(116,115,118)        117.6861                                         !
 ! A215  A(115,116,117)        120.0759                                         !
 ! A216  A(115,116,120)        121.4837                                         !
 ! A217  A(117,116,120)        118.4283                                         !
 ! A218  A(115,118,119)        119.4446                                         !
 ! A219  A(115,118,122)        121.6774                                         !
 ! A220  A(119,118,122)        118.8777                                         !
 ! A221  A(116,120,121)        121.1315                                         !
 ! A222  A(116,120,126)        119.4086                                         !
 ! A223  A(121,120,126)        119.455                                          !
 ! A224  A(118,122,123)        120.1902                                         !
 ! A225  A(118,122,126)        119.2054                                         !
 ! A226  A(123,122,126)        120.6021                                         !
 ! A227  A(125,124,126)        110.4326                                         !
 ! A228  A(120,126,122)        120.5342                                         !
 ! A229  A(120,126,124)        117.1323                                         !
 ! A230  A(122,126,124)        122.3279                                         !
 ! A231  A(110,127,128)        122.2389                                         !
 ! A232  A(110,127,129)        124.0306                                         !
 ! A233  A(128,127,129)        113.7303                                         !
 ! A234  A(127,129,130)        108.97                                           !
 ! A235  A(127,129,131)        108.6237                                         !
 ! A236  A(127,129,132)        110.4178                                         !
 ! A237  A(130,129,131)        109.1535                                         !
 ! A238  A(130,129,132)        109.1068                                         !
 ! A239  A(131,129,132)        110.5393                                         !
 ! A240  A(129,131,135)        118.1939                                         !
 ! A241  A(129,131,151)        114.4806                                         !
 ! A242  A(135,131,151)        126.9621                                         !
 ! A243  A(129,132,133)        106.8676                                         !
 ! A244  A(129,132,134)        107.5499                                         !
 ! A245  A(129,132,136)        115.4729                                         !
 ! A246  A(133,132,134)        106.0173                                         !
 ! A247  A(133,132,136)        110.2809                                         !
 ! A248  A(134,132,136)        110.175                                          !
 ! A249  A(132,136,137)        110.005                                          !
 ! A250  A(132,136,138)        109.8079                                         !
 ! A251  A(132,136,139)        114.0424                                         !
 ! A252  A(137,136,138)        107.3277                                         !
 ! A253  A(137,136,139)        109.2377                                         !
 ! A254  A(138,136,139)        106.1512                                         !
 ! A255  A(136,139,140)        110.0632                                         !
 ! A256  A(136,139,141)        110.0422                                         !
 ! A257  A(136,139,142)        114.2189                                         !
 ! A258  A(140,139,141)        106.0636                                         !
 ! A259  A(140,139,142)        109.4001                                         !
 ! A260  A(141,139,142)        106.6905                                         !
 ! A261  A(139,142,143)        114.5622                                         !
 ! A262  A(139,142,150)        126.4865                                         !
 ! A263  A(143,142,150)        110.9788                                         !
 ! A264  A(145,144,146)        115.7878                                         !
 ! A265  A(145,144,150)        118.6208                                         !
 ! A266  A(146,144,150)        119.8946                                         !
 ! A267  A(148,147,149)        117.6273                                         !
 ! A268  A(148,147,150)        118.0654                                         !
 ! A269  A(149,147,150)        113.3061                                         !
 ! A270  A(142,150,144)        121.3924                                         !
 ! A271  A(142,150,147)        117.8949                                         !
 ! A272  A(144,150,147)        120.4512                                         !
 ! D1    D(2,1,5,6)             10.2397                                         !
 ! D2    D(2,1,5,7)           -106.0099                                         !
 ! D3    D(2,1,5,8)            129.6025                                         !
 ! D4    D(3,1,5,6)            127.7443                                         !
 ! D5    D(3,1,5,7)             11.4946                                         !
 ! D6    D(3,1,5,8)           -112.8929                                         !
 ! D7    D(4,1,5,6)           -114.0486                                         !
 ! D8    D(4,1,5,7)            129.7017                                         !
 ! D9    D(4,1,5,8)              5.3142                                         !
 ! D10   D(1,5,7,10)           -11.4365                                         !
 ! D11   D(1,5,7,19)           167.8746                                         !
 ! D12   D(6,5,7,10)          -125.6316                                         !
 ! D13   D(6,5,7,19)            53.6795                                         !
 ! D14   D(8,5,7,10)           108.1552                                         !
 ! D15   D(8,5,7,19)           -72.5337                                         !
 ! D16   D(1,5,8,9)            -55.9538                                         !
 ! D17   D(1,5,8,11)            62.1068                                         !
 ! D18   D(1,5,8,15)          -170.6652                                         !
 ! D19   D(6,5,8,9)             62.0704                                         !
 ! D20   D(6,5,8,11)          -179.869                                          !
 ! D21   D(6,5,8,15)           -52.641                                          !
 ! D22   D(7,5,8,9)           -171.3971                                         !
 ! D23   D(7,5,8,11)           -53.3365                                         !
 ! D24   D(7,5,8,15)            73.8914                                         !
 ! D25   D(5,7,19,20)            2.2562                                         !
 ! D26   D(5,7,19,21)          172.4861                                         !
 ! D27   D(10,7,19,20)        -178.4962                                         !
 ! D28   D(10,7,19,21)          -8.2664                                         !
 ! D29   D(5,8,11,12)           71.1866                                         !
 ! D30   D(5,8,11,13)         -170.1391                                         !
 ! D31   D(5,8,11,14)          -51.1359                                         !
 ! D32   D(9,8,11,12)         -173.376                                          !
 ! D33   D(9,8,11,13)          -54.7017                                         !
 ! D34   D(9,8,11,14)           64.3015                                         !
 ! D35   D(15,8,11,12)         -56.0527                                         !
 ! D36   D(15,8,11,13)          62.6216                                         !
 ! D37   D(15,8,11,14)        -178.3752                                         !
 ! D38   D(5,8,15,16)          -71.1172                                         !
 ! D39   D(5,8,15,17)           51.5992                                         !
 ! D40   D(5,8,15,18)          170.3866                                         !
 ! D41   D(9,8,15,16)          175.6249                                         !
 ! D42   D(9,8,15,17)          -61.6587                                         !
 ! D43   D(9,8,15,18)           57.1287                                         !
 ! D44   D(11,8,15,16)          57.0287                                         !
 ! D45   D(11,8,15,17)         179.7452                                         !
 ! D46   D(11,8,15,18)         -61.4674                                         !
 ! D47   D(7,19,21,22)         -34.9196                                         !
 ! D48   D(7,19,21,23)        -150.9923                                         !
 ! D49   D(7,19,21,24)          85.38                                           !
 ! D50   D(20,19,21,22)        136.1873                                         !
 ! D51   D(20,19,21,23)         20.1146                                         !
 ! D52   D(20,19,21,24)       -103.5131                                         !
 ! D53   D(19,21,23,26)        -25.3907                                         !
 ! D54   D(19,21,23,38)        153.6317                                         !
 ! D55   D(22,21,23,26)       -139.9745                                         !
 ! D56   D(22,21,23,38)         39.0478                                         !
 ! D57   D(24,21,23,26)         96.5435                                         !
 ! D58   D(24,21,23,38)        -84.4342                                         !
 ! D59   D(19,21,24,25)        -51.7354                                         !
 ! D60   D(19,21,24,27)       -167.6521                                         !
 ! D61   D(19,21,24,30)         65.6261                                         !
 ! D62   D(22,21,24,25)         67.3935                                         !
 ! D63   D(22,21,24,27)        -48.5232                                         !
 ! D64   D(22,21,24,30)       -175.245                                          !
 ! D65   D(23,21,24,25)       -169.0693                                         !
 ! D66   D(23,21,24,27)         75.0141                                         !
 ! D67   D(23,21,24,30)        -51.7077                                         !
 ! D68   D(21,23,38,39)         -0.5022                                         !
 ! D69   D(21,23,38,40)       -177.9592                                         !
 ! D70   D(26,23,38,39)        178.4472                                         !
 ! D71   D(26,23,38,40)          0.9903                                         !
 ! D72   D(21,24,27,28)        -63.5378                                         !
 ! D73   D(21,24,27,29)       -177.5808                                         !
 ! D74   D(21,24,27,34)         61.5572                                         !
 ! D75   D(25,24,27,28)       -177.9936                                         !
 ! D76   D(25,24,27,29)         67.9635                                         !
 ! D77   D(25,24,27,34)        -52.8985                                         !
 ! D78   D(30,24,27,28)         63.7441                                         !
 ! D79   D(30,24,27,29)        -50.2989                                         !
 ! D80   D(30,24,27,34)       -171.1609                                         !
 ! D81   D(21,24,30,31)         67.336                                          !
 ! D82   D(21,24,30,32)        -53.3818                                         !
 ! D83   D(21,24,30,33)       -173.117                                          !
 ! D84   D(25,24,30,31)       -177.5839                                         !
 ! D85   D(25,24,30,32)         61.6983                                         !
 ! D86   D(25,24,30,33)        -58.0369                                         !
 ! D87   D(27,24,30,31)        -60.1482                                         !
 ! D88   D(27,24,30,32)        179.134                                          !
 ! D89   D(27,24,30,33)         59.3988                                         !
 ! D90   D(24,27,34,35)        173.8459                                         !
 ! D91   D(24,27,34,36)        -66.6272                                         !
 ! D92   D(24,27,34,37)         54.6573                                         !
 ! D93   D(28,27,34,35)        -61.1111                                         !
 ! D94   D(28,27,34,36)         58.4158                                         !
 ! D95   D(28,27,34,37)        179.7004                                         !
 ! D96   D(29,27,34,35)         53.9665                                         !
 ! D97   D(29,27,34,36)        173.4934                                         !
 ! D98   D(29,27,34,37)        -65.222                                          !
 ! D99   D(23,38,40,41)        -66.6664                                         !
 ! D100  D(23,38,40,42)        176.525                                          !
 ! D101  D(23,38,40,43)         54.6241                                         !
 ! D102  D(39,38,40,41)        115.6956                                         !
 ! D103  D(39,38,40,42)         -1.113                                          !
 ! D104  D(39,38,40,43)       -123.0139                                         !
 ! D105  D(38,40,42,46)          5.4242                                         !
 ! D106  D(38,40,42,58)       -171.6391                                         !
 ! D107  D(41,40,42,46)       -111.4988                                         !
 ! D108  D(41,40,42,58)         71.4378                                         !
 ! D109  D(43,40,42,46)        126.7023                                         !
 ! D110  D(43,40,42,58)        -50.361                                          !
 ! D111  D(38,40,43,44)         73.2882                                         !
 ! D112  D(38,40,43,45)        -42.3554                                         !
 ! D113  D(38,40,43,47)       -162.5924                                         !
 ! D114  D(41,40,43,44)       -164.954                                          !
 ! D115  D(41,40,43,45)         79.4024                                         !
 ! D116  D(41,40,43,47)        -40.8346                                         !
 ! D117  D(42,40,43,44)        -42.7889                                         !
 ! D118  D(42,40,43,45)       -158.4325                                         !
 ! D119  D(42,40,43,47)         81.3305                                         !
 ! D120  D(40,42,58,59)          7.6271                                         !
 ! D121  D(40,42,58,60)        159.7884                                         !
 ! D122  D(46,42,58,59)       -169.352                                          !
 ! D123  D(46,42,58,60)        -17.1906                                         !
 ! D124  D(40,43,47,48)       -112.646                                          !
 ! D125  D(40,43,47,50)         68.7187                                         !
 ! D126  D(44,43,47,48)         10.9065                                         !
 ! D127  D(44,43,47,50)       -167.7288                                         !
 ! D128  D(45,43,47,48)        128.5632                                         !
 ! D129  D(45,43,47,50)        -50.0721                                         !
 ! D130  D(43,47,48,49)          1.7332                                         !
 ! D131  D(43,47,48,52)       -178.9463                                         !
 ! D132  D(50,47,48,49)       -179.6119                                         !
 ! D133  D(50,47,48,52)         -0.2915                                         !
 ! D134  D(43,47,50,51)          0.0945                                         !
 ! D135  D(43,47,50,54)        179.0315                                         !
 ! D136  D(48,47,50,51)       -178.574                                          !
 ! D137  D(48,47,50,54)          0.363                                          !
 ! D138  D(47,48,52,53)        179.7233                                         !
 ! D139  D(47,48,52,56)          0.0596                                         !
 ! D140  D(49,48,52,53)         -0.9579                                         !
 ! D141  D(49,48,52,56)        179.3785                                         !
 ! D142  D(47,50,54,55)       -179.7771                                         !
 ! D143  D(47,50,54,56)         -0.2019                                         !
 ! D144  D(51,50,54,55)         -0.8426                                         !
 ! D145  D(51,50,54,56)        178.7326                                         !
 ! D146  D(48,52,56,54)          0.1072                                         !
 ! D147  D(48,52,56,57)        179.867                                          !
 ! D148  D(53,52,56,54)       -179.5545                                         !
 ! D149  D(53,52,56,57)          0.2053                                         !
 ! D150  D(50,54,56,52)         -0.0367                                         !
 ! D151  D(50,54,56,57)       -179.7968                                         !
 ! D152  D(55,54,56,52)        179.5374                                         !
 ! D153  D(55,54,56,57)         -0.2227                                         !
 ! D154  D(42,58,60,61)         52.472                                          !
 ! D155  D(42,58,60,62)        -66.0616                                         !
 ! D156  D(42,58,60,63)        172.8454                                         !
 ! D157  D(59,58,60,61)       -154.8877                                         !
 ! D158  D(59,58,60,62)         86.5787                                         !
 ! D159  D(59,58,60,63)        -34.5144                                         !
 ! D160  D(58,60,62,66)        -62.9884                                         !
 ! D161  D(58,60,62,77)        114.24                                           !
 ! D162  D(61,60,62,66)       -179.2218                                         !
 ! D163  D(61,60,62,77)         -1.9933                                         !
 ! D164  D(63,60,62,66)         56.7943                                         !
 ! D165  D(63,60,62,77)       -125.9772                                         !
 ! D166  D(58,60,63,64)         59.7164                                         !
 ! D167  D(58,60,63,65)        -56.0105                                         !
 ! D168  D(58,60,63,67)       -178.7298                                         !
 ! D169  D(61,60,63,64)        177.6968                                         !
 ! D170  D(61,60,63,65)         61.9699                                         !
 ! D171  D(61,60,63,67)        -60.7493                                         !
 ! D172  D(62,60,63,64)        -58.5347                                         !
 ! D173  D(62,60,63,65)       -174.2615                                         !
 ! D174  D(62,60,63,67)         63.0192                                         !
 ! D175  D(60,62,77,78)          1.8204                                         !
 ! D176  D(60,62,77,79)       -175.1331                                         !
 ! D177  D(66,62,77,78)        178.954                                          !
 ! D178  D(66,62,77,79)          2.0005                                         !
 ! D179  D(60,63,67,68)        -58.1139                                         !
 ! D180  D(60,63,67,69)         61.2904                                         !
 ! D181  D(60,63,67,73)       -174.9319                                         !
 ! D182  D(64,63,67,68)         62.9173                                         !
 ! D183  D(64,63,67,69)       -177.6784                                         !
 ! D184  D(64,63,67,73)        -53.9007                                         !
 ! D185  D(65,63,67,68)        179.9183                                         !
 ! D186  D(65,63,67,69)        -60.6774                                         !
 ! D187  D(65,63,67,73)         63.1003                                         !
 ! D188  D(63,67,69,70)         57.632                                          !
 ! D189  D(63,67,69,71)        -63.4296                                         !
 ! D190  D(63,67,69,72)        176.9302                                         !
 ! D191  D(68,67,69,70)        176.8224                                         !
 ! D192  D(68,67,69,71)         55.7608                                         !
 ! D193  D(68,67,69,72)        -63.8794                                         !
 ! D194  D(73,67,69,70)        -65.5454                                         !
 ! D195  D(73,67,69,71)        173.393                                          !
 ! D196  D(73,67,69,72)         53.7528                                         !
 ! D197  D(63,67,73,74)        -63.1275                                         !
 ! D198  D(63,67,73,75)        177.2558                                         !
 ! D199  D(63,67,73,76)         57.0671                                         !
 ! D200  D(68,67,73,74)        179.8969                                         !
 ! D201  D(68,67,73,75)         60.2803                                         !
 ! D202  D(68,67,73,76)        -59.9084                                         !
 ! D203  D(69,67,73,74)         61.8858                                         !
 ! D204  D(69,67,73,75)        -57.7309                                         !
 ! D205  D(69,67,73,76)       -177.9196                                         !
 ! D206  D(62,77,79,80)        -33.7013                                         !
 ! D207  D(62,77,79,81)       -155.1032                                         !
 ! D208  D(62,77,79,82)         89.0665                                         !
 ! D209  D(78,77,79,80)        149.1678                                         !
 ! D210  D(78,77,79,81)         27.7659                                         !
 ! D211  D(78,77,79,82)        -88.0644                                         !
 ! D212  D(77,79,81,85)        -19.1798                                         !
 ! D213  D(77,79,81,92)        166.2652                                         !
 ! D214  D(80,79,81,85)       -138.3042                                         !
 ! D215  D(80,79,81,92)         47.1407                                         !
 ! D216  D(82,79,81,85)        101.6894                                         !
 ! D217  D(82,79,81,92)        -72.8657                                         !
 ! D218  D(77,79,82,83)        179.9025                                         !
 ! D219  D(77,79,82,84)         64.6343                                         !
 ! D220  D(77,79,82,86)        -56.8852                                         !
 ! D221  D(80,79,82,83)        -58.2773                                         !
 ! D222  D(80,79,82,84)       -173.5455                                         !
 ! D223  D(80,79,82,86)         64.9349                                         !
 ! D224  D(81,79,82,83)         62.9625                                         !
 ! D225  D(81,79,82,84)        -52.3057                                         !
 ! D226  D(81,79,82,86)       -173.8252                                         !
 ! D227  D(79,81,92,93)          5.0426                                         !
 ! D228  D(79,81,92,94)        149.9506                                         !
 ! D229  D(85,81,92,93)       -169.3208                                         !
 ! D230  D(85,81,92,94)        -24.4128                                         !
 ! D231  D(79,82,86,87)        -58.4094                                         !
 ! D232  D(79,82,86,88)         61.7182                                         !
 ! D233  D(79,82,86,89)       -179.7347                                         !
 ! D234  D(83,82,86,87)         64.195                                          !
 ! D235  D(83,82,86,88)       -175.6773                                         !
 ! D236  D(83,82,86,89)        -57.1303                                         !
 ! D237  D(84,82,86,87)       -179.6421                                         !
 ! D238  D(84,82,86,88)        -59.5144                                         !
 ! D239  D(84,82,86,89)         59.0326                                         !
 ! D240  D(82,86,89,90)        119.0838                                         !
 ! D241  D(82,86,89,91)        -59.7645                                         !
 ! D242  D(87,86,89,90)         -4.2876                                         !
 ! D243  D(87,86,89,91)        176.8641                                         !
 ! D244  D(88,86,89,90)       -122.087                                          !
 ! D245  D(88,86,89,91)         59.0647                                         !
 ! D246  D(86,89,91,152)       163.9272                                         !
 ! D247  D(90,89,91,152)       -14.9673                                         !
 ! D248  D(81,92,94,95)        -13.8673                                         !
 ! D249  D(81,92,94,96)       -131.0745                                         !
 ! D250  D(81,92,94,97)        104.7677                                         !
 ! D251  D(93,92,94,95)        133.3765                                         !
 ! D252  D(93,92,94,96)         16.1694                                         !
 ! D253  D(93,92,94,97)       -107.9884                                         !
 ! D254  D(92,94,96,100)       -12.3337                                         !
 ! D255  D(92,94,96,106)       166.9861                                         !
 ! D256  D(95,94,96,100)      -128.8731                                         !
 ! D257  D(95,94,96,106)        50.4467                                         !
 ! D258  D(97,94,96,100)       110.8241                                         !
 ! D259  D(97,94,96,106)       -69.8561                                         !
 ! D260  D(92,94,97,98)        -36.5191                                         !
 ! D261  D(92,94,97,99)         80.0312                                         !
 ! D262  D(92,94,97,101)      -156.4255                                         !
 ! D263  D(95,94,97,98)         82.7038                                         !
 ! D264  D(95,94,97,99)       -160.7458                                         !
 ! D265  D(95,94,97,101)       -37.2025                                         !
 ! D266  D(96,94,97,98)       -155.8832                                         !
 ! D267  D(96,94,97,99)        -39.3328                                         !
 ! D268  D(96,94,97,101)        84.2105                                         !
 ! D269  D(94,96,106,107)        7.6465                                         !
 ! D270  D(94,96,106,108)      175.4313                                         !
 ! D271  D(100,96,106,107)    -173.0681                                         !
 ! D272  D(100,96,106,108)      -5.2833                                         !
 ! D273  D(94,97,101,102)      170.9853                                         !
 ! D274  D(94,97,101,105)       -8.6723                                         !
 ! D275  D(98,97,101,102)       51.7605                                         !
 ! D276  D(98,97,101,105)     -127.8971                                         !
 ! D277  D(99,97,101,102)      -64.6722                                         !
 ! D278  D(99,97,101,105)      115.6702                                         !
 ! D279  D(97,101,102,103)    -179.6435                                         !
 ! D280  D(97,101,102,104)      -3.9443                                         !
 ! D281  D(105,101,102,103)      0.0171                                         !
 ! D282  D(105,101,102,104)    175.7163                                         !
 ! D283  D(96,106,108,109)      -8.6832                                         !
 ! D284  D(96,106,108,110)    -127.8573                                         !
 ! D285  D(96,106,108,111)     112.5222                                         !
 ! D286  D(107,106,108,109)    159.1903                                         !
 ! D287  D(107,106,108,110)     40.0162                                         !
 ! D288  D(107,106,108,111)    -79.6043                                         !
 ! D289  D(106,108,110,114)    -35.0943                                         !
 ! D290  D(106,108,110,127)    147.7705                                         !
 ! D291  D(109,108,110,114)   -151.9544                                         !
 ! D292  D(109,108,110,127)     30.9103                                         !
 ! D293  D(111,108,110,114)     87.2448                                         !
 ! D294  D(111,108,110,127)    -89.8904                                         !
 ! D295  D(106,108,111,112)     62.3063                                         !
 ! D296  D(106,108,111,113)    175.9649                                         !
 ! D297  D(106,108,111,115)    -61.2579                                         !
 ! D298  D(109,108,111,112)   -178.3976                                         !
 ! D299  D(109,108,111,113)    -64.739                                          !
 ! D300  D(109,108,111,115)     58.0382                                         !
 ! D301  D(110,108,111,112)    -57.4                                            !
 ! D302  D(110,108,111,113)     56.2587                                         !
 ! D303  D(110,108,111,115)    179.0359                                         !
 ! D304  D(108,110,127,128)     -6.7418                                         !
 ! D305  D(108,110,127,129)    173.0853                                         !
 ! D306  D(114,110,127,128)    176.2459                                         !
 ! D307  D(114,110,127,129)     -3.9271                                         !
 ! D308  D(108,111,115,116)    -47.2599                                         !
 ! D309  D(108,111,115,118)    136.2137                                         !
 ! D310  D(112,111,115,116)   -169.9253                                         !
 ! D311  D(112,111,115,118)     13.5483                                         !
 ! D312  D(113,111,115,116)     74.3374                                         !
 ! D313  D(113,111,115,118)   -102.189                                          !
 ! D314  D(111,115,116,117)      5.1705                                         !
 ! D315  D(111,115,116,120)   -176.1182                                         !
 ! D316  D(118,115,116,117)   -178.2323                                         !
 ! D317  D(118,115,116,120)      0.4789                                         !
 ! D318  D(111,115,118,119)     -3.7694                                         !
 ! D319  D(111,115,118,122)    176.0169                                         !
 ! D320  D(116,115,118,119)    179.5426                                         !
 ! D321  D(116,115,118,122)     -0.6711                                         !
 ! D322  D(115,116,120,121)   -179.0614                                         !
 ! D323  D(115,116,120,126)      0.1269                                         !
 ! D324  D(117,116,120,121)     -0.3296                                         !
 ! D325  D(117,116,120,126)    178.8588                                         !
 ! D326  D(115,118,122,123)    179.7064                                         !
 ! D327  D(115,118,122,126)      0.2527                                         !
 ! D328  D(119,118,122,123)     -0.5061                                         !
 ! D329  D(119,118,122,126)   -179.9598                                         !
 ! D330  D(116,120,126,122)     -0.566                                          !
 ! D331  D(116,120,126,124)   -179.7203                                         !
 ! D332  D(121,120,126,122)    178.6361                                         !
 ! D333  D(121,120,126,124)     -0.5182                                         !
 ! D334  D(118,122,126,120)      0.38                                           !
 ! D335  D(118,122,126,124)    179.4894                                         !
 ! D336  D(123,122,126,120)   -179.0713                                         !
 ! D337  D(123,122,126,124)      0.038                                          !
 ! D338  D(125,124,126,120)    177.4456                                         !
 ! D339  D(125,124,126,122)     -1.6924                                         !
 ! D340  D(110,127,129,130)    -39.4174                                         !
 ! D341  D(110,127,129,131)   -158.2305                                         !
 ! D342  D(110,127,129,132)     80.4035                                         !
 ! D343  D(128,127,129,130)    140.4228                                         !
 ! D344  D(128,127,129,131)     21.6097                                         !
 ! D345  D(128,127,129,132)    -99.7563                                         !
 ! D346  D(127,129,131,135)    148.3008                                         !
 ! D347  D(127,129,131,151)    -38.1359                                         !
 ! D348  D(130,129,131,135)     29.6032                                         !
 ! D349  D(130,129,131,151)   -156.8335                                         !
 ! D350  D(132,129,131,135)    -90.4077                                         !
 ! D351  D(132,129,131,151)     83.1556                                         !
 ! D352  D(127,129,132,133)    -69.5844                                         !
 ! D353  D(127,129,132,134)     43.8874                                         !
 ! D354  D(127,129,132,136)    167.3462                                         !
 ! D355  D(130,129,132,133)     50.154                                          !
 ! D356  D(130,129,132,134)    163.6258                                         !
 ! D357  D(130,129,132,136)    -72.9153                                         !
 ! D358  D(131,129,132,133)    170.193                                          !
 ! D359  D(131,129,132,134)    -76.3353                                         !
 ! D360  D(131,129,132,136)     47.1236                                         !
 ! D361  D(129,132,136,137)     16.813                                          !
 ! D362  D(129,132,136,138)    134.7191                                         !
 ! D363  D(129,132,136,139)   -106.3055                                         !
 ! D364  D(133,132,136,137)   -104.4315                                         !
 ! D365  D(133,132,136,138)     13.4746                                         !
 ! D366  D(133,132,136,139)    132.45                                           !
 ! D367  D(134,132,136,137)    138.878                                          !
 ! D368  D(134,132,136,138)   -103.2159                                         !
 ! D369  D(134,132,136,139)     15.7595                                         !
 ! D370  D(132,136,139,140)   -175.7769                                         !
 ! D371  D(132,136,139,141)    -59.238                                          !
 ! D372  D(132,136,139,142)     60.7167                                         !
 ! D373  D(137,136,139,140)     60.6886                                         !
 ! D374  D(137,136,139,141)    177.2274                                         !
 ! D375  D(137,136,139,142)    -62.8179                                         !
 ! D376  D(138,136,139,140)    -54.7458                                         !
 ! D377  D(138,136,139,141)     61.793                                          !
 ! D378  D(138,136,139,142)   -178.2523                                         !
 ! D379  D(136,139,142,143)    -52.8266                                         !
 ! D380  D(136,139,142,150)     93.0298                                         !
 ! D381  D(140,139,142,143)   -176.6899                                         !
 ! D382  D(140,139,142,150)    -30.8334                                         !
 ! D383  D(141,139,142,143)     68.9889                                         !
 ! D384  D(141,139,142,150)   -145.1547                                         !
 ! D385  D(139,142,150,144)     29.8708                                         !
 ! D386  D(139,142,150,147)   -155.9807                                         !
 ! D387  D(143,142,150,144)    176.7285                                         !
 ! D388  D(143,142,150,147)     -9.123                                          !
 ! D389  D(145,144,150,142)   -158.8889                                         !
 ! D390  D(145,144,150,147)     27.1107                                         !
 ! D391  D(146,144,150,142)     -6.591                                          !
 ! D392  D(146,144,150,147)    179.4087                                         !
 ! D393  D(148,147,150,142)    176.2579                                         !
 ! D394  D(148,147,150,144)     -9.5362                                         !
 ! D395  D(149,147,150,142)     32.947                                          !
 ! D396  D(149,147,150,144)   -152.847                                          !
 --------------------------------------------------------------------------------
 Symmetry turned off by external request.
 Stoichiometry    C50H77N12O13(1+)
 Framework group  C1[X(C50H77N12O13)]
 Deg. of freedom   450
 Full point group                 C1      NOp   1
                          Input orientation:                          
 ---------------------------------------------------------------------
 Center     Atomic      Atomic             Coordinates (Angstroms)
 Number     Number       Type             X           Y           Z
 ---------------------------------------------------------------------
      1          7           0       -1.707816   -3.729548    6.641613
[...]
 Alpha virt. eigenvalues --    1.86665   1.87013   1.87230   1.87912   1.88208
 Alpha virt. eigenvalues --    1.88456   1.88618   1.88977   1.89200   1.89279
 Alpha virt. eigenvalues --    1.89927   1.89995   1.90306   1.90706   1.90832
 Alpha virt. eigenvalues --    1.91145   1.91493   1.91621   1.92300   1.92512
 Alpha virt. eigenvalues --    1.92599   1.92808   1.92855   1.93163   1.93383
 Alpha virt. eigenvalues --    1.93448   1.93839   1.93900   1.94193   1.94736
 Alpha virt. eigenvalues --    1.95019   1.95491   1.95532   1.95733   1.96289
 Alpha virt. eigenvalues --    1.96454   1.96658   1.97271   1.98105   1.98403
 Alpha virt. eigenvalues --    1.98537   1.98885   1.99264   1.99552   1.99641
 Alpha virt. eigenvalues --    1.99963   2.00135   2.00700   2.01077   2.01288
 Alpha virt. eigenvalues --    2.01364   2.01756   2.02179   2.02482   2.03001
 Alpha virt. eigenvalues --    2.03137   2.04166   2.04429   2.04845   2.04971
 Alpha virt. eigenvalues --    2.05344   2.05528   2.05909   2.06461   2.06545
 Alpha virt. eigenvalues --    2.06964   2.07317   2.07449   2.08150   2.08580
 Alpha virt. eigenvalues --    2.08845   2.08991   2.09077   2.09472   2.09599
 Alpha virt. eigenvalues --    2.09913   2.10266   2.10339   2.10669   2.11379
 Alpha virt. eigenvalues --    2.11875   2.12312   2.13148   2.14143   2.14296
 Alpha virt. eigenvalues --    2.14587   2.15297   2.15417   2.15734   2.15932
 Alpha virt. eigenvalues --    2.16124   2.16585   2.16968   2.17177   2.18047
 Alpha virt. eigenvalues --    2.18771   2.19059   2.19416   2.19478   2.19834
 Alpha virt. eigenvalues --    2.20205   2.20376   2.21435   2.21848   2.22211
 Alpha virt. eigenvalues --    2.22629   2.22690   2.22915   2.23235   2.23734
 Alpha virt. eigenvalues --    2.24164   2.24763   2.25109   2.25186   2.25202
 Alpha virt. eigenvalues --    2.25665   2.26165   2.27443   2.27803   2.28019
 Alpha virt. eigenvalues --    2.28176   2.28849   2.29181   2.29653   2.29767
 Alpha virt. eigenvalues --    2.30716   2.31228   2.31371   2.31814   2.32046
 Alpha virt. eigenvalues --    2.32631   2.32926   2.33426   2.34111   2.34410
 Alpha virt. eigenvalues --    2.35194   2.35744   2.36008   2.36103   2.36441
 Alpha virt. eigenvalues --    2.37056   2.37651   2.37848   2.37981   2.38262
 Alpha virt. eigenvalues --    2.38818   2.39430   2.40028   2.40366   2.40803
 Alpha virt. eigenvalues --    2.40971   2.41645   2.41837   2.42482   2.42932
 Alpha virt. eigenvalues --    2.43828   2.44377   2.44649   2.44771   2.45072
 Alpha virt. eigenvalues --    2.46063   2.46631   2.47126   2.47972   2.48588
 Alpha virt. eigenvalues --    2.49229   2.49780   2.50009   2.50792   2.51363
 Alpha virt. eigenvalues --    2.51802   2.52190   2.52437   2.52986   2.53226
 Alpha virt. eigenvalues --    2.53382   2.53775   2.53907   2.54598   2.55651
 Alpha virt. eigenvalues --    2.56195   2.56641   2.56804   2.56856   2.57593
 Alpha virt. eigenvalues --    2.58786   2.58938   2.59359   2.59727   2.59856
 Alpha virt. eigenvalues --    2.60184   2.60548   2.60989   2.61287   2.61929
 Alpha virt. eigenvalues --    2.62078   2.63365   2.63606   2.63864   2.64551
 Alpha virt. eigenvalues --    2.65262   2.65755   2.65791   2.66441   2.67106
 Alpha virt. eigenvalues --    2.67383   2.67876   2.68934   2.68963   2.69141
 Alpha virt. eigenvalues --    2.69745   2.70300   2.70580   2.70990   2.71708
 Alpha virt. eigenvalues --    2.73543   2.73734   2.74204   2.74842   2.74930
 Alpha virt. eigenvalues --    2.75891   2.76142   2.78052   2.78118   2.80370
 Alpha virt. eigenvalues --    2.80865   2.81541   2.81637   2.81828   2.82317
 Alpha virt. eigenvalues --    2.84401   2.84962   2.86321   2.86964   2.87813
 Alpha virt. eigenvalues --    2.88036   2.89147   2.89804   2.90356   2.92113
 Alpha virt. eigenvalues --    2.92410   2.92615   2.92998   2.93612   2.94091
 Alpha virt. eigenvalues --    2.94729   2.95793   2.96509   2.97085   2.98561
 Alpha virt. eigenvalues --    2.99668   3.00358   3.00452   3.01351   3.03087
 Alpha virt. eigenvalues --    3.03239   3.05110   3.06112   3.06904   3.09751
 Alpha virt. eigenvalues --    3.11962   3.14290   3.15342   3.16540   3.17544
 Alpha virt. eigenvalues --    3.35058   3.36417   3.64905   3.73776   3.75497
 Alpha virt. eigenvalues --    3.85107   3.88098   3.92310   3.92937   3.93558
 Alpha virt. eigenvalues --    3.95372   3.96683   3.97125   3.97465   4.00117
 Alpha virt. eigenvalues --    4.00521   4.02495   4.03202   4.04461   4.05118
 Alpha virt. eigenvalues --    4.06393   4.06621   4.07390   4.07845   4.08684
 Alpha virt. eigenvalues --    4.09243   4.09434   4.09832   4.10400   4.11635
 Alpha virt. eigenvalues --    4.13050   4.13926   4.15651   4.16925   4.18924
 Alpha virt. eigenvalues --    4.19980   4.20523   4.21710   4.22715   4.22897
 Alpha virt. eigenvalues --    4.24099   4.24274   4.24451   4.25128   4.26984
 Alpha virt. eigenvalues --    4.27041   4.27630   4.29489   4.29999   4.32525
 Alpha virt. eigenvalues --    4.33041   4.33456   4.36551   4.37840   4.39987
 Alpha virt. eigenvalues --    4.40651   4.41375   4.42094   4.42823   4.43163
 Alpha virt. eigenvalues --    4.44024   4.46875   4.49411   4.50739   4.51569
 Alpha virt. eigenvalues --    4.52029   4.53451   4.54046   4.57994   4.61627
 Alpha virt. eigenvalues --    4.62150   4.63485   4.64481   4.64905   4.66166
 Alpha virt. eigenvalues --    4.67797   4.69529
          Condensed to atoms (all electrons):
 Mulliken charges:
               1
     1  N   -0.760978
     2  H    0.413506
     3  H    0.432265
     4  H    0.413080
     5  C   -0.107325
     6  H    0.208656
     7  C    0.667017
     8  C   -0.110708
     9  H    0.152673
    10  O   -0.578023
    11  C   -0.485521
    12  H    0.216829
    13  H    0.189843
    14  H    0.134463
    15  C   -0.476769
    16  H    0.188659
    17  H    0.159770
    18  H    0.190672
    19  N   -0.603734
    20  H    0.380984
    21  C   -0.088877
    22  H    0.201858
    23  C    0.645194
    24  C   -0.075557
    25  H    0.142085
    26  O   -0.563410
    27  C   -0.272822
    28  H    0.151500
    29  H    0.152938
    30  C   -0.460009
    31  H    0.168185
    32  H    0.136014
    33  H    0.162246
    34  C   -0.469140
    35  H    0.171090
    36  H    0.164259
    37  H    0.141124
    38  N   -0.650497
    39  H    0.391530
    40  C   -0.036240
    41  H    0.191902
    42  C    0.618922
    43  C   -0.387032
    44  H    0.176393
    45  H    0.200044
    46  O   -0.547630
    47  C    0.123822
    48  C   -0.232438
    49  H    0.182132
    50  C   -0.178146
    51  H    0.138874
    52  C   -0.128916
    53  H    0.146521
    54  C   -0.127741
    55  H    0.142654
    56  C   -0.127081
    57  H    0.144237
    58  N   -0.615198
    59  H    0.362369
    60  C   -0.043550
    61  H    0.171040
    62  C    0.627546
    63  C   -0.286719
    64  H    0.156126
    65  H    0.147286
    66  O   -0.553853
    67  C   -0.083832
    68  H    0.142173
    69  C   -0.451311
    70  H    0.144978
    71  H    0.144357
    72  H    0.152876
    73  C   -0.444558
    74  H    0.144196
    75  H    0.149709
    76  H    0.146797
    77  N   -0.592477
    78  H    0.360187
    79  C   -0.060534
    80  H    0.181936
    81  C    0.598731
    82  C   -0.290705
    83  H    0.173232
    84  H    0.177519
    85  O   -0.525488
    86  C   -0.339116
    87  H    0.187306
    88  H    0.175435
    89  C    0.562407
    90  O   -0.474329
    91  O   -0.612693
    92  N   -0.608494
    93  H    0.358086
    94  C   -0.058911
    95  H    0.206444
    96  C    0.601200
    97  C   -0.378543
    98  H    0.190340
    99  H    0.181934
   100  O   -0.558777
   101  C    0.629528
   102  N   -0.747266
   103  H    0.356099
   104  H    0.345231
   105  O   -0.513456
   106  N   -0.609746
   107  H    0.398877
   108  C   -0.073158
   109  H    0.173996
   110  C    0.619021
   111  C   -0.362566
   112  H    0.169593
   113  H    0.169615
   114  O   -0.538580
   115  C    0.189685
   116  C   -0.179691
   117  H    0.156108
   118  C   -0.200336
   119  H    0.142461
   120  C   -0.175494
   121  H    0.156807
   122  C   -0.179109
   123  H    0.123863
   124  O   -0.694936
   125  H    0.425309
   126  C    0.327039
   127  N   -0.616574
   128  H    0.343949
   129  C   -0.003339
   130  H    0.172585
   131  C    0.568465
   132  C   -0.295948
   133  H    0.176679
   134  H    0.131272
   135  O   -0.569066
   136  C   -0.273881
   137  H    0.189146
   138  H    0.146536
   139  C   -0.170082
   140  H    0.140232
   141  H    0.175514
   142  N   -0.587911
   143  H    0.376529
   144  N   -0.758571
   145  H    0.365321
   146  H    0.365960
   147  N   -0.746920
   148  H    0.338454
   149  H    0.409853
   150  C    0.777322
   151  O   -0.651294
   152  H    0.448403
 Sum of Mulliken charges =   1.00000
 Mulliken charges with hydrogens summed into heavy atoms:
               1
     1  N    0.497874
     5  C    0.101332
     7  C    0.667017
     8  C    0.041965
    10  O   -0.578023
    11  C    0.055614
    15  C    0.062332
    19  N   -0.222750
    21  C    0.112981
    23  C    0.645194
    24  C    0.066528
    26  O   -0.563410
    27  C    0.031616
    30  C    0.006435
    34  C    0.007333
    38  N   -0.258967
    40  C    0.155662
    42  C    0.618922
    43  C   -0.010595
    46  O   -0.547630
    47  C    0.123822
    48  C   -0.050306
    50  C   -0.039272
    52  C    0.017604
    54  C    0.014914
    56  C    0.017156
    58  N   -0.252830
    60  C    0.127491
    62  C    0.627546
    63  C    0.016693
    66  O   -0.553853
    67  C    0.058342
    69  C   -0.009100
    73  C   -0.003856
    77  N   -0.232289
    79  C    0.121402
    81  C    0.598731
    82  C    0.060046
    85  O   -0.525488
    86  C    0.023625
    89  C    0.562407
    90  O   -0.474329
    91  O   -0.164290
    92  N   -0.250408
    94  C    0.147533
    96  C    0.601200
    97  C   -0.006269
   100  O   -0.558777
   101  C    0.629528
   102  N   -0.045935
   105  O   -0.513456
   106  N   -0.210869
   108  C    0.100838
   110  C    0.619021
   111  C   -0.023358
   114  O   -0.538580
   115  C    0.189685
   116  C   -0.023584
   118  C   -0.057875
   120  C   -0.018687
   122  C   -0.055246
   124  O   -0.269627
   126  C    0.327039
   127  N   -0.272625
   129  C    0.169246
   131  C    0.568465
   132  C    0.012003
   135  O   -0.569066
   136  C    0.061801
   139  C    0.145664
   142  N   -0.211382
   144  N   -0.027290
   147  N    0.001387
   150  C    0.777322
   151  O   -0.651294
 Electronic spatial extent (au):  <R**2>=         102808.8513
 Charge=              1.0000 electrons
 Dipole moment (field-independent basis, Debye):
    X=              3.7097    Y=             -6.6550    Z=             16.7994  Tot=             18.4464
 Quadrupole moment (field-independent basis, Debye-Ang):
   XX=           -140.1645   YY=           -375.7641   ZZ=           -237.9562
   XY=              2.9490   XZ=           -103.9607   YZ=           -105.5217
 Traceless Quadrupole moment (field-independent basis, Debye-Ang):
   XX=            111.1304   YY=           -124.4692   ZZ=             13.3387
   XY=              2.9490   XZ=           -103.9607   YZ=           -105.5217
 Octapole moment (field-independent basis, Debye-Ang**2):
  XXX=           2713.8537  YYY=           -293.2033  ZZZ=            427.8899  XYY=           -632.2457
  XXY=           -337.8321  XXZ=           -586.2105  XZZ=           -324.9655  YZZ=           -564.7688
  YYZ=            186.7623  XYZ=             60.4247
 Hexadecapole moment (field-independent basis, Debye-Ang**3):
 XXXX=         -22942.9413 YYYY=         -22405.3706 ZZZZ=         -16259.0101 XXXY=           3141.1785
 XXXZ=           2726.0114 YYYX=          10462.6496 YYYZ=            134.4784 ZZZX=           6998.4274
 ZZZY=          -3128.7099 XXYY=         -16650.4411 XXZZ=         -14975.2301 YYZZ=          -6392.7648
 XXYZ=             93.0613 YYXZ=           3115.3687 ZZXY=           4803.2580
 N-N= 1.306575057174D+04 E-N=-3.445072536179D+04  KE= 3.553188578274D+03
 Unable to Open any file for archive entry.
 1\1\GINC-VIM-002\SP\RB3LYP\6-31G(d)\C50H77N12O13(1+)\KENGMITH\12-Aug-2
 022\0\\# B3LYP/6-31G* guess=read geom=check nosymm integral(ultrafineg
 rid)\\Candidate Structure: Conf:126 Charge calc in gas phase\\1,1\N,0,
 -1.7078161325,-3.7295482778,6.6416128378\H,0,-2.1834340164,-4.51179021
 74,7.0983223301\H,0,-1.5310076875,-3.9684805345,5.6195237325\H,0,-0.82
 38731681,-3.5489488897,7.1256755256\C,0,-2.5705468521,-2.4833553383,6.
 5217446136\H,0,-3.4686282423,-2.6438816786,7.124221955\C,0,-2.92709897
 61,-2.4772218544,5.0075916123\C,0,-1.7902180012,-1.2526059264,7.059671
 3579\H,0,-1.5116179699,-1.5361626588,8.0872652766\O,0,-2.3003099021,-3
 .2660610824,4.2705968308\C,0,-0.5084368757,-0.9488641698,6.2671159658\
 H,0,-0.7102029732,-0.5482828966,5.269161791\H,0,0.0729001566,-0.191603
 4894,6.8015415698\H,0,0.1478343259,-1.8202157673,6.140254461\C,0,-2.69
 27664997,-0.013995516,7.1756155684\H,0,-2.9646791756,0.3956511359,6.19
 84054618\H,0,-3.6114312478,-0.2248781566,7.736242199\H,0,-2.1539703051
 ,0.7714095802,7.71357424\N,0,-3.877630664,-1.6476111647,4.6114850957\H
 ,0,-4.3462937882,-1.0040972071,5.2519047736\C,0,-4.2348689294,-1.39338
 35197,3.2093713014\H,0,-3.316117061,-1.440990547,2.6215773953\C,0,-4.7
 667733077,0.0597669313,3.2269038346\C,0,-5.2527755466,-2.4439406324,2.
 6719398418\H,0,-4.8007517531,-3.4166129355,2.9136235836\O,0,-5.2407052
 191,0.5227557694,4.2728067744\C,0,-5.4126763281,-2.3886285662,1.137326
 6532\H,0,-5.8291981109,-1.4177240392,0.8398239568\H,0,-6.1760132022,-3
 .1305207083,0.8707427111\C,0,-6.6133549318,-2.3531195246,3.378082556\H
 ,0,-7.1317683225,-1.4182648276,3.1385861373\H,0,-6.5161374123,-2.40648
 03836,4.468068216\H,0,-7.2560947132,-3.1809877927,3.0612905702\C,0,-4.
 1404685162,-2.6832773877,0.3312509613\H,0,-4.3704698803,-2.7295800439,
 -0.7378281023\H,0,-3.3641179759,-1.9191028514,0.4543596329\H,0,-3.7065
 855349,-3.6489693922,0.6194453826\N,0,-4.6408619839,0.713326586,2.0654
 327737\H,0,-4.214573602,0.2548738068,1.2595246859\C,0,-5.004627539,2.0
 979362888,1.7698077399\H,0,-6.0941756174,2.2163492457,1.8269210786\C,0
 ,-4.5355409289,2.2808639903,0.298797741\C,0,-4.3329075723,3.1036764306
 ,2.7535071286\H,0,-3.2680776826,3.1827209913,2.5119039707\H,0,-4.41347
 49935,2.65679426,3.748097904\O,0,-4.093440299,1.3115272881,-0.32694364
 15\C,0,-4.9644635313,4.4823140959,2.7851535159\C,0,-4.2735214557,5.608
 3942733,2.3107051944\H,0,-3.2784536682,5.4899150262,1.8866325507\C,0,-
 6.2503170513,4.656805722,3.320755312\H,0,-6.7883828388,3.7963790387,3.
 7136813306\C,0,-4.8603219915,6.8765842296,2.3665104129\H,0,-4.31010317
 67,7.7385378054,1.9991433915\C,0,-6.8347647293,5.9213563426,3.37447939
 46\H,0,-7.8295090786,6.0389087053,3.7956626862\C,0,-6.1405281858,7.036
 1059892,2.8964907754\H,0,-6.5948845346,8.0218588743,2.9415050774\N,0,-
 4.5742755204,3.5237795173,-0.2273270702\H,0,-4.7933921679,4.299031892,
 0.3899354528\C,0,-3.7525589528,3.8389971514,-1.409427814\H,0,-3.975246
 1946,3.0830067113,-2.1652750723\C,0,-2.2703796533,3.7464062195,-0.9673
 559989\C,0,-4.1029594937,5.2422687353,-1.9180525906\H,0,-3.8991136515,
 5.9534328943,-1.1074095478\H,0,-5.182945925,5.2731745142,-2.1168209313
 \O,0,-1.8222661743,4.5071773596,-0.1073906422\C,0,-3.335109624,5.69237
 12377,-3.1772708991\H,0,-2.2602484581,5.6526948785,-2.9483120954\C,0,-
 3.6008353928,4.7885792523,-4.3914221661\H,0,-4.6725722855,4.7498083023
 ,-4.6260876052\H,0,-3.2527995544,3.7614636907,-4.2343491834\H,0,-3.082
 0906448,5.1714043977,-5.277381253\C,0,-3.6869748312,7.1523544865,-3.50
 06646475\H,0,-4.7529922884,7.2564931839,-3.740771943\H,0,-3.1161334142
 ,7.5110574755,-4.364368692\H,0,-3.4675088792,7.8140646152,-2.654744641
 7\N,0,-1.5514216589,2.7555284415,-1.5411109296\H,0,-1.9655216138,2.141
 9092908,-2.2346453058\C,0,-0.1811264957,2.4339391373,-1.1919521341\H,0
 ,0.3367675599,3.3602138793,-0.9235239217\C,0,0.4541750902,1.7469427023
 ,-2.4165103176\C,0,-0.0709826729,1.4007356649,-0.0354301633\H,0,0.9913
 944285,1.2146992348,0.1617134749\H,0,-0.4974185676,0.4548677798,-0.386
 2811769\O,0,-0.2466176882,1.2508710753,-3.2947795082\C,0,-0.774955515,
 1.7969185174,1.2737844067\H,0,-0.3979588768,2.7395002853,1.6744804029\
 H,0,-1.8450743377,1.9035950228,1.0773827584\C,0,-0.591480998,0.7199890
 051,2.3180911735\O,0,-0.0390912996,0.8597376201,3.3924615976\O,0,-1.10
 07125817,-0.4700812917,1.916387703\N,0,1.8080204392,1.6402409093,-2.37
 46765397\H,0,2.2971809893,1.9369140492,-1.5318597167\C,0,2.4999369828,
 0.5363345707,-3.0286617817\H,0,1.764350772,-0.2311146049,-3.2863267317
 \C,0,3.4809918483,-0.0226866235,-1.9627333363\C,0,3.1908127598,0.97682
 1698,-4.3379110752\H,0,2.5453941673,1.7198385073,-4.8204983414\H,0,4.1
 474980337,1.4747985763,-4.1331500897\O,0,3.695358592,0.6233836119,-0.9
 285682095\C,0,3.4114677445,-0.1872440527,-5.3047531199\N,0,3.837827472
 7,0.1617639025,-6.5457020714\H,0,3.9928475129,-0.5724347199,-7.2229034
 856\H,0,3.9446937896,1.1215645442,-6.8370966813\O,0,3.2130172057,-1.35
 88054992,-4.9909770779\N,0,4.0383232756,-1.2152529798,-2.2380304817\H,
 0,3.8876132251,-1.6261375552,-3.1626127523\C,0,5.0486936853,-1.8173743
 897,-1.3808749101\H,0,5.3293775847,-1.0631088805,-0.641899293\C,0,6.26
 18051329,-2.1977462363,-2.2538878535\C,0,4.5413222763,-3.0990813991,-0
 .672482442\H,0,4.2995573019,-3.8351724802,-1.44791095\H,0,5.3911094275
 ,-3.5151541034,-0.1127654096\O,0,6.100894775,-2.5943005588,-3.40706033
 2\C,0,3.3549944642,-2.9405531389,0.2617351336\C,0,3.2877741126,-1.9225
 364702,1.2259868704\H,0,4.0612718147,-1.1625729801,1.2693454301\C,0,2.
 311239368,-3.872871747,0.2263061691\H,0,2.330582343,-4.6688134285,-0.5
 138152478\C,0,2.227609255,-1.8420720475,2.1265115611\H,0,2.1736607417,
 -1.0434028293,2.8602965615\C,0,1.2419311328,-3.8113442632,1.1230391311
 \H,0,0.4406085673,-4.5462915038,1.0706770182\O,0,0.1698213673,-2.66529
 56462,2.9918795818\H,0,-0.5016549526,-3.3516732855,2.8427923678\C,0,1.
 2098489888,-2.7943768053,2.0731454781\N,0,7.4607402015,-2.1175030584,-
 1.6375719892\H,0,7.5649475981,-1.7332697702,-0.7040076096\C,0,8.715301
 5741,-2.5681722579,-2.2304025355\H,0,8.5366787342,-3.4976970737,-2.775
 6519003\C,0,9.7289051972,-2.8326700357,-1.0971627658\C,0,9.2658313745,
 -1.4966343193,-3.2165522145\H,0,8.5932278877,-1.4840384781,-4.07962044
 63\H,0,9.1579101322,-0.5150825666,-2.7335500388\O,0,10.5715540717,-3.7
 264169583,-1.2620587214\C,0,10.7297308571,-1.7064380878,-3.6794341618\
 H,0,11.0450304521,-2.7340215004,-3.4705577423\H,0,10.8018577709,-1.556
 5540657,-4.7638150018\C,0,11.735884839,-0.7272800003,-3.043406618\H,0,
 12.7319282111,-0.8828480148,-3.4696609743\H,0,11.460004514,0.305115572
 4,-3.2862257187\N,0,11.8136533874,-0.80996826,-1.5772115693\H,0,10.911
 4843937,-0.7281975883,-1.0973516848\N,0,13.9041202283,-1.8553641162,-1
 .3343028254\H,0,14.387648483,-2.6534987895,-0.9496525648\H,0,14.158708
 2501,-1.6002363203,-2.2757652701\N,0,12.3174894491,-1.8999287904,0.377
 3281921\H,0,12.9345601842,-2.5098070155,0.8957507749\H,0,11.2799502243
 ,-2.0434367145,0.4910060613\C,0,12.6707151423,-1.5565437888,-0.8646869
 986\O,0,9.6732352736,-1.9888321356,-0.1220428507\H,0,-0.7292792649,-1.
 1750855057,2.5036743947\\Version=ES64L-G16RevC.01\HF=-3586.6394042\RMS
 D=5.029e-10\Dipole=0.0862814,-2.9824404,5.979005\Quadrupole=82.6227394
 ,-92.5397668,9.9170274,2.1925276,-77.2922266,-78.4528033\PG=C01 [X(C50
 H77N12O13)]\\@
 The archive entry for this job was punched.


 SUCCESS IS NEVER CERTAIN,
 FAILURE IS NEVER FINAL.
 Job cpu time:       0 days  0 hours 15 minutes 34.4 seconds.
 Elapsed time:       0 days  0 hours  3 minutes 54.6 seconds.
 File lengths (MBytes):  RWF=   1088 Int=      0 D2E=      0 Chk=    160 Scr=     32
 Normal termination of Gaussian 16 at Fri Aug 12 04:48:27 2022.
