 Entering Gaussian System, Link 0=/opt/software/Gaussian/g16-AVX2-C.01/g16/g16
 Input=charge-conf-472.com
 Output=charge-conf-472.log
 Initial command:
 /opt/software/Gaussian/g16-AVX2-C.01/g16/l1.exe "/mnt/gs18/scratch/users/kengmith/Gau-142751.inp" -scrdir="/mnt/gs18/scratch/users/kengmith/"
 Entering Link 1 = /opt/software/Gaussian/g16-AVX2-C.01/g16/l1.exe PID=    142798.
  
 Copyright (c) 1988-2019, Gaussian, Inc.  All Rights Reserved.
  
 This is part of the Gaussian(R) 16 program.  It is based on
 the Gaussian(R) 09 system (copyright 2009, Gaussian, Inc.),
 the Gaussian(R) 03 system (copyright 2003, Gaussian, Inc.),
 the Gaussian(R) 98 system (copyright 1998, Gaussian, Inc.),
 the Gaussian(R) 94 system (copyright 1995, Gaussian, Inc.),
 the Gaussian 92(TM) system (copyright 1992, Gaussian, Inc.),
 the Gaussian 90(TM) system (copyright 1990, Gaussian, Inc.),
 the Gaussian 88(TM) system (copyright 1988, Gaussian, Inc.),
 the Gaussian 86(TM) system (copyright 1986, Carnegie Mellon
 University), and the Gaussian 82(TM) system (copyright 1983,
 Carnegie Mellon University). Gaussian is a federally registered
 trademark of Gaussian, Inc.
  
 This software contains proprietary and confidential information,
 including trade secrets, belonging to Gaussian, Inc.
  
 This software is provided under written license and may be
 used, copied, transmitted, or stored only in accord with that
 written license.
  
 The following legend is applicable only to US Government
 contracts under FAR:
  
                    RESTRICTED RIGHTS LEGEND
  
 Use, reproduction and disclosure by the US Government is
 subject to restrictions as set forth in subparagraphs (a)
 and (c) of the Commercial Computer Software - Restricted
 Rights clause in FAR 52.227-19.
  
 Gaussian, Inc.
 340 Quinnipiac St., Bldg. 40, Wallingford CT 06492
  
  
 ---------------------------------------------------------------
 Warning -- This program may not be used in any manner that
 competes with the business of Gaussian, Inc. or will provide
 assistance to any competitor of Gaussian, Inc.  The licensee
 of this program is prohibited from giving any competitor of
 Gaussian, Inc. access to this program.  By using this program,
 the user acknowledges that Gaussian, Inc. is engaged in the
 business of creating and licensing software in the field of
 computational chemistry and represents and warrants to the
 licensee that it is not a competitor of Gaussian, Inc. and that
 it will not use this program in any manner prohibited above.
 ---------------------------------------------------------------
  

 Cite this work as:
 Gaussian 16, Revision C.01,
 M. J. Frisch, G. W. Trucks, H. B. Schlegel, G. E. Scuseria, 
 M. A. Robb, J. R. Cheeseman, G. Scalmani, V. Barone, 
 G. A. Petersson, H. Nakatsuji, X. Li, M. Caricato, A. V. Marenich, 
 J. Bloino, B. G. Janesko, R. Gomperts, B. Mennucci, H. P. Hratchian, 
 J. V. Ortiz, A. F. Izmaylov, J. L. Sonnenberg, D. Williams-Young, 
 F. Ding, F. Lipparini, F. Egidi, J. Goings, B. Peng, A. Petrone, 
 T. Henderson, D. Ranasinghe, V. G. Zakrzewski, J. Gao, N. Rega, 
 G. Zheng, W. Liang, M. Hada, M. Ehara, K. Toyota, R. Fukuda, 
 J. Hasegawa, M. Ishida, T. Nakajima, Y. Honda, O. Kitao, H. Nakai, 
 T. Vreven, K. Throssell, J. A. Montgomery, Jr., J. E. Peralta, 
 F. Ogliaro, M. J. Bearpark, J. J. Heyd, E. N. Brothers, K. N. Kudin, 
 V. N. Staroverov, T. A. Keith, R. Kobayashi, J. Normand, 
 K. Raghavachari, A. P. Rendell, J. C. Burant, S. S. Iyengar, 
 J. Tomasi, M. Cossi, J. M. Millam, M. Klene, C. Adamo, R. Cammi, 
 J. W. Ochterski, R. L. Martin, K. Morokuma, O. Farkas, 
 J. B. Foresman, and D. J. Fox, Gaussian, Inc., Wallingford CT, 2019.
 
 ******************************************
 Gaussian 16:  ES64L-G16RevC.01  3-Jul-2019
                12-Jul-2022 
 ******************************************
 %mem=8gb
 %nproc=4
 Will use up to    4 processors via shared memory.
 %chk=conf-472.chk
 ----------------------------------------------------------------------
 # B3LYP/6-31G* empiricaldispersion=gd3bj guess=read geom=check nosymm 
 integral(ultrafinegrid)
 ----------------------------------------------------------------------
 1/29=2,38=1,172=1/1;
 2/12=2,15=1,40=1/2;
 3/5=1,6=6,7=1,11=2,14=-4,25=1,30=1,74=-5,75=-5,116=-2,124=41/1,2,3;
 4/5=1/1;
 5/5=2,38=6/2;
 6/7=2,8=2,9=2,10=2,28=1/1;
 99/5=1,9=1/99;
 ------------------------------------------------------
 Candidate Structure: Conf:472 Charge calc in gas phase
 ------------------------------------------------------
 Structure from the checkpoint file:  "conf-472.chk"
 Charge =  1 Multiplicity = 1
 Redundant internal coordinates found in file.  (old form).
 N,0,-5.6624182991,1.5335596338,2.9322970845
 H,0,-6.2902337985,2.3334060128,2.8192157656
 H,0,-5.6926628073,0.9045774524,2.0537177194
 H,0,-5.9565235917,1.0039899737,3.7568530628
 C,0,-4.2064663486,1.904427569,2.9415327044
 H,0,-3.74487146,1.5742280909,3.8731842032
 H,0,-4.0997223674,2.9862882547,2.8493495009
 C,0,-3.6403446989,1.1542139082,1.7057368895
 O,0,-4.4555186856,0.4881441024,1.0438666501
 N,0,-2.3506862374,1.2820878002,1.4705615782
 H,0,-1.7252709067,1.8500136645,2.04909132
 C,0,-1.6381596284,0.6675230095,0.3460146363
 H,0,-1.9796827339,-0.3647839956,0.2373233737
 C,0,-0.1621139055,0.7366446608,0.7710172797
 C,0,-1.8957155552,1.4712399413,-0.9506320341
 H,0,-2.9817076353,1.4846185365,-1.1070643016
 H,0,-1.5811647643,2.5049728185,-0.7599313164
 O,0,0.2003938448,1.6154299749,1.5598804416
 C,0,-1.2174450081,0.9584963749,-2.2356192431
 H,0,-0.130127864,0.9665866791,-2.0856313337
 C,0,-1.6411458688,-0.4707952579,-2.5957225037
 H,0,-2.7262206457,-0.5275052056,-2.7470205666
 H,0,-1.1538312946,-0.7897659521,-3.5217365263
 H,0,-1.3746154254,-1.2070376573,-1.8281115133
 C,0,-1.5405600255,1.9230228452,-3.3859237504
 H,0,-2.6240120956,1.9730620596,-3.5544861852
 H,0,-1.192232703,2.9381061543,-3.1595689279
 H,0,-1.0785289044,1.609039595,-4.3282340879
 N,0,0.6454228874,-0.1710123789,0.2085684747
 H,0,0.2927610487,-0.8164120377,-0.4942401943
 C,0,2.1002834672,-0.060873228,0.1995555322
 H,0,2.3558955476,0.9931545626,0.349020308
 C,0,2.4932821785,-0.5168685112,-1.2146196494
 C,0,2.7633823741,-0.8908881251,1.3288860406
 H,0,2.3026090209,-0.516074965,2.2521119271
 O,0,1.7779102485,-1.3160391479,-1.8243973672
 C,0,2.4632778362,-2.3876121452,1.2024503748
 H,0,2.904266455,-2.8095926485,0.293064924
 H,0,2.8766346048,-2.928468488,2.0596993652
 H,0,1.3858831376,-2.5793755844,1.1714097827
 C,0,4.2702991398,-0.6195622902,1.40220996
 H,0,4.7897080379,-0.9997535073,0.5157659657
 H,0,4.7025487021,-1.1171867346,2.2757474322
 H,0,4.484186767,0.4526949754,1.4935458207
 N,0,3.6161322986,0.0128801112,-1.7416858492
 H,0,4.132171562,0.7235687009,-1.2412925345
 C,0,3.9445951962,-0.2092894279,-3.1495252805
 H,0,3.8579113696,-1.2784542804,-3.3571925218
 C,0,5.3717755297,0.1999996924,-3.4537791662
 C,0,2.9518485031,0.5543805832,-4.0572840375
 H,0,1.9554825664,0.2819196343,-3.6953437913
 H,0,3.0796447485,1.6290754917,-3.8814771096
 O,0,6.0002673695,-0.1834810651,-4.4091440435
 C,0,3.042815617,0.2157644255,-5.550705229
 H,0,3.2748716737,-0.8496312652,-5.666635994
 H,0,3.8729538587,0.7575310973,-6.0182335997
 C,0,1.7211191547,0.512121458,-6.272001879
 H,0,1.7960492263,0.1862436315,-7.3183588426
 H,0,0.9190250243,-0.084143934,-5.8166241413
 C,0,1.29824937,1.9813410127,-6.2348876207
 H,0,1.311970268,2.3478414262,-5.2010649587
 H,0,2.0370363893,2.5844177464,-6.7930712968
 N,0,-0.0805490633,2.1191245916,-6.718209453
 H,0,-0.3416475239,3.1034311253,-6.7478162885
 H,0,-0.140052769,1.7847239787,-7.6798826658
 O,0,5.8494902973,1.1083691102,-2.5624680592
 H,0,6.7523702737,1.3396409259,-2.8528481643
 Recover connectivity data from disk.
                           ----------------------------
                           !    Current Parameters    !
                           ! (Angstroms and Degrees)  !
 --------------------------                            --------------------------
 ! Name  Definition              Value                                          !
 --------------------------------------------------------------------------------
 ! R1    R(1,2)                  1.0231                                         !
 ! R2    R(1,3)                  1.0809                                         !
 ! R3    R(1,4)                  1.0231                                         !
 ! R4    R(1,5)                  1.5025                                         !
 ! R5    R(5,6)                  1.0909                                         !
 ! R6    R(5,7)                  1.091                                          !
 ! R7    R(5,8)                  1.5526                                         !
 ! R8    R(8,9)                  1.2435                                         !
 ! R9    R(8,10)                 1.3171                                         !
 ! R10   R(10,11)                1.0239                                         !
 ! R11   R(10,12)                1.4663                                         !
 ! R12   R(12,13)                1.0928                                         !
 ! R13   R(12,14)                1.5376                                         !
 ! R14   R(12,15)                1.5471                                         !
 ! R15   R(14,18)                1.2353                                         !
 ! R16   R(14,29)                1.3388                                         !
 ! R17   R(15,16)                1.0973                                         !
 ! R18   R(15,17)                1.0972                                         !
 ! R19   R(15,19)                1.5408                                         !
 ! R20   R(19,20)                1.0976                                         !
 ! R21   R(19,21)                1.5336                                         !
 ! R22   R(19,25)                1.5356                                         !
 ! R23   R(21,22)                1.097                                          !
 ! R24   R(21,23)                1.0939                                         !
 ! R25   R(21,24)                1.0965                                         !
 ! R26   R(25,26)                1.0976                                         !
 ! R27   R(25,27)                1.0968                                         !
 ! R28   R(25,28)                1.0954                                         !
 ! R29   R(29,30)                1.0173                                         !
 ! R30   R(29,31)                1.4591                                         !
 ! R31   R(31,32)                1.0948                                         !
 ! R32   R(31,33)                1.537                                          !
 ! R33   R(31,34)                1.5505                                         !
 ! R34   R(33,36)                1.2338                                         !
 ! R35   R(33,45)                1.3488                                         !
 ! R36   R(34,35)                1.0978                                         !
 ! R37   R(34,37)                1.5317                                         !
 ! R38   R(34,41)                1.5329                                         !
 ! R39   R(37,38)                1.0952                                         !
 ! R40   R(37,39)                1.0947                                         !
 ! R41   R(37,40)                1.0948                                         !
 ! R42   R(41,42)                1.0955                                         !
 ! R43   R(41,43)                1.0943                                         !
 ! R44   R(41,44)                1.0972                                         !
 ! R45   R(45,46)                1.0108                                         !
 ! R46   R(45,47)                1.4626                                         !
 ! R47   R(47,48)                1.0926                                         !
 ! R48   R(47,49)                1.5156                                         !
 ! R49   R(47,50)                1.5469                                         !
 ! R50   R(49,53)                1.2061                                         !
 ! R51   R(49,66)                1.3593                                         !
 ! R52   R(50,51)                1.0945                                         !
 ! R53   R(50,52)                1.0965                                         !
 ! R54   R(50,54)                1.534                                          !
 ! R55   R(54,55)                1.0965                                         !
 ! R56   R(54,56)                1.096                                          !
 ! R57   R(54,57)                1.5346                                         !
 ! R58   R(57,58)                1.0985                                         !
 ! R59   R(57,59)                1.0983                                         !
 ! R60   R(57,60)                1.5293                                         !
 ! R61   R(60,61)                1.097                                          !
 ! R62   R(60,62)                1.105                                          !
 ! R63   R(60,63)                1.4675                                         !
 ! R64   R(63,64)                1.0188                                         !
 ! R65   R(63,65)                1.0199                                         !
 ! R66   R(66,67)                0.9762                                         !
 ! A1    A(2,1,3)              110.3595                                         !
 ! A2    A(2,1,4)              108.5017                                         !
 ! A3    A(2,1,5)              113.7253                                         !
 ! A4    A(3,1,4)              110.2312                                         !
 ! A5    A(3,1,5)              100.1218                                         !
 ! A6    A(4,1,5)              113.6631                                         !
 ! A7    A(1,5,6)              109.9112                                         !
 ! A8    A(1,5,7)              109.8195                                         !
 ! A9    A(1,5,8)              103.2486                                         !
 ! A10   A(6,5,7)              109.3236                                         !
 ! A11   A(6,5,8)              112.2854                                         !
 ! A12   A(7,5,8)              112.0998                                         !
 ! A13   A(5,8,9)              116.3249                                         !
 ! A14   A(5,8,10)             116.8868                                         !
 ! A15   A(9,8,10)             126.7873                                         !
 ! A16   A(8,10,11)            123.4378                                         !
 ! A17   A(8,10,12)            124.8928                                         !
 ! A18   A(11,10,12)           111.6537                                         !
 ! A19   A(10,12,13)           108.6845                                         !
 ! A20   A(10,12,14)           103.6307                                         !
 ! A21   A(10,12,15)           110.1293                                         !
 ! A22   A(13,12,14)           111.7151                                         !
 ! A23   A(13,12,15)           110.8158                                         !
 ! A24   A(14,12,15)           111.5998                                         !
 ! A25   A(12,14,18)           119.3544                                         !
 ! A26   A(12,14,29)           115.6232                                         !
 ! A27   A(18,14,29)           125.0007                                         !
 ! A28   A(12,15,16)           106.8925                                         !
 ! A29   A(12,15,17)           107.2199                                         !
 ! A30   A(12,15,19)           116.9228                                         !
 ! A31   A(16,15,17)           107.2786                                         !
 ! A32   A(16,15,19)           108.7134                                         !
 ! A33   A(17,15,19)           109.4062                                         !
 ! A34   A(15,19,20)           108.6417                                         !
 ! A35   A(15,19,21)           112.6022                                         !
 ! A36   A(15,19,25)           108.8493                                         !
 ! A37   A(20,19,21)           108.2175                                         !
 ! A38   A(20,19,25)           107.829                                          !
 ! A39   A(21,19,25)           110.5707                                         !
 ! A40   A(19,21,22)           110.7209                                         !
 ! A41   A(19,21,23)           110.33                                           !
 ! A42   A(19,21,24)           113.218                                          !
 ! A43   A(22,21,23)           107.9863                                         !
 ! A44   A(22,21,24)           107.5934                                         !
 ! A45   A(23,21,24)           106.7699                                         !
 ! A46   A(19,25,26)           110.5719                                         !
 ! A47   A(19,25,27)           111.0944                                         !
 ! A48   A(19,25,28)           112.0616                                         !
 ! A49   A(26,25,27)           107.637                                          !
 ! A50   A(26,25,28)           107.295                                          !
 ! A51   A(27,25,28)           107.9899                                         !
 ! A52   A(14,29,30)           120.7489                                         !
 ! A53   A(14,29,31)           123.5646                                         !
 ! A54   A(30,29,31)           112.911                                          !
 ! A55   A(29,31,32)           107.736                                          !
 ! A56   A(29,31,33)           103.7833                                         !
 ! A57   A(29,31,34)           112.4287                                         !
 ! A58   A(32,31,33)           110.5816                                         !
 ! A59   A(32,31,34)           108.4266                                         !
 ! A60   A(33,31,34)           113.7034                                         !
 ! A61   A(31,33,36)           119.9113                                         !
 ! A62   A(31,33,45)           117.1222                                         !
 ! A63   A(36,33,45)           122.9537                                         !
 ! A64   A(31,34,35)           104.4935                                         !
 ! A65   A(31,34,37)           112.2825                                         !
 ! A66   A(31,34,41)           111.1314                                         !
 ! A67   A(35,34,37)           108.7115                                         !
 ! A68   A(35,34,41)           108.177                                          !
 ! A69   A(37,34,41)           111.6851                                         !
 ! A70   A(34,37,38)           111.4773                                         !
 ! A71   A(34,37,39)           110.131                                          !
 ! A72   A(34,37,40)           111.4885                                         !
 ! A73   A(38,37,39)           107.9284                                         !
 ! A74   A(38,37,40)           107.7717                                         !
 ! A75   A(39,37,40)           107.8954                                         !
 ! A76   A(34,41,42)           111.4667                                         !
 ! A77   A(34,41,43)           110.2424                                         !
 ! A78   A(34,41,44)           111.6292                                         !
 ! A79   A(42,41,43)           107.5071                                         !
 ! A80   A(42,41,44)           108.3062                                         !
 ! A81   A(43,41,44)           107.5146                                         !
 ! A82   A(33,45,46)           120.5102                                         !
 ! A83   A(33,45,47)           120.2271                                         !
 ! A84   A(46,45,47)           117.9462                                         !
 ! A85   A(45,47,48)           108.2868                                         !
 ! A86   A(45,47,49)           111.3269                                         !
 ! A87   A(45,47,50)           110.2272                                         !
 ! A88   A(48,47,49)           107.507                                          !
 ! A89   A(48,47,50)           108.7022                                         !
 ! A90   A(49,47,50)           110.6845                                         !
 ! A91   A(47,49,53)           124.3217                                         !
 ! A92   A(47,49,66)           112.3195                                         !
 ! A93   A(53,49,66)           123.2783                                         !
 ! A94   A(47,50,51)           105.5021                                         !
 ! A95   A(47,50,52)           108.3606                                         !
 ! A96   A(47,50,54)           115.1047                                         !
 ! A97   A(51,50,52)           107.2818                                         !
 ! A98   A(51,50,54)           108.7212                                         !
 ! A99   A(52,50,54)           111.4409                                         !
 ! A100  A(50,54,55)           109.2656                                         !
 ! A101  A(50,54,56)           110.5538                                         !
 ! A102  A(50,54,57)           111.3388                                         !
 ! A103  A(55,54,56)           105.9553                                         !
 ! A104  A(55,54,57)           108.6757                                         !
 ! A105  A(56,54,57)           110.8782                                         !
 ! A106  A(54,57,58)           109.3708                                         !
 ! A107  A(54,57,59)           109.2241                                         !
 ! A108  A(54,57,60)           114.3476                                         !
 ! A109  A(58,57,59)           106.4814                                         !
 ! A110  A(58,57,60)           109.0857                                         !
 ! A111  A(59,57,60)           108.0332                                         !
 ! A112  A(57,60,61)           109.9008                                         !
 ! A113  A(57,60,62)           109.0982                                         !
 ! A114  A(57,60,63)           109.9985                                         !
 ! A115  A(61,60,62)           106.5802                                         !
 ! A116  A(61,60,63)           106.9042                                         !
 ! A117  A(62,60,63)           114.2389                                         !
 ! A118  A(60,63,64)           109.9421                                         !
 ! A119  A(60,63,65)           109.5466                                         !
 ! A120  A(64,63,65)           105.928                                          !
 ! A121  A(49,66,67)           106.7565                                         !
 ! D1    D(2,1,5,6)            121.8062                                         !
 ! D2    D(2,1,5,7)              1.4983                                         !
 ! D3    D(2,1,5,8)           -118.2176                                         !
 ! D4    D(3,1,5,6)           -120.5163                                         !
 ! D5    D(3,1,5,7)            119.1758                                         !
 ! D6    D(3,1,5,8)             -0.5401                                         !
 ! D7    D(4,1,5,6)             -3.0162                                         !
 ! D8    D(4,1,5,7)           -123.3241                                         !
 ! D9    D(4,1,5,8)            116.96                                           !
 ! D10   D(1,5,8,9)              0.6329                                         !
 ! D11   D(1,5,8,10)          -179.0304                                         !
 ! D12   D(6,5,8,9)            118.9669                                         !
 ! D13   D(6,5,8,10)           -60.6964                                         !
 ! D14   D(7,5,8,9)           -117.5022                                         !
 ! D15   D(7,5,8,10)            62.8345                                         !
 ! D16   D(5,8,10,11)           -0.6885                                         !
 ! D17   D(5,8,10,12)         -179.1256                                         !
 ! D18   D(9,8,10,11)          179.6883                                         !
 ! D19   D(9,8,10,12)            1.2512                                         !
 ! D20   D(8,10,12,13)         -43.5416                                         !
 ! D21   D(8,10,12,14)        -162.4821                                         !
 ! D22   D(8,10,12,15)          78.0252                                         !
 ! D23   D(11,10,12,13)        137.8617                                         !
 ! D24   D(11,10,12,14)         18.9211                                         !
 ! D25   D(11,10,12,15)       -100.5716                                         !
 ! D26   D(10,12,14,18)        -26.0733                                         !
 ! D27   D(10,12,14,29)        155.5328                                         !
 ! D28   D(13,12,14,18)       -142.9065                                         !
 ! D29   D(13,12,14,29)         38.6996                                         !
 ! D30   D(15,12,14,18)         92.4077                                         !
 ! D31   D(15,12,14,29)        -85.9862                                         !
 ! D32   D(10,12,15,16)        -57.9526                                         !
 ! D33   D(10,12,15,17)         56.8252                                         !
 ! D34   D(10,12,15,19)       -179.9769                                         !
 ! D35   D(13,12,15,16)         62.337                                          !
 ! D36   D(13,12,15,17)        177.1147                                         !
 ! D37   D(13,12,15,19)        -59.6874                                         !
 ! D38   D(14,12,15,16)       -172.4762                                         !
 ! D39   D(14,12,15,17)        -57.6984                                         !
 ! D40   D(14,12,15,19)         65.4995                                         !
 ! D41   D(12,14,29,30)          3.5745                                         !
 ! D42   D(12,14,29,31)        163.3517                                         !
 ! D43   D(18,14,29,30)       -174.7165                                         !
 ! D44   D(18,14,29,31)        -14.9393                                         !
 ! D45   D(12,15,19,20)        -60.1631                                         !
 ! D46   D(12,15,19,21)         59.6929                                         !
 ! D47   D(12,15,19,25)       -177.3315                                         !
 ! D48   D(16,15,19,20)        178.765                                          !
 ! D49   D(16,15,19,21)        -61.379                                          !
 ! D50   D(16,15,19,25)         61.5967                                         !
 ! D51   D(17,15,19,20)         61.9047                                         !
 ! D52   D(17,15,19,21)       -178.2393                                         !
 ! D53   D(17,15,19,25)        -55.2637                                         !
 ! D54   D(15,19,21,22)         59.4296                                         !
 ! D55   D(15,19,21,23)        178.9172                                         !
 ! D56   D(15,19,21,24)        -61.4956                                         !
 ! D57   D(20,19,21,22)        179.5306                                         !
 ! D58   D(20,19,21,23)        -60.9818                                         !
 ! D59   D(20,19,21,24)         58.6055                                         !
 ! D60   D(25,19,21,22)        -62.5777                                         !
 ! D61   D(25,19,21,23)         56.9099                                         !
 ! D62   D(25,19,21,24)        176.4972                                         !
 ! D63   D(15,19,25,26)        -60.5862                                         !
 ! D64   D(15,19,25,27)         58.8627                                         !
 ! D65   D(15,19,25,28)        179.7615                                         !
 ! D66   D(20,19,25,26)       -178.2705                                         !
 ! D67   D(20,19,25,27)        -58.8216                                         !
 ! D68   D(20,19,25,28)         62.0772                                         !
 ! D69   D(21,19,25,26)         63.6001                                         !
 ! D70   D(21,19,25,27)       -176.951                                          !
 ! D71   D(21,19,25,28)        -56.0521                                         !
 ! D72   D(14,29,31,32)        -21.6515                                         !
 ! D73   D(14,29,31,33)       -138.9411                                         !
 ! D74   D(14,29,31,34)         97.757                                          !
 ! D75   D(30,29,31,32)        139.5332                                         !
 ! D76   D(30,29,31,33)         22.2436                                         !
 ! D77   D(30,29,31,34)       -101.0583                                         !
 ! D78   D(29,31,33,36)        -28.073                                          !
 ! D79   D(29,31,33,45)        150.6623                                         !
 ! D80   D(32,31,33,36)       -143.3609                                         !
 ! D81   D(32,31,33,45)         35.3744                                         !
 ! D82   D(34,31,33,36)         94.3893                                         !
 ! D83   D(34,31,33,45)        -86.8754                                         !
 ! D84   D(29,31,34,35)        -56.5398                                         !
 ! D85   D(29,31,34,37)         61.1066                                         !
 ! D86   D(29,31,34,41)       -172.9851                                         !
 ! D87   D(32,31,34,35)         62.4654                                         !
 ! D88   D(32,31,34,37)       -179.8882                                         !
 ! D89   D(32,31,34,41)        -53.9799                                         !
 ! D90   D(33,31,34,35)       -174.1021                                         !
 ! D91   D(33,31,34,37)        -56.4557                                         !
 ! D92   D(33,31,34,41)         69.4526                                         !
 ! D93   D(31,33,45,46)         -3.9359                                         !
 ! D94   D(31,33,45,47)       -170.5671                                         !
 ! D95   D(36,33,45,46)        174.7577                                         !
 ! D96   D(36,33,45,47)          8.1265                                         !
 ! D97   D(31,34,37,38)         64.9085                                         !
 ! D98   D(31,34,37,39)       -175.3197                                         !
 ! D99   D(31,34,37,40)        -55.582                                          !
 ! D100  D(35,34,37,38)       -179.9818                                         !
 ! D101  D(35,34,37,39)        -60.2099                                         !
 ! D102  D(35,34,37,40)         59.5277                                         !
 ! D103  D(41,34,37,38)        -60.6983                                         !
 ! D104  D(41,34,37,39)         59.0735                                         !
 ! D105  D(41,34,37,40)        178.8112                                         !
 ! D106  D(31,34,41,42)        -67.4598                                         !
 ! D107  D(31,34,41,43)        173.2299                                         !
 ! D108  D(31,34,41,44)         53.8052                                         !
 ! D109  D(35,34,41,42)        178.3789                                         !
 ! D110  D(35,34,41,43)         59.0685                                         !
 ! D111  D(35,34,41,44)        -60.3561                                         !
 ! D112  D(37,34,41,42)         58.7795                                         !
 ! D113  D(37,34,41,43)        -60.5308                                         !
 ! D114  D(37,34,41,44)       -179.9555                                         !
 ! D115  D(33,45,47,48)        -49.3834                                         !
 ! D116  D(33,45,47,49)       -167.3615                                         !
 ! D117  D(33,45,47,50)         69.4108                                         !
 ! D118  D(46,45,47,48)        143.6489                                         !
 ! D119  D(46,45,47,49)         25.6708                                         !
 ! D120  D(46,45,47,50)        -97.5569                                         !
 ! D121  D(45,47,49,53)        159.9423                                         !
 ! D122  D(45,47,49,66)        -23.2349                                         !
 ! D123  D(48,47,49,53)         41.4948                                         !
 ! D124  D(48,47,49,66)       -141.6824                                         !
 ! D125  D(50,47,49,53)        -77.0916                                         !
 ! D126  D(50,47,49,66)         99.7312                                         !
 ! D127  D(45,47,50,51)        -50.32                                           !
 ! D128  D(45,47,50,52)         64.3176                                         !
 ! D129  D(45,47,50,54)       -170.1734                                         !
 ! D130  D(48,47,50,51)         68.22                                           !
 ! D131  D(48,47,50,52)       -177.1424                                         !
 ! D132  D(48,47,50,54)        -51.6333                                         !
 ! D133  D(49,47,50,51)       -173.9217                                         !
 ! D134  D(49,47,50,52)        -59.2841                                         !
 ! D135  D(49,47,50,54)         66.2249                                         !
 ! D136  D(47,49,66,67)       -177.794                                          !
 ! D137  D(53,49,66,67)         -0.9327                                         !
 ! D138  D(47,50,54,55)         35.7856                                         !
 ! D139  D(47,50,54,56)        -80.4489                                         !
 ! D140  D(47,50,54,57)        155.8331                                         !
 ! D141  D(51,50,54,55)        -82.2765                                         !
 ! D142  D(51,50,54,56)        161.489                                          !
 ! D143  D(51,50,54,57)         37.771                                          !
 ! D144  D(52,50,54,55)        159.6841                                         !
 ! D145  D(52,50,54,56)         43.4497                                         !
 ! D146  D(52,50,54,57)        -80.2683                                         !
 ! D147  D(50,54,57,58)       -175.632                                          !
 ! D148  D(50,54,57,59)        -59.4587                                         !
 ! D149  D(50,54,57,60)         61.7161                                         !
 ! D150  D(55,54,57,58)        -55.2363                                         !
 ! D151  D(55,54,57,59)         60.9369                                         !
 ! D152  D(55,54,57,60)       -177.8883                                         !
 ! D153  D(56,54,57,58)         60.8345                                         !
 ! D154  D(56,54,57,59)        177.0078                                         !
 ! D155  D(56,54,57,60)        -61.8174                                         !
 ! D156  D(54,57,60,61)        -51.8173                                         !
 ! D157  D(54,57,60,62)         64.7022                                         !
 ! D158  D(54,57,60,63)       -169.2581                                         !
 ! D159  D(58,57,60,61)       -174.6239                                         !
 ! D160  D(58,57,60,62)        -58.1044                                         !
 ! D161  D(58,57,60,63)         67.9353                                         !
 ! D162  D(59,57,60,61)         70.0126                                         !
 ! D163  D(59,57,60,62)       -173.4679                                         !
 ! D164  D(59,57,60,63)        -47.4282                                         !
 ! D165  D(57,60,63,64)       -176.5071                                         !
 ! D166  D(57,60,63,65)        -60.4923                                         !
 ! D167  D(61,60,63,64)         64.2052                                         !
 ! D168  D(61,60,63,65)       -179.78                                           !
 ! D169  D(62,60,63,64)        -53.4343                                         !
 ! D170  D(62,60,63,65)         62.5805                                         !
 --------------------------------------------------------------------------------
 Symmetry turned off by external request.
 Stoichiometry    C19H38N5O5(1+)
 Framework group  C1[X(C19H38N5O5)]
 Deg. of freedom   195
 Full point group                 C1      NOp   1
                          Input orientation:                          
 ---------------------------------------------------------------------
 Center     Atomic      Atomic             Coordinates (Angstroms)
 Number     Number       Type             X           Y           Z
 ---------------------------------------------------------------------
      1          7           0       -5.662418    1.533560    2.932297
      2          1           0       -6.290234    2.333406    2.819216
      3          1           0       -5.692663    0.904577    2.053718
      4          1           0       -5.956524    1.003990    3.756853
      5          6           0       -4.206466    1.904428    2.941533
      6          1           0       -3.744871    1.574228    3.873184
      7          1           0       -4.099722    2.986288    2.849350
      8          6           0       -3.640345    1.154214    1.705737
      9          8           0       -4.455519    0.488144    1.043867
     10          7           0       -2.350686    1.282088    1.470562
     11          1           0       -1.725271    1.850014    2.049091
     12          6           0       -1.638160    0.667523    0.346015
     13          1           0       -1.979683   -0.364784    0.237323
     14          6           0       -0.162114    0.736645    0.771017
     15          6           0       -1.895716    1.471240   -0.950632
     16          1           0       -2.981708    1.484619   -1.107064
     17          1           0       -1.581165    2.504973   -0.759931
     18          8           0        0.200394    1.615430    1.559880
     19          6           0       -1.217445    0.958496   -2.235619
     20          1           0       -0.130128    0.966587   -2.085631
     21          6           0       -1.641146   -0.470795   -2.595723
     22          1           0       -2.726221   -0.527505   -2.747021
     23          1           0       -1.153831   -0.789766   -3.521737
     24          1           0       -1.374615   -1.207038   -1.828112
     25          6           0       -1.540560    1.923023   -3.385924
     26          1           0       -2.624012    1.973062   -3.554486
     27          1           0       -1.192233    2.938106   -3.159569
     28          1           0       -1.078529    1.609040   -4.328234
     29          7           0        0.645423   -0.171012    0.208568
     30          1           0        0.292761   -0.816412   -0.494240
     31          6           0        2.100283   -0.060873    0.199556
     32          1           0        2.355896    0.993155    0.349020
     33          6           0        2.493282   -0.516869   -1.214620
     34          6           0        2.763382   -0.890888    1.328886
     35          1           0        2.302609   -0.516075    2.252112
     36          8           0        1.777910   -1.316039   -1.824397
     37          6           0        2.463278   -2.387612    1.202450
     38          1           0        2.904266   -2.809593    0.293065
     39          1           0        2.876635   -2.928468    2.059699
     40          1           0        1.385883   -2.579376    1.171410
     41          6           0        4.270299   -0.619562    1.402210
     42          1           0        4.789708   -0.999754    0.515766
     43          1           0        4.702549   -1.117187    2.275747
     44          1           0        4.484187    0.452695    1.493546
     45          7           0        3.616132    0.012880   -1.741686
     46          1           0        4.132172    0.723569   -1.241293
     47          6           0        3.944595   -0.209289   -3.149525
     48          1           0        3.857911   -1.278454   -3.357193
     49          6           0        5.371776    0.200000   -3.453779
     50          6           0        2.951849    0.554381   -4.057284
     51          1           0        1.955483    0.281920   -3.695344
     52          1           0        3.079645    1.629075   -3.881477
     53          8           0        6.000267   -0.183481   -4.409144
     54          6           0        3.042816    0.215764   -5.550705
     55          1           0        3.274872   -0.849631   -5.666636
     56          1           0        3.872954    0.757531   -6.018234
     57          6           0        1.721119    0.512121   -6.272002
     58          1           0        1.796049    0.186244   -7.318359
     59          1           0        0.919025   -0.084144   -5.816624
     60          6           0        1.298249    1.981341   -6.234888
     61          1           0        1.311970    2.347841   -5.201065
     62          1           0        2.037036    2.584418   -6.793071
     63          7           0       -0.080549    2.119125   -6.718209
     64          1           0       -0.341648    3.103431   -6.747816
     65          1           0       -0.140053    1.784724   -7.679883
     66          8           0        5.849490    1.108369   -2.562468
     67          1           0        6.752370    1.339641   -2.852848
 ---------------------------------------------------------------------
 Rotational constants (GHZ):           0.2032193           0.0846515           0.0645783
 Standard basis: 6-31G(d) (6D, 7F)
   511 basis functions,   964 primitive gaussians,   511 cartesian basis functions
   113 alpha electrons      113 beta electrons
       nuclear repulsion energy      3062.5590193898 Hartrees.
 NAtoms=   67 NActive=   67 NUniq=   67 SFac= 1.00D+00 NAtFMM=   60 NAOKFM=T Big=T
 Integral buffers will be    131072 words long.
 Raffenetti 2 integral format.
 Two-electron integral symmetry is turned off.
 Nuclear repulsion after empirical dispersion term =     3062.4296689399 Hartrees.
 One-electron integrals computed using PRISM.
 NBasis=   511 RedAO= T EigKep=  1.84D-03  NBF=   511
 NBsUse=   511 1.00D-06 EigRej= -1.00D+00 NBFU=   511
 Initial guess from the checkpoint file:  "conf-472.chk"
 B after Tr=     0.000000    0.000000    0.000000
         Rot=    1.000000    0.000000    0.000000    0.000000 Ang=   0.00 deg.
 Requested convergence on RMS density matrix=1.00D-08 within 128 cycles.
 Requested convergence on MAX density matrix=1.00D-06.
 Requested convergence on             energy=1.00D-06.
 No special actions if energy rises.
 SCF Done:  E(RB3LYP) =  -1396.76063526     A.U. after    3 cycles
            NFock=  3  Conv=0.49D-09     -V/T= 2.0094

 **********************************************************************

            Population analysis using the SCF Density.

 **********************************************************************

 Alpha  occ. eigenvalues --  -19.28397 -19.27976 -19.22282 -19.21666 -19.20639
 Alpha  occ. eigenvalues --  -14.61780 -14.50560 -14.45737 -14.45115 -14.37247
 Alpha  occ. eigenvalues --  -10.45151 -10.42333 -10.39983 -10.39239 -10.37669
 Alpha  occ. eigenvalues --  -10.34864 -10.32138 -10.31777 -10.28541 -10.27612
 Alpha  occ. eigenvalues --  -10.27358 -10.26477 -10.26024 -10.25185 -10.25106
 Alpha  occ. eigenvalues --  -10.24585 -10.24434 -10.24082 -10.23868  -1.20905
 Alpha  occ. eigenvalues --   -1.18566  -1.15414  -1.14325  -1.12704  -1.09558
 Alpha  occ. eigenvalues --   -1.07273  -1.02680  -1.01568  -0.93840  -0.92503
 Alpha  occ. eigenvalues --   -0.89894  -0.88921  -0.87145  -0.84884  -0.82795
 Alpha  occ. eigenvalues --   -0.79532  -0.76730  -0.76067  -0.75827  -0.75776
 Alpha  occ. eigenvalues --   -0.75720  -0.75338  -0.71924  -0.70751  -0.69602
 Alpha  occ. eigenvalues --   -0.68756  -0.67659  -0.67263  -0.65225  -0.64621
 Alpha  occ. eigenvalues --   -0.64182  -0.63673  -0.62135  -0.61864  -0.59542
 Alpha  occ. eigenvalues --   -0.59225  -0.57329  -0.56440  -0.55891  -0.55755
 Alpha  occ. eigenvalues --   -0.55166  -0.54660  -0.54221  -0.53962  -0.53735
 Alpha  occ. eigenvalues --   -0.53301  -0.52141  -0.51893  -0.51337  -0.50929
 Alpha  occ. eigenvalues --   -0.50357  -0.49970  -0.49533  -0.48400  -0.47807
 Alpha  occ. eigenvalues --   -0.47534  -0.46920  -0.46684  -0.46248  -0.45733
 Alpha  occ. eigenvalues --   -0.45514  -0.44961  -0.44564  -0.43810  -0.43599
 Alpha  occ. eigenvalues --   -0.43102  -0.42575  -0.41749  -0.41456  -0.41347
 Alpha  occ. eigenvalues --   -0.40919  -0.40746  -0.40454  -0.39751  -0.39153
 Alpha  occ. eigenvalues --   -0.39079  -0.38354  -0.36482  -0.35896  -0.35504
 Alpha  occ. eigenvalues --   -0.34522  -0.33176  -0.29487
 Alpha virt. eigenvalues --   -0.13436  -0.13130  -0.08512  -0.07664  -0.07208
 Alpha virt. eigenvalues --   -0.06203  -0.06005  -0.02442  -0.01643  -0.01099
 Alpha virt. eigenvalues --   -0.01005   0.00348   0.01198   0.01275   0.02542
 Alpha virt. eigenvalues --    0.02912   0.03383   0.04029   0.04255   0.04342
 Alpha virt. eigenvalues --    0.04963   0.05404   0.05851   0.06061   0.06554
 Alpha virt. eigenvalues --    0.07201   0.07712   0.07957   0.08206   0.08812
 Alpha virt. eigenvalues --    0.09072   0.09790   0.09838   0.10584   0.10905
 Alpha virt. eigenvalues --    0.11029   0.11278   0.11746   0.12217   0.12747
 Alpha virt. eigenvalues --    0.13168   0.13376   0.13607   0.14022   0.14109
 Alpha virt. eigenvalues --    0.14183   0.14890   0.15259   0.15544   0.16843
 Alpha virt. eigenvalues --    0.17402   0.17469   0.18011   0.18368   0.18700
 Alpha virt. eigenvalues --    0.18962   0.19367   0.19754   0.20387   0.20839
 Alpha virt. eigenvalues --    0.21247   0.22980   0.23669   0.24784   0.25400
 Alpha virt. eigenvalues --    0.27124   0.29238   0.30861   0.32452   0.34083
 Alpha virt. eigenvalues --    0.34611   0.36712   0.38201   0.40477   0.41864
 Alpha virt. eigenvalues --    0.42444   0.42791   0.43239   0.43552   0.43666
 Alpha virt. eigenvalues --    0.44470   0.45279   0.45347   0.46411   0.46808
 Alpha virt. eigenvalues --    0.46968   0.47891   0.48118   0.48528   0.48946
 Alpha virt. eigenvalues --    0.49467   0.49938   0.50472   0.51091   0.51568
 Alpha virt. eigenvalues --    0.53182   0.54504   0.55058   0.55502   0.56060
 Alpha virt. eigenvalues --    0.56376   0.57168   0.57738   0.58263   0.58774
 Alpha virt. eigenvalues --    0.59210   0.59325   0.59551   0.60359   0.61645
 Alpha virt. eigenvalues --    0.62558   0.62904   0.62985   0.63574   0.64053
 Alpha virt. eigenvalues --    0.64418   0.64870   0.65443   0.65878   0.66187
 Alpha virt. eigenvalues --    0.67386   0.67971   0.68028   0.68031   0.68561
 Alpha virt. eigenvalues --    0.68840   0.69280   0.70750   0.71001   0.72570
 Alpha virt. eigenvalues --    0.73313   0.74140   0.74620   0.74960   0.75345
 Alpha virt. eigenvalues --    0.75610   0.76370   0.76914   0.77392   0.77598
 Alpha virt. eigenvalues --    0.78214   0.78420   0.78766   0.79443   0.79885
 Alpha virt. eigenvalues --    0.80717   0.81149   0.81349   0.81635   0.82185
 Alpha virt. eigenvalues --    0.82388   0.83435   0.83683   0.84053   0.84291
 Alpha virt. eigenvalues --    0.84792   0.84895   0.84976   0.85534   0.85833
 Alpha virt. eigenvalues --    0.86268   0.86400   0.86791   0.87622   0.88015
 Alpha virt. eigenvalues --    0.88435   0.89610   0.89676   0.90087   0.91077
 Alpha virt. eigenvalues --    0.91521   0.91776   0.92377   0.93414   0.94133
 Alpha virt. eigenvalues --    0.94823   0.95076   0.95918   0.96771   0.97636
 Alpha virt. eigenvalues --    0.98142   0.98665   0.99546   1.00440   1.01022
 Alpha virt. eigenvalues --    1.01330   1.01886   1.03559   1.04161   1.05069
 Alpha virt. eigenvalues --    1.06050   1.07736   1.07835   1.09808   1.11852
 Alpha virt. eigenvalues --    1.12772   1.13951   1.15418   1.17329   1.18276
 Alpha virt. eigenvalues --    1.20083   1.21462   1.22242   1.22611   1.23899
 Alpha virt. eigenvalues --    1.24614   1.26594   1.28198   1.31719   1.32182
 Alpha virt. eigenvalues --    1.33300   1.33814   1.34777   1.35856   1.36279
 Alpha virt. eigenvalues --    1.38062   1.38942   1.39695   1.41831   1.42042
 Alpha virt. eigenvalues --    1.43606   1.44384   1.44917   1.46420   1.48069
 Alpha virt. eigenvalues --    1.49174   1.49879   1.51009   1.53471   1.54229
 Alpha virt. eigenvalues --    1.55644   1.56523   1.57123   1.57748   1.59899
 Alpha virt. eigenvalues --    1.61147   1.61389   1.61950   1.62795   1.64588
 Alpha virt. eigenvalues --    1.65627   1.65934   1.66803   1.67887   1.68936
 Alpha virt. eigenvalues --    1.69678   1.70516   1.70870   1.71450   1.71919
 Alpha virt. eigenvalues --    1.73111   1.73507   1.74563   1.75537   1.75781
 Alpha virt. eigenvalues --    1.76146   1.76782   1.76952   1.77835   1.78049
 Alpha virt. eigenvalues --    1.78545   1.80664   1.81641   1.81972   1.82873
 Alpha virt. eigenvalues --    1.83810   1.84237   1.84790   1.85072   1.86740
 Alpha virt. eigenvalues --    1.87213   1.88204   1.88582   1.88636   1.89073
 Alpha virt. eigenvalues --    1.89517   1.89936   1.91340   1.92138   1.92466
 Alpha virt. eigenvalues --    1.93206   1.94201   1.94563   1.95276   1.95515
 Alpha virt. eigenvalues --    1.96106   1.96974   1.97984   2.00161   2.00574
 Alpha virt. eigenvalues --    2.01055   2.01951   2.02935   2.03797   2.03982
 Alpha virt. eigenvalues --    2.06568   2.07358   2.08138   2.08962   2.10693
 Alpha virt. eigenvalues --    2.11994   2.12651   2.14156   2.15638   2.15720
 Alpha virt. eigenvalues --    2.16934   2.18018   2.18458   2.19552   2.19666
 Alpha virt. eigenvalues --    2.21535   2.21973   2.22621   2.24019   2.24147
 Alpha virt. eigenvalues --    2.25464   2.26496   2.27694   2.28487   2.29889
 Alpha virt. eigenvalues --    2.31187   2.32097   2.33038   2.33665   2.36449
 Alpha virt. eigenvalues --    2.36722   2.37021   2.39394   2.40455   2.41710
 Alpha virt. eigenvalues --    2.43103   2.44103   2.44583   2.45005   2.45927
 Alpha virt. eigenvalues --    2.47066   2.47731   2.50608   2.51511   2.52841
 Alpha virt. eigenvalues --    2.53761   2.56584   2.57862   2.60077   2.60735
 Alpha virt. eigenvalues --    2.61687   2.63340   2.63573   2.65458   2.67111
 Alpha virt. eigenvalues --    2.68315   2.68959   2.69486   2.71500   2.74476
 Alpha virt. eigenvalues --    2.76009   2.78718   2.79283   2.79931   2.82959
 Alpha virt. eigenvalues --    2.85483   2.87712   2.90024   2.91182   2.95112
 Alpha virt. eigenvalues --    3.02491   3.05246   3.09249   3.12446   3.61466
 Alpha virt. eigenvalues --    3.75844   3.80612   3.90581   3.93581   3.96368
 Alpha virt. eigenvalues --    3.97758   4.05013   4.07971   4.08561   4.10969
 Alpha virt. eigenvalues --    4.12197   4.12738   4.15351   4.18808   4.22634
 Alpha virt. eigenvalues --    4.24670   4.26187   4.27983   4.31393   4.33066
 Alpha virt. eigenvalues --    4.38217   4.40323   4.48442   4.50081   4.50945
 Alpha virt. eigenvalues --    4.58734   4.60590   4.62189
          Condensed to atoms (all electrons):
 Mulliken charges:
               1
     1  N   -0.751985
     2  H    0.422251
     3  H    0.441487
     4  H    0.422414
     5  C   -0.276440
     6  H    0.248159
     7  H    0.247766
     8  C    0.643266
     9  O   -0.533577
    10  N   -0.600702
    11  H    0.374475
    12  C   -0.068680
    13  H    0.191841
    14  C    0.619722
    15  C   -0.257095
    16  H    0.159969
    17  H    0.149802
    18  O   -0.549474
    19  C   -0.098305
    20  H    0.135888
    21  C   -0.453220
    22  H    0.149569
    23  H    0.177772
    24  H    0.134126
    25  C   -0.472197
    26  H    0.140862
    27  H    0.135393
    28  H    0.206397
    29  N   -0.618722
    30  H    0.381084
    31  C   -0.057952
    32  H    0.171757
    33  C    0.638933
    34  C   -0.071943
    35  H    0.153871
    36  O   -0.549355
    37  C   -0.457551
    38  H    0.166444
    39  H    0.158912
    40  H    0.145311
    41  C   -0.469318
    42  H    0.158083
    43  H    0.167965
    44  H    0.145318
    45  N   -0.623664
    46  H    0.359444
    47  C   -0.040223
    48  H    0.207758
    49  C    0.591166
    50  C   -0.289676
    51  H    0.180655
    52  H    0.145123
    53  O   -0.441223
    54  C   -0.266236
    55  H    0.155252
    56  H    0.155749
    57  C   -0.269958
    58  H    0.139945
    59  H    0.148748
    60  C   -0.136463
    61  H    0.134665
    62  H    0.124734
    63  N   -0.721326
    64  H    0.301154
    65  H    0.302447
    66  O   -0.587669
    67  H    0.427275
 Sum of Mulliken charges =   1.00000
 Mulliken charges with hydrogens summed into heavy atoms:
               1
     1  N    0.534168
     5  C    0.219485
     8  C    0.643266
     9  O   -0.533577
    10  N   -0.226227
    12  C    0.123161
    14  C    0.619722
    15  C    0.052676
    18  O   -0.549474
    19  C    0.037583
    21  C    0.008247
    25  C    0.010455
    29  N   -0.237638
    31  C    0.113805
    33  C    0.638933
    34  C    0.081927
    36  O   -0.549355
    37  C    0.013116
    41  C    0.002048
    45  N   -0.264219
    47  C    0.167535
    49  C    0.591166
    50  C    0.036103
    53  O   -0.441223
    54  C    0.044765
    57  C    0.018735
    60  C    0.122937
    63  N   -0.117725
    66  O   -0.160394
 Electronic spatial extent (au):  <R**2>=          18559.0518
 Charge=              1.0000 electrons
 Dipole moment (field-independent basis, Debye):
    X=            -14.2370    Y=              9.1057    Z=              8.5536  Tot=             18.9412
 Quadrupole moment (field-independent basis, Debye-Ang):
   XX=            -45.6305   YY=           -156.4941   ZZ=           -114.6425
   XY=            -27.5522   XZ=            -66.4439   YZ=              1.5011
 Traceless Quadrupole moment (field-independent basis, Debye-Ang):
   XX=             59.9585   YY=            -50.9050   ZZ=             -9.0535
   XY=            -27.5522   XZ=            -66.4439   YZ=              1.5011
 Octapole moment (field-independent basis, Debye-Ang**2):
  XXX=           -857.6172  YYY=           -195.8535  ZZZ=            690.9495  XYY=           -194.5514
  XXY=            181.9407  XXZ=            622.5913  XZZ=           -350.8131  YZZ=             64.0992
  YYZ=            252.2724  XYZ=           -152.6427
 Hexadecapole moment (field-independent basis, Debye-Ang**3):
 XXXX=          -6120.0783 YYYY=          -1675.2289 ZZZZ=          -8844.1694 XXXY=              2.2049
 XXXZ=            528.6733 YYYX=            506.1256 YYYZ=            568.1561 ZZZX=           1954.9851
 ZZZY=            165.9222 XXYY=          -1586.4524 XXZZ=          -2729.8210 YYZZ=          -1769.9007
 XXYZ=            553.3662 YYXZ=            600.0672 ZZXY=             29.5438
 N-N= 3.062429668940D+03 E-N=-9.355428708180D+03  KE= 1.383720195664D+03
 Unable to Open any file for archive entry.
 1\1\GINC-VIM-002\SP\RB3LYP\6-31G(d)\C19H38N5O5(1+)\KENGMITH\12-Jul-202
 2\0\\# B3LYP/6-31G* empiricaldispersion=gd3bj guess=read geom=check no
 symm integral(ultrafinegrid)\\Candidate Structure: Conf:472 Charge cal
 c in gas phase\\1,1\N,0,-5.6624182991,1.5335596338,2.9322970845\H,0,-6
 .2902337985,2.3334060128,2.8192157656\H,0,-5.6926628073,0.9045774524,2
 .0537177194\H,0,-5.9565235917,1.0039899737,3.7568530628\C,0,-4.2064663
 486,1.904427569,2.9415327044\H,0,-3.74487146,1.5742280909,3.8731842032
 \H,0,-4.0997223674,2.9862882547,2.8493495009\C,0,-3.6403446989,1.15421
 39082,1.7057368895\O,0,-4.4555186856,0.4881441024,1.0438666501\N,0,-2.
 3506862374,1.2820878002,1.4705615782\H,0,-1.7252709067,1.8500136645,2.
 04909132\C,0,-1.6381596284,0.6675230095,0.3460146363\H,0,-1.9796827339
 ,-0.3647839956,0.2373233737\C,0,-0.1621139055,0.7366446608,0.771017279
 7\C,0,-1.8957155552,1.4712399413,-0.9506320341\H,0,-2.9817076353,1.484
 6185365,-1.1070643016\H,0,-1.5811647643,2.5049728185,-0.7599313164\O,0
 ,0.2003938448,1.6154299749,1.5598804416\C,0,-1.2174450081,0.9584963749
 ,-2.2356192431\H,0,-0.130127864,0.9665866791,-2.0856313337\C,0,-1.6411
 458688,-0.4707952579,-2.5957225037\H,0,-2.7262206457,-0.5275052056,-2.
 7470205666\H,0,-1.1538312946,-0.7897659521,-3.5217365263\H,0,-1.374615
 4254,-1.2070376573,-1.8281115133\C,0,-1.5405600255,1.9230228452,-3.385
 9237504\H,0,-2.6240120956,1.9730620596,-3.5544861852\H,0,-1.192232703,
 2.9381061543,-3.1595689279\H,0,-1.0785289044,1.609039595,-4.3282340879
 \N,0,0.6454228874,-0.1710123789,0.2085684747\H,0,0.2927610487,-0.81641
 20377,-0.4942401943\C,0,2.1002834672,-0.060873228,0.1995555322\H,0,2.3
 558955476,0.9931545626,0.349020308\C,0,2.4932821785,-0.5168685112,-1.2
 146196494\C,0,2.7633823741,-0.8908881251,1.3288860406\H,0,2.3026090209
 ,-0.516074965,2.2521119271\O,0,1.7779102485,-1.3160391479,-1.824397367
 2\C,0,2.4632778362,-2.3876121452,1.2024503748\H,0,2.904266455,-2.80959
 26485,0.293064924\H,0,2.8766346048,-2.928468488,2.0596993652\H,0,1.385
 8831376,-2.5793755844,1.1714097827\C,0,4.2702991398,-0.6195622902,1.40
 220996\H,0,4.7897080379,-0.9997535073,0.5157659657\H,0,4.7025487021,-1
 .1171867346,2.2757474322\H,0,4.484186767,0.4526949754,1.4935458207\N,0
 ,3.6161322986,0.0128801112,-1.7416858492\H,0,4.132171562,0.7235687009,
 -1.2412925345\C,0,3.9445951962,-0.2092894279,-3.1495252805\H,0,3.85791
 13696,-1.2784542804,-3.3571925218\C,0,5.3717755297,0.1999996924,-3.453
 7791662\C,0,2.9518485031,0.5543805832,-4.0572840375\H,0,1.9554825664,0
 .2819196343,-3.6953437913\H,0,3.0796447485,1.6290754917,-3.8814771096\
 O,0,6.0002673695,-0.1834810651,-4.4091440435\C,0,3.042815617,0.2157644
 255,-5.550705229\H,0,3.2748716737,-0.8496312652,-5.666635994\H,0,3.872
 9538587,0.7575310973,-6.0182335997\C,0,1.7211191547,0.512121458,-6.272
 001879\H,0,1.7960492263,0.1862436315,-7.3183588426\H,0,0.9190250243,-0
 .084143934,-5.8166241413\C,0,1.29824937,1.9813410127,-6.2348876207\H,0
 ,1.311970268,2.3478414262,-5.2010649587\H,0,2.0370363893,2.5844177464,
 -6.7930712968\N,0,-0.0805490633,2.1191245916,-6.718209453\H,0,-0.34164
 75239,3.1034311253,-6.7478162885\H,0,-0.140052769,1.7847239787,-7.6798
 826658\O,0,5.8494902973,1.1083691102,-2.5624680592\H,0,6.7523702737,1.
 3396409259,-2.8528481643\\Version=ES64L-G16RevC.01\HF=-1396.7606353\RM
 SD=4.889e-10\Dipole=-6.9440659,2.6557294,5.9750997\Quadrupole=44.57768
 99,-37.8466529,-6.731037,-20.4843907,-49.3994023,1.1160654\PG=C01 [X(C
 19H38N5O5)]\\@
 The archive entry for this job was punched.


 The hours that make us happy make us wise.
                         -- John Masefield
 Job cpu time:       0 days  0 hours  3 minutes  9.6 seconds.
 Elapsed time:       0 days  0 hours  0 minutes 48.0 seconds.
 File lengths (MBytes):  RWF=    256 Int=      0 D2E=      0 Chk=     40 Scr=     16
 Normal termination of Gaussian 16 at Tue Jul 12 17:43:12 2022.
