 Entering Gaussian System, Link 0=/opt/software/Gaussian/g16-AVX-C.01/g16/g16
 Input=charge-conf-34.com
 Output=charge-conf-34.log
 Initial command:
 /opt/software/Gaussian/g16-AVX-C.01/g16/l1.exe "/mnt/gs18/scratch/users/kengmith/Gau-31475.inp" -scrdir="/mnt/gs18/scratch/users/kengmith/"
 Entering Link 1 = /opt/software/Gaussian/g16-AVX-C.01/g16/l1.exe PID=     31511.
  
 Copyright (c) 1988-2019, Gaussian, Inc.  All Rights Reserved.
  
 This is part of the Gaussian(R) 16 program.  It is based on
 the Gaussian(R) 09 system (copyright 2009, Gaussian, Inc.),
 the Gaussian(R) 03 system (copyright 2003, Gaussian, Inc.),
 the Gaussian(R) 98 system (copyright 1998, Gaussian, Inc.),
 the Gaussian(R) 94 system (copyright 1995, Gaussian, Inc.),
 the Gaussian 92(TM) system (copyright 1992, Gaussian, Inc.),
 the Gaussian 90(TM) system (copyright 1990, Gaussian, Inc.),
 the Gaussian 88(TM) system (copyright 1988, Gaussian, Inc.),
 the Gaussian 86(TM) system (copyright 1986, Carnegie Mellon
 University), and the Gaussian 82(TM) system (copyright 1983,
 Carnegie Mellon University). Gaussian is a federally registered
 trademark of Gaussian, Inc.
  
 This software contains proprietary and confidential information,
 including trade secrets, belonging to Gaussian, Inc.
  
 This software is provided under written license and may be
 used, copied, transmitted, or stored only in accord with that
 written license.
  
 The following legend is applicable only to US Government
 contracts under FAR:
  
                    RESTRICTED RIGHTS LEGEND
  
 Use, reproduction and disclosure by the US Government is
 subject to restrictions as set forth in subparagraphs (a)
 and (c) of the Commercial Computer Software - Restricted
 Rights clause in FAR 52.227-19.
  
 Gaussian, Inc.
 340 Quinnipiac St., Bldg. 40, Wallingford CT 06492
  
  
 ---------------------------------------------------------------
 Warning -- This program may not be used in any manner that
 competes with the business of Gaussian, Inc. or will provide
 assistance to any competitor of Gaussian, Inc.  The licensee
 of this program is prohibited from giving any competitor of
 Gaussian, Inc. access to this program.  By using this program,
 the user acknowledges that Gaussian, Inc. is engaged in the
 business of creating and licensing software in the field of
 computational chemistry and represents and warrants to the
 licensee that it is not a competitor of Gaussian, Inc. and that
 it will not use this program in any manner prohibited above.
 ---------------------------------------------------------------
  

 Cite this work as:
 Gaussian 16, Revision C.01,
 M. J. Frisch, G. W. Trucks, H. B. Schlegel, G. E. Scuseria, 
 M. A. Robb, J. R. Cheeseman, G. Scalmani, V. Barone, 
 G. A. Petersson, H. Nakatsuji, X. Li, M. Caricato, A. V. Marenich, 
 J. Bloino, B. G. Janesko, R. Gomperts, B. Mennucci, H. P. Hratchian, 
 J. V. Ortiz, A. F. Izmaylov, J. L. Sonnenberg, D. Williams-Young, 
 F. Ding, F. Lipparini, F. Egidi, J. Goings, B. Peng, A. Petrone, 
 T. Henderson, D. Ranasinghe, V. G. Zakrzewski, J. Gao, N. Rega, 
 G. Zheng, W. Liang, M. Hada, M. Ehara, K. Toyota, R. Fukuda, 
 J. Hasegawa, M. Ishida, T. Nakajima, Y. Honda, O. Kitao, H. Nakai, 
 T. Vreven, K. Throssell, J. A. Montgomery, Jr., J. E. Peralta, 
 F. Ogliaro, M. J. Bearpark, J. J. Heyd, E. N. Brothers, K. N. Kudin, 
 V. N. Staroverov, T. A. Keith, R. Kobayashi, J. Normand, 
 K. Raghavachari, A. P. Rendell, J. C. Burant, S. S. Iyengar, 
 J. Tomasi, M. Cossi, J. M. Millam, M. Klene, C. Adamo, R. Cammi, 
 J. W. Ochterski, R. L. Martin, K. Morokuma, O. Farkas, 
 J. B. Foresman, and D. J. Fox, Gaussian, Inc., Wallingford CT, 2019.
 
 ******************************************
 Gaussian 16:  ES64L-G16RevC.01  3-Jul-2019
                12-Jul-2022 
 ******************************************
 %mem=8gb
 %nproc=4
 Will use up to    4 processors via shared memory.
 %chk=conf-34.chk
 ----------------------------------------------------------------------
 # B3LYP/6-31G* empiricaldispersion=gd3bj guess=read geom=check nosymm 
 integral(ultrafinegrid)
 ----------------------------------------------------------------------
 1/29=2,38=1,172=1/1;
 2/12=2,15=1,40=1/2;
 3/5=1,6=6,7=1,11=2,14=-4,25=1,30=1,74=-5,75=-5,116=-2,124=41/1,2,3;
 4/5=1/1;
 5/5=2,38=6/2;
 6/7=2,8=2,9=2,10=2,28=1/1;
 99/5=1,9=1/99;
 -----------------------------------------------------
 Candidate Structure: Conf:34 Charge calc in gas phase
 -----------------------------------------------------
 Structure from the checkpoint file:  "conf-34.chk"
 Charge =  1 Multiplicity = 1
 Redundant internal coordinates found in file.  (old form).
 N,0,-3.6268478341,0.3624747222,4.5692310262
 H,0,-2.8792043501,0.599962665,5.2266222576
 H,0,-4.494025987,0.2264694532,5.0950401102
 H,0,-3.3688944866,-0.5329862812,4.0371959505
 C,0,-3.7499486382,1.3406767486,3.4349583817
 H,0,-3.004179678,2.128750544,3.5504521251
 H,0,-4.7522836827,1.7711330975,3.4183076847
 C,0,-3.4265689681,0.4914408597,2.1859119375
 O,0,-3.1557270073,-0.6997397925,2.3725773231
 N,0,-3.4492927327,1.1080576536,1.0015604324
 H,0,-3.5212779397,2.1197524847,1.0227184605
 C,0,-2.5972873349,0.5854657367,-0.0779283943
 H,0,-2.9488163711,-0.4172957354,-0.3283649705
 C,0,-1.158690317,0.5212735889,0.4939040781
 C,0,-2.7126250307,1.5293600814,-1.2878089947
 H,0,-3.7793216118,1.6254100725,-1.5309340227
 H,0,-2.3613134078,2.5231905983,-0.974526319
 O,0,-0.8401319618,1.2245268919,1.4540774614
 C,0,-1.9493282264,1.1102210726,-2.5582154499
 H,0,-0.8810473129,1.038373786,-2.3236365917
 C,0,-2.4116266305,-0.2493094363,-3.0977145083
 H,0,-3.4772847323,-0.2245570825,-3.3575505839
 H,0,-1.8482830643,-0.5108047719,-3.9979108044
 H,0,-2.2652453631,-1.0691908195,-2.3843109149
 C,0,-2.1172871898,2.1969803026,-3.6277271255
 H,0,-3.1701680742,2.3089554146,-3.9146795797
 H,0,-1.7587583621,3.1699328758,-3.2731875538
 H,0,-1.5506620611,1.943238591,-4.5283977719
 N,0,-0.3414149173,-0.3445155946,-0.1285133778
 H,0,-0.6270043578,-0.7807709774,-1.0012922542
 C,0,1.0985968119,-0.3730887126,0.0736078909
 H,0,1.3931458335,0.5807777349,0.522479162
 C,0,1.7068453803,-0.5117170438,-1.3305659325
 C,0,1.5497206019,-1.5287102461,1.0063372985
 H,0,2.6432417055,-1.4506589907,1.085397835
 O,0,1.0154005273,-0.8839785681,-2.2809925827
 C,0,0.9536803536,-1.3537086658,2.4075589781
 H,0,-0.1380902077,-1.4420566786,2.3759491612
 H,0,1.3383240432,-2.1282318654,3.0795691913
 H,0,1.1988627674,-0.3734429162,2.8286048597
 C,0,1.2042648724,-2.9026239777,0.4215245789
 H,0,0.1193843861,-3.0166737772,0.315616249
 H,0,1.5596944232,-3.6970932646,1.0850534584
 H,0,1.656548587,-3.0582235449,-0.5629078408
 N,0,3.0176612208,-0.2121177121,-1.4288559216
 H,0,3.5693729504,-0.0448894721,-0.5947183121
 C,0,3.7829181347,-0.4366540929,-2.6457924582
 H,0,3.2846731143,-1.2233362054,-3.220704911
 C,0,5.1600751755,-0.9164614257,-2.2159080739
 C,0,3.9033421125,0.8291657221,-3.5248673229
 H,0,4.4714775081,1.5893724953,-2.9720045773
 H,0,4.4958695707,0.5667596919,-4.4085041518
 O,0,5.5733833134,-0.8646234368,-1.0761962049
 C,0,2.5467214907,1.3987994753,-3.9460019835
 H,0,1.9816472304,1.6852298566,-3.049811395
 H,0,1.9567868251,0.6151488185,-4.4370269913
 C,0,2.6703596757,2.6143093149,-4.8687699435
 H,0,3.2846915169,3.3887376739,-4.3857899624
 H,0,3.1974928185,2.3315063571,-5.7913099688
 C,0,1.3012253598,3.211284449,-5.2290706702
 H,0,0.684497036,2.4374025514,-5.7055227575
 H,0,0.7779025165,3.4907380006,-4.3043530618
 N,0,1.3060794124,4.3790275197,-6.1084314456
 H,0,1.8782233368,5.1169132062,-5.6993318016
 H,0,1.748919703,4.141364633,-6.9951328962
 O,0,5.8798560927,-1.3677424661,-3.255441782
 H,0,6.7581658711,-1.6202145167,-2.9112608056
 Recover connectivity data from disk.
                           ----------------------------
                           !    Current Parameters    !
                           ! (Angstroms and Degrees)  !
 --------------------------                            --------------------------
 ! Name  Definition              Value                                          !
 --------------------------------------------------------------------------------
 ! R1    R(1,2)                  1.0235                                         !
 ! R2    R(1,3)                  1.0232                                         !
 ! R3    R(1,4)                  1.0731                                         !
 ! R4    R(1,5)                  1.5029                                         !
 ! R5    R(5,6)                  1.0911                                         !
 ! R6    R(5,7)                  1.091                                          !
 ! R7    R(5,8)                  1.5446                                         !
 ! R8    R(8,9)                  1.2358                                         !
 ! R9    R(8,10)                 1.3354                                         !
 ! R10   R(10,11)                1.0145                                         !
 ! R11   R(10,12)                1.4712                                         !
 ! R12   R(12,13)                1.0917                                         !
 ! R13   R(12,14)                1.5494                                         !
 ! R14   R(12,15)                1.5388                                         !
 ! R15   R(14,18)                1.2321                                         !
 ! R16   R(14,29)                1.3435                                         !
 ! R17   R(15,16)                1.0983                                         !
 ! R18   R(15,17)                1.0997                                         !
 ! R19   R(15,19)                1.5402                                         !
 ! R20   R(19,20)                1.0961                                         !
 ! R21   R(19,21)                1.534                                          !
 ! R22   R(19,25)                1.534                                          !
 ! R23   R(21,22)                1.0972                                         !
 ! R24   R(21,23)                1.0937                                         !
 ! R25   R(21,24)                1.0966                                         !
 ! R26   R(25,26)                1.097                                          !
 ! R27   R(25,27)                1.0958                                         !
 ! R28   R(25,28)                1.0939                                         !
 ! R29   R(29,30)                1.0167                                         !
 ! R30   R(29,31)                1.4544                                         !
 ! R31   R(31,32)                1.0946                                         !
 ! R32   R(31,33)                1.5365                                         !
 ! R33   R(31,34)                1.5521                                         !
 ! R34   R(33,36)                1.2329                                         !
 ! R35   R(33,45)                1.3482                                         !
 ! R36   R(34,35)                1.0992                                         !
 ! R37   R(34,37)                1.5327                                         !
 ! R38   R(34,41)                1.5326                                         !
 ! R39   R(37,38)                1.0958                                         !
 ! R40   R(37,39)                1.0952                                         !
 ! R41   R(37,40)                1.0947                                         !
 ! R42   R(41,42)                1.096                                          !
 ! R43   R(41,43)                1.0944                                         !
 ! R44   R(41,44)                1.0945                                         !
 ! R45   R(45,46)                1.014                                          !
 ! R46   R(45,47)                1.455                                          !
 ! R47   R(47,48)                1.0944                                         !
 ! R48   R(47,49)                1.5204                                         !
 ! R49   R(47,50)                1.5458                                         !
 ! R50   R(49,53)                1.2134                                         !
 ! R51   R(49,66)                1.3425                                         !
 ! R52   R(50,51)                1.0983                                         !
 ! R53   R(50,52)                1.0958                                         !
 ! R54   R(50,54)                1.5304                                         !
 ! R55   R(54,55)                1.0975                                         !
 ! R56   R(54,56)                1.0969                                         !
 ! R57   R(54,57)                1.5311                                         !
 ! R58   R(57,58)                1.1002                                         !
 ! R59   R(57,59)                1.0995                                         !
 ! R60   R(57,60)                1.5365                                         !
 ! R61   R(60,61)                1.0983                                         !
 ! R62   R(60,62)                1.0987                                         !
 ! R63   R(60,63)                1.4618                                         !
 ! R64   R(63,64)                1.0194                                         !
 ! R65   R(63,65)                1.0192                                         !
 ! R66   R(66,67)                0.9765                                         !
 ! A1    A(2,1,3)              108.6546                                         !
 ! A2    A(2,1,4)              109.6634                                         !
 ! A3    A(2,1,5)              113.1771                                         !
 ! A4    A(3,1,4)              110.3405                                         !
 ! A5    A(3,1,5)              113.8874                                         !
 ! A6    A(4,1,5)              100.8738                                         !
 ! A7    A(1,5,6)              109.5261                                         !
 ! A8    A(1,5,7)              110.0956                                         !
 ! A9    A(1,5,8)              103.6095                                         !
 ! A10   A(6,5,7)              110.1567                                         !
 ! A11   A(6,5,8)              109.8521                                         !
 ! A12   A(7,5,8)              113.3865                                         !
 ! A13   A(5,8,9)              116.9814                                         !
 ! A14   A(5,8,10)             117.3693                                         !
 ! A15   A(9,8,10)             125.6452                                         !
 ! A16   A(8,10,11)            116.3067                                         !
 ! A17   A(8,10,12)            118.4814                                         !
 ! A18   A(11,10,12)           114.2457                                         !
 ! A19   A(10,12,13)           107.9464                                         !
 ! A20   A(10,12,14)           106.3574                                         !
 ! A21   A(10,12,15)           108.3978                                         !
 ! A22   A(13,12,14)           110.2171                                         !
 ! A23   A(13,12,15)           111.0333                                         !
 ! A24   A(14,12,15)           112.6543                                         !
 ! A25   A(12,14,18)           120.2675                                         !
 ! A26   A(12,14,29)           114.8685                                         !
 ! A27   A(18,14,29)           124.8622                                         !
 ! A28   A(12,15,16)           107.487                                          !
 ! A29   A(12,15,17)           107.8432                                         !
 ! A30   A(12,15,19)           116.3874                                         !
 ! A31   A(16,15,17)           107.1166                                         !
 ! A32   A(16,15,19)           108.8168                                         !
 ! A33   A(17,15,19)           108.8204                                         !
 ! A34   A(15,19,20)           108.9244                                         !
 ! A35   A(15,19,21)           112.4527                                         !
 ! A36   A(15,19,25)           109.1489                                         !
 ! A37   A(20,19,21)           108.1134                                         !
 ! A38   A(20,19,25)           107.5997                                         !
 ! A39   A(21,19,25)           110.4678                                         !
 ! A40   A(19,21,22)           110.8557                                         !
 ! A41   A(19,21,23)           110.2525                                         !
 ! A42   A(19,21,24)           113.1783                                         !
 ! A43   A(22,21,23)           108.1058                                         !
 ! A44   A(22,21,24)           107.4928                                         !
 ! A45   A(23,21,24)           106.7352                                         !
 ! A46   A(19,25,26)           111.0864                                         !
 ! A47   A(19,25,27)           111.5685                                         !
 ! A48   A(19,25,28)           110.6709                                         !
 ! A49   A(26,25,27)           107.9394                                         !
 ! A50   A(26,25,28)           107.7852                                         !
 ! A51   A(27,25,28)           107.6291                                         !
 ! A52   A(14,29,30)           120.2228                                         !
 ! A53   A(14,29,31)           123.407                                          !
 ! A54   A(30,29,31)           112.8921                                         !
 ! A55   A(29,31,32)           107.8366                                         !
 ! A56   A(29,31,33)           105.4688                                         !
 ! A57   A(29,31,34)           112.7011                                         !
 ! A58   A(32,31,33)           110.2955                                         !
 ! A59   A(32,31,34)           108.9164                                         !
 ! A60   A(33,31,34)           111.528                                          !
 ! A61   A(31,33,36)           120.6458                                         !
 ! A62   A(31,33,45)           115.5602                                         !
 ! A63   A(36,33,45)           123.7921                                         !
 ! A64   A(31,34,35)           106.2317                                         !
 ! A65   A(31,34,37)           110.5697                                         !
 ! A66   A(31,34,41)           111.878                                          !
 ! A67   A(35,34,37)           108.241                                          !
 ! A68   A(35,34,41)           108.3818                                         !
 ! A69   A(37,34,41)           111.3171                                         !
 ! A70   A(34,37,38)           110.6015                                         !
 ! A71   A(34,37,39)           110.0981                                         !
 ! A72   A(34,37,40)           111.5165                                         !
 ! A73   A(38,37,39)           108.0957                                         !
 ! A74   A(38,37,40)           107.8453                                         !
 ! A75   A(39,37,40)           108.5794                                         !
 ! A76   A(34,41,42)           110.6875                                         !
 ! A77   A(34,41,43)           110.2551                                         !
 ! A78   A(34,41,44)           112.1794                                         !
 ! A79   A(42,41,43)           107.7291                                         !
 ! A80   A(42,41,44)           107.8992                                         !
 ! A81   A(43,41,44)           107.9334                                         !
 ! A82   A(33,45,46)           120.3775                                         !
 ! A83   A(33,45,47)           122.5512                                         !
 ! A84   A(46,45,47)           115.2981                                         !
 ! A85   A(45,47,48)           108.1114                                         !
 ! A86   A(45,47,49)           106.7755                                         !
 ! A87   A(45,47,50)           112.9696                                         !
 ! A88   A(48,47,49)           109.5162                                         !
 ! A89   A(48,47,50)           108.9872                                         !
 ! A90   A(49,47,50)           110.4046                                         !
 ! A91   A(47,49,53)           124.0975                                         !
 ! A92   A(47,49,66)           111.8871                                         !
 ! A93   A(53,49,66)           123.9873                                         !
 ! A94   A(47,50,51)           108.7123                                         !
 ! A95   A(47,50,52)           107.7347                                         !
 ! A96   A(47,50,54)           113.0922                                         !
 ! A97   A(51,50,52)           106.9747                                         !
 ! A98   A(51,50,54)           109.8411                                         !
 ! A99   A(52,50,54)           110.2764                                         !
 ! A100  A(50,54,55)           109.1982                                         !
 ! A101  A(50,54,56)           109.5117                                         !
 ! A102  A(50,54,57)           112.9387                                         !
 ! A103  A(55,54,56)           105.9665                                         !
 ! A104  A(55,54,57)           109.0579                                         !
 ! A105  A(56,54,57)           109.9257                                         !
 ! A106  A(54,57,58)           109.8362                                         !
 ! A107  A(54,57,59)           109.8891                                         !
 ! A108  A(54,57,60)           112.1991                                         !
 ! A109  A(58,57,59)           106.3607                                         !
 ! A110  A(58,57,60)           109.0884                                         !
 ! A111  A(59,57,60)           109.2925                                         !
 ! A112  A(57,60,61)           109.1677                                         !
 ! A113  A(57,60,62)           109.0205                                         !
 ! A114  A(57,60,63)           116.6462                                         !
 ! A115  A(61,60,62)           106.0741                                         !
 ! A116  A(61,60,63)           107.6845                                         !
 ! A117  A(62,60,63)           107.7404                                         !
 ! A118  A(60,63,64)           109.7963                                         !
 ! A119  A(60,63,65)           109.7859                                         !
 ! A120  A(64,63,65)           105.9059                                         !
 ! A121  A(49,66,67)           107.2301                                         !
 ! D1    D(2,1,5,6)             -0.4693                                         !
 ! D2    D(2,1,5,7)           -121.7388                                         !
 ! D3    D(2,1,5,8)            116.6974                                         !
 ! D4    D(3,1,5,6)            124.2913                                         !
 ! D5    D(3,1,5,7)              3.0218                                         !
 ! D6    D(3,1,5,8)           -118.542                                          !
 ! D7    D(4,1,5,6)           -117.5323                                         !
 ! D8    D(4,1,5,7)            121.1983                                         !
 ! D9    D(4,1,5,8)             -0.3656                                         !
 ! D10   D(1,5,8,9)             -0.2598                                         !
 ! D11   D(1,5,8,10)          -179.561                                          !
 ! D12   D(6,5,8,9)            116.6785                                         !
 ! D13   D(6,5,8,10)           -62.6228                                         !
 ! D14   D(7,5,8,9)           -119.5907                                         !
 ! D15   D(7,5,8,10)            61.108                                          !
 ! D16   D(5,8,10,11)           10.1003                                         !
 ! D17   D(5,8,10,12)          152.2285                                         !
 ! D18   D(9,8,10,11)         -169.1334                                         !
 ! D19   D(9,8,10,12)          -27.0052                                         !
 ! D20   D(8,10,12,13)          64.3382                                         !
 ! D21   D(8,10,12,14)         -53.9326                                         !
 ! D22   D(8,10,12,15)        -175.3095                                         !
 ! D23   D(11,10,12,13)       -152.7868                                         !
 ! D24   D(11,10,12,14)         88.9424                                         !
 ! D25   D(11,10,12,15)        -32.4345                                         !
 ! D26   D(10,12,14,18)        -22.2875                                         !
 ! D27   D(10,12,14,29)        157.2352                                         !
 ! D28   D(13,12,14,18)       -139.0503                                         !
 ! D29   D(13,12,14,29)         40.4724                                         !
 ! D30   D(15,12,14,18)         96.328                                          !
 ! D31   D(15,12,14,29)        -84.1494                                         !
 ! D32   D(10,12,15,16)        -54.4684                                         !
 ! D33   D(10,12,15,17)         60.7192                                         !
 ! D34   D(10,12,15,19)       -176.7316                                         !
 ! D35   D(13,12,15,16)         63.9433                                         !
 ! D36   D(13,12,15,17)        179.1309                                         !
 ! D37   D(13,12,15,19)        -58.3199                                         !
 ! D38   D(14,12,15,16)       -171.8836                                         !
 ! D39   D(14,12,15,17)        -56.696                                          !
 ! D40   D(14,12,15,19)         65.8532                                         !
 ! D41   D(12,14,29,30)         10.2059                                         !
 ! D42   D(12,14,29,31)        167.651                                          !
 ! D43   D(18,14,29,30)       -170.2965                                         !
 ! D44   D(18,14,29,31)        -12.8514                                         !
 ! D45   D(12,15,19,20)        -59.8465                                         !
 ! D46   D(12,15,19,21)         59.9754                                         !
 ! D47   D(12,15,19,25)       -177.067                                          !
 ! D48   D(16,15,19,20)        178.5904                                         !
 ! D49   D(16,15,19,21)        -61.5877                                         !
 ! D50   D(16,15,19,25)         61.3699                                         !
 ! D51   D(17,15,19,20)         62.1904                                         !
 ! D52   D(17,15,19,21)       -177.9877                                         !
 ! D53   D(17,15,19,25)        -55.0301                                         !
 ! D54   D(15,19,21,22)         60.283                                          !
 ! D55   D(15,19,21,23)        179.9558                                         !
 ! D56   D(15,19,21,24)        -60.5821                                         !
 ! D57   D(20,19,21,22)       -179.4256                                         !
 ! D58   D(20,19,21,23)        -59.7529                                         !
 ! D59   D(20,19,21,24)         59.7092                                         !
 ! D60   D(25,19,21,22)        -61.9314                                         !
 ! D61   D(25,19,21,23)         57.7414                                         !
 ! D62   D(25,19,21,24)        177.2035                                         !
 ! D63   D(15,19,25,26)        -62.596                                          !
 ! D64   D(15,19,25,27)         57.8944                                         !
 ! D65   D(15,19,25,28)        177.7095                                         !
 ! D66   D(20,19,25,26)        179.3487                                         !
 ! D67   D(20,19,25,27)        -60.1609                                         !
 ! D68   D(20,19,25,28)         59.6542                                         !
 ! D69   D(21,19,25,26)         61.5385                                         !
 ! D70   D(21,19,25,27)       -177.9711                                         !
 ! D71   D(21,19,25,28)        -58.1559                                         !
 ! D72   D(14,29,31,32)        -17.8208                                         !
 ! D73   D(14,29,31,33)       -135.6682                                         !
 ! D74   D(14,29,31,34)        102.4283                                         !
 ! D75   D(30,29,31,32)        141.0933                                         !
 ! D76   D(30,29,31,33)         23.2459                                         !
 ! D77   D(30,29,31,34)        -98.6576                                         !
 ! D78   D(29,31,33,36)        -17.1174                                         !
 ! D79   D(29,31,33,45)        163.366                                          !
 ! D80   D(32,31,33,36)       -133.2978                                         !
 ! D81   D(32,31,33,45)         47.1857                                         !
 ! D82   D(34,31,33,36)        105.5407                                         !
 ! D83   D(34,31,33,45)        -73.9759                                         !
 ! D84   D(29,31,34,35)       -179.9482                                         !
 ! D85   D(29,31,34,37)        -62.7247                                         !
 ! D86   D(29,31,34,41)         61.9635                                         !
 ! D87   D(32,31,34,35)        -60.3219                                         !
 ! D88   D(32,31,34,37)         56.9016                                         !
 ! D89   D(32,31,34,41)       -178.4102                                         !
 ! D90   D(33,31,34,35)         61.6394                                         !
 ! D91   D(33,31,34,37)        178.8629                                         !
 ! D92   D(33,31,34,41)        -56.4489                                         !
 ! D93   D(31,33,45,46)          8.6333                                         !
 ! D94   D(31,33,45,47)        172.7479                                         !
 ! D95   D(36,33,45,46)       -170.8663                                         !
 ! D96   D(36,33,45,47)         -6.7516                                         !
 ! D97   D(31,34,37,38)         64.9891                                         !
 ! D98   D(31,34,37,39)       -175.6119                                         !
 ! D99   D(31,34,37,40)        -55.0179                                         !
 ! D100  D(35,34,37,38)       -179.0323                                         !
 ! D101  D(35,34,37,39)        -59.6333                                         !
 ! D102  D(35,34,37,40)         60.9607                                         !
 ! D103  D(41,34,37,38)        -60.018                                          !
 ! D104  D(41,34,37,39)         59.381                                          !
 ! D105  D(41,34,37,40)        179.975                                          !
 ! D106  D(31,34,41,42)        -62.5685                                         !
 ! D107  D(31,34,41,43)        178.3331                                         !
 ! D108  D(31,34,41,44)         58.0103                                         !
 ! D109  D(35,34,41,42)       -179.3667                                         !
 ! D110  D(35,34,41,43)         61.535                                          !
 ! D111  D(35,34,41,44)        -58.7879                                         !
 ! D112  D(37,34,41,42)         61.7032                                         !
 ! D113  D(37,34,41,43)        -57.3951                                         !
 ! D114  D(37,34,41,44)       -177.718                                          !
 ! D115  D(33,45,47,48)        -24.0922                                         !
 ! D116  D(33,45,47,49)       -141.8482                                         !
 ! D117  D(33,45,47,50)         96.5999                                         !
 ! D118  D(46,45,47,48)        140.7674                                         !
 ! D119  D(46,45,47,49)         23.0115                                         !
 ! D120  D(46,45,47,50)        -98.5405                                         !
 ! D121  D(45,47,49,53)        -12.24                                           !
 ! D122  D(45,47,49,66)        169.623                                          !
 ! D123  D(48,47,49,53)       -129.0684                                         !
 ! D124  D(48,47,49,66)         52.7947                                         !
 ! D125  D(50,47,49,53)        110.9221                                         !
 ! D126  D(50,47,49,66)        -67.2149                                         !
 ! D127  D(45,47,50,51)         64.0966                                         !
 ! D128  D(45,47,50,52)        179.6878                                         !
 ! D129  D(45,47,50,54)        -58.1789                                         !
 ! D130  D(48,47,50,51)       -175.7114                                         !
 ! D131  D(48,47,50,52)        -60.1202                                         !
 ! D132  D(48,47,50,54)         62.0131                                         !
 ! D133  D(49,47,50,51)        -55.3841                                         !
 ! D134  D(49,47,50,52)         60.2072                                         !
 ! D135  D(49,47,50,54)       -177.6595                                         !
 ! D136  D(47,49,66,67)        177.6034                                         !
 ! D137  D(53,49,66,67)         -0.536                                          !
 ! D138  D(47,50,54,55)         61.1073                                         !
 ! D139  D(47,50,54,56)        -54.5131                                         !
 ! D140  D(47,50,54,57)       -177.3723                                         !
 ! D141  D(51,50,54,55)        -60.5354                                         !
 ! D142  D(51,50,54,56)       -176.1557                                         !
 ! D143  D(51,50,54,57)         60.9851                                         !
 ! D144  D(52,50,54,55)       -178.193                                          !
 ! D145  D(52,50,54,56)         66.1867                                         !
 ! D146  D(52,50,54,57)        -56.6725                                         !
 ! D147  D(50,54,57,58)        -55.8716                                         !
 ! D148  D(50,54,57,59)         60.8049                                         !
 ! D149  D(50,54,57,60)       -177.3847                                         !
 ! D150  D(55,54,57,58)         65.7281                                         !
 ! D151  D(55,54,57,59)       -177.5953                                         !
 ! D152  D(55,54,57,60)        -55.785                                          !
 ! D153  D(56,54,57,58)       -178.5001                                         !
 ! D154  D(56,54,57,59)        -61.8235                                         !
 ! D155  D(56,54,57,60)         59.9868                                         !
 ! D156  D(54,57,60,61)        -57.6987                                         !
 ! D157  D(54,57,60,62)         57.7618                                         !
 ! D158  D(54,57,60,63)       -179.991                                          !
 ! D159  D(58,57,60,61)       -179.6392                                         !
 ! D160  D(58,57,60,62)        -64.1787                                         !
 ! D161  D(58,57,60,63)         58.0685                                         !
 ! D162  D(59,57,60,61)         64.4517                                         !
 ! D163  D(59,57,60,62)        179.9122                                         !
 ! D164  D(59,57,60,63)        -57.8406                                         !
 ! D165  D(57,60,63,64)        -56.4409                                         !
 ! D166  D(57,60,63,65)         59.6014                                         !
 ! D167  D(61,60,63,64)       -179.5036                                         !
 ! D168  D(61,60,63,65)        -63.4613                                         !
 ! D169  D(62,60,63,64)         66.472                                          !
 ! D170  D(62,60,63,65)       -177.4857                                         !
 --------------------------------------------------------------------------------
 Symmetry turned off by external request.
 Stoichiometry    C19H38N5O5(1+)
 Framework group  C1[X(C19H38N5O5)]
 Deg. of freedom   195
 Full point group                 C1      NOp   1
                          Input orientation:                          
 ---------------------------------------------------------------------
 Center     Atomic      Atomic             Coordinates (Angstroms)
 Number     Number       Type             X           Y           Z
 ---------------------------------------------------------------------
      1          7           0       -3.626848    0.362475    4.569231
      2          1           0       -2.879204    0.599963    5.226622
      3          1           0       -4.494026    0.226469    5.095040
      4          1           0       -3.368894   -0.532986    4.037196
      5          6           0       -3.749949    1.340677    3.434958
      6          1           0       -3.004180    2.128751    3.550452
      7          1           0       -4.752284    1.771133    3.418308
      8          6           0       -3.426569    0.491441    2.185912
      9          8           0       -3.155727   -0.699740    2.372577
     10          7           0       -3.449293    1.108058    1.001560
     11          1           0       -3.521278    2.119752    1.022718
     12          6           0       -2.597287    0.585466   -0.077928
     13          1           0       -2.948816   -0.417296   -0.328365
     14          6           0       -1.158690    0.521274    0.493904
     15          6           0       -2.712625    1.529360   -1.287809
     16          1           0       -3.779322    1.625410   -1.530934
     17          1           0       -2.361313    2.523191   -0.974526
     18          8           0       -0.840132    1.224527    1.454077
     19          6           0       -1.949328    1.110221   -2.558215
     20          1           0       -0.881047    1.038374   -2.323637
     21          6           0       -2.411627   -0.249309   -3.097715
     22          1           0       -3.477285   -0.224557   -3.357551
     23          1           0       -1.848283   -0.510805   -3.997911
     24          1           0       -2.265245   -1.069191   -2.384311
     25          6           0       -2.117287    2.196980   -3.627727
     26          1           0       -3.170168    2.308955   -3.914680
     27          1           0       -1.758758    3.169933   -3.273188
     28          1           0       -1.550662    1.943239   -4.528398
     29          7           0       -0.341415   -0.344516   -0.128513
     30          1           0       -0.627004   -0.780771   -1.001292
     31          6           0        1.098597   -0.373089    0.073608
     32          1           0        1.393146    0.580778    0.522479
     33          6           0        1.706845   -0.511717   -1.330566
     34          6           0        1.549721   -1.528710    1.006337
     35          1           0        2.643242   -1.450659    1.085398
     36          8           0        1.015401   -0.883979   -2.280993
     37          6           0        0.953680   -1.353709    2.407559
     38          1           0       -0.138090   -1.442057    2.375949
     39          1           0        1.338324   -2.128232    3.079569
     40          1           0        1.198863   -0.373443    2.828605
     41          6           0        1.204265   -2.902624    0.421525
     42          1           0        0.119384   -3.016674    0.315616
     43          1           0        1.559694   -3.697093    1.085053
     44          1           0        1.656549   -3.058224   -0.562908
     45          7           0        3.017661   -0.212118   -1.428856
     46          1           0        3.569373   -0.044889   -0.594718
     47          6           0        3.782918   -0.436654   -2.645792
     48          1           0        3.284673   -1.223336   -3.220705
     49          6           0        5.160075   -0.916461   -2.215908
     50          6           0        3.903342    0.829166   -3.524867
     51          1           0        4.471478    1.589372   -2.972005
     52          1           0        4.495870    0.566760   -4.408504
     53          8           0        5.573383   -0.864623   -1.076196
     54          6           0        2.546721    1.398799   -3.946002
     55          1           0        1.981647    1.685230   -3.049811
     56          1           0        1.956787    0.615149   -4.437027
     57          6           0        2.670360    2.614309   -4.868770
     58          1           0        3.284692    3.388738   -4.385790
     59          1           0        3.197493    2.331506   -5.791310
     60          6           0        1.301225    3.211284   -5.229071
     61          1           0        0.684497    2.437403   -5.705523
     62          1           0        0.777903    3.490738   -4.304353
     63          7           0        1.306079    4.379028   -6.108431
     64          1           0        1.878223    5.116913   -5.699332
     65          1           0        1.748920    4.141365   -6.995133
     66          8           0        5.879856   -1.367742   -3.255442
     67          1           0        6.758166   -1.620215   -2.911261
 ---------------------------------------------------------------------
 Rotational constants (GHZ):           0.1926317           0.0919434           0.0686102
 Standard basis: 6-31G(d) (6D, 7F)
   511 basis functions,   964 primitive gaussians,   511 cartesian basis functions
   113 alpha electrons      113 beta electrons
       nuclear repulsion energy      3094.4742623135 Hartrees.
 NAtoms=   67 NActive=   67 NUniq=   67 SFac= 1.00D+00 NAtFMM=   60 NAOKFM=T Big=T
 Integral buffers will be    131072 words long.
 Raffenetti 2 integral format.
 Two-electron integral symmetry is turned off.
 Nuclear repulsion after empirical dispersion term =     3094.3439350103 Hartrees.
 One-electron integrals computed using PRISM.
 NBasis=   511 RedAO= T EigKep=  1.79D-03  NBF=   511
 NBsUse=   511 1.00D-06 EigRej= -1.00D+00 NBFU=   511
 Initial guess from the checkpoint file:  "conf-34.chk"
 B after Tr=     0.000000    0.000000    0.000000
         Rot=    1.000000    0.000000    0.000000    0.000000 Ang=   0.00 deg.
 Requested convergence on RMS density matrix=1.00D-08 within 128 cycles.
 Requested convergence on MAX density matrix=1.00D-06.
 Requested convergence on             energy=1.00D-06.
 No special actions if energy rises.
 SCF Done:  E(RB3LYP) =  -1396.76359093     A.U. after    1 cycles
            NFock=  1  Conv=0.63D-08     -V/T= 2.0094

 **********************************************************************

            Population analysis using the SCF Density.

 **********************************************************************

 Alpha  occ. eigenvalues --  -19.28826 -19.28016 -19.22549 -19.21762 -19.20761
 Alpha  occ. eigenvalues --  -14.61981 -14.50563 -14.45494 -14.44858 -14.36458
 Alpha  occ. eigenvalues --  -10.45293 -10.42192 -10.40476 -10.38867 -10.37717
 Alpha  occ. eigenvalues --  -10.34849 -10.32071 -10.31936 -10.29302 -10.28104
 Alpha  occ. eigenvalues --  -10.27686 -10.26438 -10.26301 -10.25499 -10.25407
 Alpha  occ. eigenvalues --  -10.25054 -10.24878 -10.24871 -10.24110  -1.21325
 Alpha  occ. eigenvalues --   -1.19099  -1.15705  -1.13819  -1.12627  -1.10189
 Alpha  occ. eigenvalues --   -1.07460  -1.02444  -1.01568  -0.93351  -0.92638
 Alpha  occ. eigenvalues --   -0.90164  -0.89236  -0.87399  -0.84790  -0.83173
 Alpha  occ. eigenvalues --   -0.79971  -0.76595  -0.76327  -0.75966  -0.75917
 Alpha  occ. eigenvalues --   -0.75787  -0.74910  -0.73471  -0.70702  -0.69151
 Alpha  occ. eigenvalues --   -0.68423  -0.67322  -0.66803  -0.65748  -0.65018
 Alpha  occ. eigenvalues --   -0.64741  -0.64035  -0.62179  -0.61999  -0.60075
 Alpha  occ. eigenvalues --   -0.59179  -0.57669  -0.57422  -0.55921  -0.55692
 Alpha  occ. eigenvalues --   -0.55501  -0.55147  -0.55022  -0.54014  -0.53687
 Alpha  occ. eigenvalues --   -0.53143  -0.52183  -0.51902  -0.51723  -0.50858
 Alpha  occ. eigenvalues --   -0.50489  -0.49750  -0.49430  -0.49127  -0.47924
 Alpha  occ. eigenvalues --   -0.47578  -0.46819  -0.46526  -0.46366  -0.46233
 Alpha  occ. eigenvalues --   -0.45673  -0.45140  -0.44818  -0.44107  -0.43809
 Alpha  occ. eigenvalues --   -0.42681  -0.42453  -0.41832  -0.41614  -0.41573
 Alpha  occ. eigenvalues --   -0.41428  -0.41039  -0.40971  -0.40754  -0.40412
 Alpha  occ. eigenvalues --   -0.39926  -0.39038  -0.36377  -0.35959  -0.35523
 Alpha  occ. eigenvalues --   -0.34420  -0.33983  -0.28508
 Alpha virt. eigenvalues --   -0.14124  -0.13066  -0.08166  -0.07596  -0.07350
 Alpha virt. eigenvalues --   -0.06711  -0.06302  -0.02772  -0.01788  -0.00943
 Alpha virt. eigenvalues --   -0.00793  -0.00410   0.00234   0.01069   0.02578
 Alpha virt. eigenvalues --    0.02756   0.03120   0.03585   0.03793   0.04107
 Alpha virt. eigenvalues --    0.04631   0.05393   0.05545   0.06220   0.06592
 Alpha virt. eigenvalues --    0.07215   0.07477   0.07590   0.07771   0.08341
 Alpha virt. eigenvalues --    0.08385   0.09044   0.09755   0.10386   0.10980
 Alpha virt. eigenvalues --    0.11111   0.11381   0.11641   0.11982   0.12139
 Alpha virt. eigenvalues --    0.12734   0.13151   0.13317   0.13690   0.13994
 Alpha virt. eigenvalues --    0.14283   0.14376   0.15128   0.15491   0.15847
 Alpha virt. eigenvalues --    0.16090   0.16418   0.16974   0.17425   0.17585
 Alpha virt. eigenvalues --    0.18378   0.18847   0.19310   0.19877   0.20338
 Alpha virt. eigenvalues --    0.21920   0.23184   0.25367   0.26379   0.26843
 Alpha virt. eigenvalues --    0.27613   0.27927   0.30861   0.32562   0.34338
 Alpha virt. eigenvalues --    0.34952   0.35534   0.37975   0.40915   0.41450
 Alpha virt. eigenvalues --    0.41890   0.42199   0.42832   0.43371   0.43789
 Alpha virt. eigenvalues --    0.44968   0.45161   0.45670   0.45690   0.46658
 Alpha virt. eigenvalues --    0.47246   0.47467   0.48393   0.49022   0.49323
 Alpha virt. eigenvalues --    0.50530   0.50580   0.51428   0.51887   0.52568
 Alpha virt. eigenvalues --    0.53054   0.53120   0.54076   0.55202   0.55943
 Alpha virt. eigenvalues --    0.56439   0.56741   0.57028   0.57790   0.58569
 Alpha virt. eigenvalues --    0.58698   0.59731   0.60159   0.60862   0.61435
 Alpha virt. eigenvalues --    0.61920   0.62429   0.62862   0.62921   0.63205
 Alpha virt. eigenvalues --    0.63661   0.64076   0.64302   0.65090   0.65582
 Alpha virt. eigenvalues --    0.66913   0.67254   0.68026   0.68566   0.68900
 Alpha virt. eigenvalues --    0.69736   0.69854   0.70739   0.72098   0.72650
 Alpha virt. eigenvalues --    0.72910   0.73319   0.73512   0.74448   0.75116
 Alpha virt. eigenvalues --    0.75653   0.76029   0.76493   0.76746   0.77184
 Alpha virt. eigenvalues --    0.77631   0.78037   0.78549   0.78808   0.79540
 Alpha virt. eigenvalues --    0.79875   0.80672   0.81529   0.81652   0.81875
 Alpha virt. eigenvalues --    0.82377   0.82539   0.83351   0.83415   0.83849
 Alpha virt. eigenvalues --    0.84782   0.85093   0.85118   0.85896   0.86082
 Alpha virt. eigenvalues --    0.86371   0.86874   0.87112   0.87587   0.87754
 Alpha virt. eigenvalues --    0.88042   0.88826   0.88885   0.89070   0.89900
 Alpha virt. eigenvalues --    0.90729   0.91298   0.91424   0.91972   0.93140
 Alpha virt. eigenvalues --    0.93267   0.95037   0.95739   0.96068   0.97181
 Alpha virt. eigenvalues --    0.97537   0.98924   0.99806   1.00176   1.00659
 Alpha virt. eigenvalues --    1.01764   1.02762   1.03605   1.04061   1.05062
 Alpha virt. eigenvalues --    1.06999   1.07232   1.08432   1.09231   1.12306
 Alpha virt. eigenvalues --    1.13237   1.14381   1.15590   1.16617   1.18774
 Alpha virt. eigenvalues --    1.19055   1.21017   1.22208   1.23058   1.25764
 Alpha virt. eigenvalues --    1.27227   1.27843   1.30015   1.31122   1.31585
 Alpha virt. eigenvalues --    1.32430   1.33657   1.35183   1.36316   1.37249
 Alpha virt. eigenvalues --    1.37601   1.38057   1.39199   1.41002   1.41920
 Alpha virt. eigenvalues --    1.43485   1.45306   1.46031   1.46583   1.47517
 Alpha virt. eigenvalues --    1.50055   1.51248   1.51786   1.52622   1.53781
 Alpha virt. eigenvalues --    1.54601   1.56099   1.57374   1.58536   1.59673
 Alpha virt. eigenvalues --    1.60424   1.60634   1.61257   1.62885   1.63367
 Alpha virt. eigenvalues --    1.64678   1.65903   1.66469   1.67158   1.67928
 Alpha virt. eigenvalues --    1.69120   1.69940   1.70143   1.71436   1.71737
 Alpha virt. eigenvalues --    1.72223   1.72713   1.73114   1.74183   1.74549
 Alpha virt. eigenvalues --    1.75348   1.76919   1.77035   1.78253   1.79006
 Alpha virt. eigenvalues --    1.80381   1.81153   1.82077   1.82740   1.82941
 Alpha virt. eigenvalues --    1.84528   1.85042   1.85695   1.86209   1.86798
 Alpha virt. eigenvalues --    1.87739   1.87833   1.88810   1.90270   1.90769
 Alpha virt. eigenvalues --    1.91172   1.91928   1.92336   1.92954   1.93295
 Alpha virt. eigenvalues --    1.94307   1.94906   1.95774   1.96149   1.96523
 Alpha virt. eigenvalues --    1.97992   1.98898   2.00124   2.00342   2.01070
 Alpha virt. eigenvalues --    2.01613   2.02246   2.02856   2.03575   2.04379
 Alpha virt. eigenvalues --    2.05156   2.05648   2.07200   2.08045   2.09475
 Alpha virt. eigenvalues --    2.10422   2.12158   2.13267   2.14182   2.16026
 Alpha virt. eigenvalues --    2.16648   2.17489   2.18014   2.18947   2.19104
 Alpha virt. eigenvalues --    2.19857   2.21477   2.21902   2.23012   2.23638
 Alpha virt. eigenvalues --    2.25710   2.28374   2.29184   2.29833   2.30546
 Alpha virt. eigenvalues --    2.32409   2.32706   2.33013   2.33463   2.35138
 Alpha virt. eigenvalues --    2.36348   2.38354   2.38847   2.40252   2.40811
 Alpha virt. eigenvalues --    2.42911   2.43069   2.43386   2.44657   2.45249
 Alpha virt. eigenvalues --    2.46373   2.46997   2.50699   2.51960   2.52571
 Alpha virt. eigenvalues --    2.55158   2.56223   2.57461   2.58841   2.59716
 Alpha virt. eigenvalues --    2.61249   2.62477   2.62795   2.65249   2.65653
 Alpha virt. eigenvalues --    2.66430   2.69925   2.70406   2.74571   2.75182
 Alpha virt. eigenvalues --    2.76743   2.77680   2.79512   2.80129   2.83731
 Alpha virt. eigenvalues --    2.85794   2.87857   2.90109   2.91344   2.95833
 Alpha virt. eigenvalues --    3.01611   3.02531   3.08320   3.12629   3.61234
 Alpha virt. eigenvalues --    3.73362   3.78773   3.89320   3.93068   3.96131
 Alpha virt. eigenvalues --    3.99545   4.05311   4.06494   4.07900   4.10773
 Alpha virt. eigenvalues --    4.12647   4.14616   4.19020   4.21469   4.22879
 Alpha virt. eigenvalues --    4.24487   4.25532   4.26803   4.31072   4.34100
 Alpha virt. eigenvalues --    4.36500   4.38610   4.44515   4.49371   4.50968
 Alpha virt. eigenvalues --    4.57650   4.59444   4.63727
          Condensed to atoms (all electrons):
 Mulliken charges:
               1
     1  N   -0.749955
     2  H    0.426717
     3  H    0.422414
     4  H    0.441107
     5  C   -0.283321
     6  H    0.260458
     7  H    0.244490
     8  C    0.654896
     9  O   -0.517052
    10  N   -0.573172
    11  H    0.351035
    12  C   -0.074880
    13  H    0.199844
    14  C    0.636161
    15  C   -0.290740
    16  H    0.162295
    17  H    0.147495
    18  O   -0.567755
    19  C   -0.105310
    20  H    0.153804
    21  C   -0.452369
    22  H    0.149758
    23  H    0.177038
    24  H    0.134437
    25  C   -0.450989
    26  H    0.148362
    27  H    0.150332
    28  H    0.169931
    29  N   -0.606237
    30  H    0.378396
    31  C   -0.072030
    32  H    0.180331
    33  C    0.639401
    34  C   -0.077982
    35  H    0.143893
    36  O   -0.550077
    37  C   -0.451121
    38  H    0.147341
    39  H    0.153393
    40  H    0.150783
    41  C   -0.463316
    42  H    0.149895
    43  H    0.161069
    44  H    0.164806
    45  N   -0.607370
    46  H    0.356395
    47  C   -0.052498
    48  H    0.204049
    49  C    0.587772
    50  C   -0.264271
    51  H    0.144983
    52  H    0.170081
    53  O   -0.468408
    54  C   -0.261543
    55  H    0.133091
    56  H    0.155269
    57  C   -0.266542
    58  H    0.127056
    59  H    0.133711
    60  C   -0.145798
    61  H    0.143420
    62  H    0.134252
    63  N   -0.702370
    64  H    0.294940
    65  H    0.298347
    66  O   -0.555397
    67  H    0.427257
 Sum of Mulliken charges =   1.00000
 Mulliken charges with hydrogens summed into heavy atoms:
               1
     1  N    0.540282
     5  C    0.221626
     8  C    0.654896
     9  O   -0.517052
    10  N   -0.222137
    12  C    0.124964
    14  C    0.636161
    15  C    0.019050
    18  O   -0.567755
    19  C    0.048493
    21  C    0.008862
    25  C    0.017636
    29  N   -0.227841
    31  C    0.108301
    33  C    0.639401
    34  C    0.065911
    36  O   -0.550077
    37  C    0.000396
    41  C    0.012454
    45  N   -0.250975
    47  C    0.151551
    49  C    0.587772
    50  C    0.050793
    53  O   -0.468408
    54  C    0.026817
    57  C   -0.005775
    60  C    0.131875
    63  N   -0.109083
    66  O   -0.128140
 Electronic spatial extent (au):  <R**2>=          16724.6183
 Charge=              1.0000 electrons
 Dipole moment (field-independent basis, Debye):
    X=             -9.6173    Y=              3.6778    Z=             11.6383  Tot=             15.5393
 Quadrupole moment (field-independent basis, Debye-Ang):
   XX=            -84.5373   YY=           -166.4706   ZZ=            -86.6912
   XY=            -15.9150   XZ=            -81.0764   YZ=             10.2824
 Traceless Quadrupole moment (field-independent basis, Debye-Ang):
   XX=             28.0291   YY=            -53.9043   ZZ=             25.8752
   XY=            -15.9150   XZ=            -81.0764   YZ=             10.2824
 Octapole moment (field-independent basis, Debye-Ang**2):
  XXX=           -254.8184  YYY=           -201.9623  ZZZ=            897.4125  XYY=            -36.1011
  XXY=            -23.8022  XXZ=            301.3627  XZZ=           -256.4352  YZZ=            -28.2067
  YYZ=            212.3969  XYZ=            -74.6416
 Hexadecapole moment (field-independent basis, Debye-Ang**3):
 XXXX=          -6741.4995 YYYY=          -3046.0188 ZZZZ=          -6896.0502 XXXY=            -81.0287
 XXXZ=            502.8391 YYYX=            545.2301 YYYZ=           1388.7598 ZZZX=            318.3063
 ZZZY=           1460.8371 XXYY=          -1721.4414 XXZZ=          -1457.1144 YYZZ=          -2094.0088
 XXYZ=            635.2292 YYXZ=            449.6997 ZZXY=            243.1853
 N-N= 3.094343935010D+03 E-N=-9.418896908828D+03  KE= 1.383744652613D+03
 Unable to Open any file for archive entry.
 1\1\GINC-QML-003\SP\RB3LYP\6-31G(d)\C19H38N5O5(1+)\KENGMITH\12-Jul-202
 2\0\\# B3LYP/6-31G* empiricaldispersion=gd3bj guess=read geom=check no
 symm integral(ultrafinegrid)\\Candidate Structure: Conf:34 Charge calc
  in gas phase\\1,1\N,0,-3.6268478341,0.3624747222,4.5692310262\H,0,-2.
 8792043501,0.599962665,5.2266222576\H,0,-4.494025987,0.2264694532,5.09
 50401102\H,0,-3.3688944866,-0.5329862812,4.0371959505\C,0,-3.749948638
 2,1.3406767486,3.4349583817\H,0,-3.004179678,2.128750544,3.5504521251\
 H,0,-4.7522836827,1.7711330975,3.4183076847\C,0,-3.4265689681,0.491440
 8597,2.1859119375\O,0,-3.1557270073,-0.6997397925,2.3725773231\N,0,-3.
 4492927327,1.1080576536,1.0015604324\H,0,-3.5212779397,2.1197524847,1.
 0227184605\C,0,-2.5972873349,0.5854657367,-0.0779283943\H,0,-2.9488163
 711,-0.4172957354,-0.3283649705\C,0,-1.158690317,0.5212735889,0.493904
 0781\C,0,-2.7126250307,1.5293600814,-1.2878089947\H,0,-3.7793216118,1.
 6254100725,-1.5309340227\H,0,-2.3613134078,2.5231905983,-0.974526319\O
 ,0,-0.8401319618,1.2245268919,1.4540774614\C,0,-1.9493282264,1.1102210
 726,-2.5582154499\H,0,-0.8810473129,1.038373786,-2.3236365917\C,0,-2.4
 116266305,-0.2493094363,-3.0977145083\H,0,-3.4772847323,-0.2245570825,
 -3.3575505839\H,0,-1.8482830643,-0.5108047719,-3.9979108044\H,0,-2.265
 2453631,-1.0691908195,-2.3843109149\C,0,-2.1172871898,2.1969803026,-3.
 6277271255\H,0,-3.1701680742,2.3089554146,-3.9146795797\H,0,-1.7587583
 621,3.1699328758,-3.2731875538\H,0,-1.5506620611,1.943238591,-4.528397
 7719\N,0,-0.3414149173,-0.3445155946,-0.1285133778\H,0,-0.6270043578,-
 0.7807709774,-1.0012922542\C,0,1.0985968119,-0.3730887126,0.0736078909
 \H,0,1.3931458335,0.5807777349,0.522479162\C,0,1.7068453803,-0.5117170
 438,-1.3305659325\C,0,1.5497206019,-1.5287102461,1.0063372985\H,0,2.64
 32417055,-1.4506589907,1.085397835\O,0,1.0154005273,-0.8839785681,-2.2
 809925827\C,0,0.9536803536,-1.3537086658,2.4075589781\H,0,-0.138090207
 7,-1.4420566786,2.3759491612\H,0,1.3383240432,-2.1282318654,3.07956919
 13\H,0,1.1988627674,-0.3734429162,2.8286048597\C,0,1.2042648724,-2.902
 6239777,0.4215245789\H,0,0.1193843861,-3.0166737772,0.315616249\H,0,1.
 5596944232,-3.6970932646,1.0850534584\H,0,1.656548587,-3.0582235449,-0
 .5629078408\N,0,3.0176612208,-0.2121177121,-1.4288559216\H,0,3.5693729
 504,-0.0448894721,-0.5947183121\C,0,3.7829181347,-0.4366540929,-2.6457
 924582\H,0,3.2846731143,-1.2233362054,-3.220704911\C,0,5.1600751755,-0
 .9164614257,-2.2159080739\C,0,3.9033421125,0.8291657221,-3.5248673229\
 H,0,4.4714775081,1.5893724953,-2.9720045773\H,0,4.4958695707,0.5667596
 919,-4.4085041518\O,0,5.5733833134,-0.8646234368,-1.0761962049\C,0,2.5
 467214907,1.3987994753,-3.9460019835\H,0,1.9816472304,1.6852298566,-3.
 049811395\H,0,1.9567868251,0.6151488185,-4.4370269913\C,0,2.6703596757
 ,2.6143093149,-4.8687699435\H,0,3.2846915169,3.3887376739,-4.385789962
 4\H,0,3.1974928185,2.3315063571,-5.7913099688\C,0,1.3012253598,3.21128
 4449,-5.2290706702\H,0,0.684497036,2.4374025514,-5.7055227575\H,0,0.77
 79025165,3.4907380006,-4.3043530618\N,0,1.3060794124,4.3790275197,-6.1
 084314456\H,0,1.8782233368,5.1169132062,-5.6993318016\H,0,1.748919703,
 4.141364633,-6.9951328962\O,0,5.8798560927,-1.3677424661,-3.255441782\
 H,0,6.7581658711,-1.6202145167,-2.9112608056\\Version=ES64L-G16RevC.01
 \HF=-1396.7635909\RMSD=6.329e-09\Dipole=-4.4649251,0.7354829,6.5125786
 \Quadrupole=20.838932,-40.07649,19.237558,-11.8324009,-60.2782834,7.64
 47124\PG=C01 [X(C19H38N5O5)]\\@
 The archive entry for this job was punched.


 ONE BIG VICE IN A MAN IS APT TO KEEP OUT MANY SMALLER ONES.

                           -- BRET HARTE
 Job cpu time:       0 days  0 hours  1 minutes 57.8 seconds.
 Elapsed time:       0 days  0 hours  0 minutes 29.9 seconds.
 File lengths (MBytes):  RWF=    256 Int=      0 D2E=      0 Chk=     40 Scr=     16
 Normal termination of Gaussian 16 at Tue Jul 12 17:42:46 2022.
