 Entering Gaussian System, Link 0=/opt/software/Gaussian/g16-AVX2-C.01/g16/g16
 Input=charge-conf-428.com
 Output=charge-conf-428.log
 Initial command:
 /opt/software/Gaussian/g16-AVX2-C.01/g16/l1.exe "/mnt/gs18/scratch/users/kengmith/Gau-142573.inp" -scrdir="/mnt/gs18/scratch/users/kengmith/"
 Entering Link 1 = /opt/software/Gaussian/g16-AVX2-C.01/g16/l1.exe PID=    142625.
  
 Copyright (c) 1988-2019, Gaussian, Inc.  All Rights Reserved.
  
 This is part of the Gaussian(R) 16 program.  It is based on
 the Gaussian(R) 09 system (copyright 2009, Gaussian, Inc.),
 the Gaussian(R) 03 system (copyright 2003, Gaussian, Inc.),
 the Gaussian(R) 98 system (copyright 1998, Gaussian, Inc.),
 the Gaussian(R) 94 system (copyright 1995, Gaussian, Inc.),
 the Gaussian 92(TM) system (copyright 1992, Gaussian, Inc.),
 the Gaussian 90(TM) system (copyright 1990, Gaussian, Inc.),
 the Gaussian 88(TM) system (copyright 1988, Gaussian, Inc.),
 the Gaussian 86(TM) system (copyright 1986, Carnegie Mellon
 University), and the Gaussian 82(TM) system (copyright 1983,
 Carnegie Mellon University). Gaussian is a federally registered
 trademark of Gaussian, Inc.
  
 This software contains proprietary and confidential information,
 including trade secrets, belonging to Gaussian, Inc.
  
 This software is provided under written license and may be
 used, copied, transmitted, or stored only in accord with that
 written license.
  
 The following legend is applicable only to US Government
 contracts under FAR:
  
                    RESTRICTED RIGHTS LEGEND
  
 Use, reproduction and disclosure by the US Government is
 subject to restrictions as set forth in subparagraphs (a)
 and (c) of the Commercial Computer Software - Restricted
 Rights clause in FAR 52.227-19.
  
 Gaussian, Inc.
 340 Quinnipiac St., Bldg. 40, Wallingford CT 06492
  
  
 ---------------------------------------------------------------
 Warning -- This program may not be used in any manner that
 competes with the business of Gaussian, Inc. or will provide
 assistance to any competitor of Gaussian, Inc.  The licensee
 of this program is prohibited from giving any competitor of
 Gaussian, Inc. access to this program.  By using this program,
 the user acknowledges that Gaussian, Inc. is engaged in the
 business of creating and licensing software in the field of
 computational chemistry and represents and warrants to the
 licensee that it is not a competitor of Gaussian, Inc. and that
 it will not use this program in any manner prohibited above.
 ---------------------------------------------------------------
  

 Cite this work as:
 Gaussian 16, Revision C.01,
 M. J. Frisch, G. W. Trucks, H. B. Schlegel, G. E. Scuseria, 
 M. A. Robb, J. R. Cheeseman, G. Scalmani, V. Barone, 
 G. A. Petersson, H. Nakatsuji, X. Li, M. Caricato, A. V. Marenich, 
 J. Bloino, B. G. Janesko, R. Gomperts, B. Mennucci, H. P. Hratchian, 
 J. V. Ortiz, A. F. Izmaylov, J. L. Sonnenberg, D. Williams-Young, 
 F. Ding, F. Lipparini, F. Egidi, J. Goings, B. Peng, A. Petrone, 
 T. Henderson, D. Ranasinghe, V. G. Zakrzewski, J. Gao, N. Rega, 
 G. Zheng, W. Liang, M. Hada, M. Ehara, K. Toyota, R. Fukuda, 
 J. Hasegawa, M. Ishida, T. Nakajima, Y. Honda, O. Kitao, H. Nakai, 
 T. Vreven, K. Throssell, J. A. Montgomery, Jr., J. E. Peralta, 
 F. Ogliaro, M. J. Bearpark, J. J. Heyd, E. N. Brothers, K. N. Kudin, 
 V. N. Staroverov, T. A. Keith, R. Kobayashi, J. Normand, 
 K. Raghavachari, A. P. Rendell, J. C. Burant, S. S. Iyengar, 
 J. Tomasi, M. Cossi, J. M. Millam, M. Klene, C. Adamo, R. Cammi, 
 J. W. Ochterski, R. L. Martin, K. Morokuma, O. Farkas, 
 J. B. Foresman, and D. J. Fox, Gaussian, Inc., Wallingford CT, 2019.
 
 ******************************************
 Gaussian 16:  ES64L-G16RevC.01  3-Jul-2019
                12-Jul-2022 
 ******************************************
 %mem=8gb
 %nproc=4
 Will use up to    4 processors via shared memory.
 %chk=conf-428.chk
 ----------------------------------------------------------------------
 # B3LYP/6-31G* empiricaldispersion=gd3bj guess=read geom=check nosymm 
 integral(ultrafinegrid)
 ----------------------------------------------------------------------
 1/29=2,38=1,172=1/1;
 2/12=2,15=1,40=1/2;
 3/5=1,6=6,7=1,11=2,14=-4,25=1,30=1,74=-5,75=-5,116=-2,124=41/1,2,3;
 4/5=1/1;
 5/5=2,38=6/2;
 6/7=2,8=2,9=2,10=2,28=1/1;
 99/5=1,9=1/99;
 ------------------------------------------------------
 Candidate Structure: Conf:428 Charge calc in gas phase
 ------------------------------------------------------
 Structure from the checkpoint file:  "conf-428.chk"
 Charge =  1 Multiplicity = 1
 Redundant internal coordinates found in file.  (old form).
 N,0,-1.8074818537,1.6496629532,3.807930462
 H,0,-1.6197956366,2.2476674231,4.6175074455
 H,0,-1.7667511706,0.6620082532,4.0892148519
 H,0,-1.0681746328,1.7642025639,3.0487768786
 C,0,-3.1512781387,1.9035725061,3.1617588499
 H,0,-3.2319096582,2.9721724448,2.9581905217
 H,0,-3.9393037965,1.5802246966,3.8422993629
 C,0,-3.0460074748,1.0052697719,1.9215653895
 O,0,-2.8797695972,-0.1931482883,2.106022696
 N,0,-2.8997322206,1.628522473,0.7253582277
 H,0,-2.916802579,2.6412834988,0.7337569607
 C,0,-1.92144895,1.0475643374,-0.1942643238
 H,0,-2.2655282838,0.0535411616,-0.4861989375
 C,0,-0.5835900349,0.9165457507,0.5727727755
 C,0,-1.7344526104,1.947698381,-1.4226661498
 H,0,-1.3935812128,2.9339742223,-1.0750639191
 H,0,-0.9099382863,1.5384978505,-2.0176071354
 O,0,-0.3276194526,1.6365080058,1.5633197644
 C,0,-2.9740041773,2.1009390222,-2.3209956407
 H,0,-3.8102812134,2.4572672647,-1.7024820674
 C,0,-2.6899650047,3.1570285721,-3.3969440586
 H,0,-1.8458947105,2.8519173687,-4.0274776884
 H,0,-3.5604172228,3.2966900546,-4.0456991862
 H,0,-2.4413610376,4.1276711132,-2.9526233953
 C,0,-3.3829115815,0.7660514675,-2.954731112
 H,0,-2.5614663263,0.3517288417,-3.553831029
 H,0,-3.6665743672,0.0167274332,-2.2074863373
 H,0,-4.2419667555,0.901747611,-3.6190449452
 N,0,0.2704302395,0.030476071,0.0757411278
 H,0,0.0440774703,-0.5119195421,-0.7560191444
 C,0,1.6412734846,-0.1739748336,0.5366081201
 H,0,1.9809758487,0.7527718229,1.0083219701
 C,0,2.4201826395,-0.4883654215,-0.7527745255
 C,0,1.7438977833,-1.3488113925,1.5442158252
 H,0,1.4290362963,-2.2503898744,1.0026176796
 O,0,1.8816577662,-1.1838985694,-1.6166868094
 C,0,3.1923106126,-1.5368639287,2.0131379329
 H,0,3.565050905,-0.6332497909,2.5128486623
 H,0,3.2523875508,-2.3597505451,2.7317247251
 H,0,3.8677920332,-1.7692630725,1.1854007399
 C,0,0.8045522981,-1.150135682,2.7409379023
 H,0,1.0672975737,-0.2367012405,3.2894951296
 H,0,0.8983854225,-1.9964329069,3.4289617153
 H,0,-0.2428219886,-1.0881753556,2.428979915
 N,0,3.6556068231,0.0301588653,-0.8420478151
 H,0,4.0292693726,0.6172896133,-0.1035315495
 C,0,4.5497997411,-0.1686910059,-1.977175702
 H,0,4.7947805041,-1.2342761445,-2.0690573139
 C,0,5.828991303,0.5782814697,-1.6286717884
 C,0,3.9491975956,0.3045705085,-3.3179225419
 H,0,4.6867827251,0.1062230144,-4.1018301498
 H,0,3.088600335,-0.3369930691,-3.5138923059
 O,0,5.9740556563,1.2512181784,-0.6285826762
 C,0,3.5411115801,1.7828244741,-3.3360249847
 H,0,4.4372416025,2.4093462143,-3.4244853445
 H,0,3.0720961558,2.0517778733,-2.3793239067
 C,0,2.5668960041,2.0987212939,-4.4801391851
 H,0,2.5440252003,3.1825626091,-4.6560695811
 H,0,2.9114774861,1.6386935738,-5.4139573391
 C,0,1.1409332619,1.6143105635,-4.1980750678
 H,0,1.1522901568,0.5494753675,-3.9363496972
 H,0,0.7675525406,2.1502384437,-3.3024683329
 N,0,0.3026979649,1.7676657813,-5.385485753
 H,0,-0.6172302833,1.3559592042,-5.2490233993
 H,0,0.1619296727,2.7515726371,-5.6065910888
 O,0,6.7731091769,0.4120832668,-2.5648708457
 H,0,7.5570260251,0.9208840538,-2.2820399581
 Recover connectivity data from disk.
                           ----------------------------
                           !    Current Parameters    !
                           ! (Angstroms and Degrees)  !
 --------------------------                            --------------------------
 ! Name  Definition              Value                                          !
 --------------------------------------------------------------------------------
 ! R1    R(1,2)                  1.0238                                         !
 ! R2    R(1,3)                  1.0277                                         !
 ! R3    R(1,4)                  1.0658                                         !
 ! R4    R(1,5)                  1.5125                                         !
 ! R5    R(5,6)                  1.0908                                         !
 ! R6    R(5,7)                  1.0903                                         !
 ! R7    R(5,8)                  1.535                                          !
 ! R8    R(8,9)                  1.2239                                         !
 ! R9    R(8,10)                 1.3567                                         !
 ! R10   R(10,11)                1.0129                                         !
 ! R11   R(10,12)                1.463                                          !
 ! R12   R(12,13)                1.0916                                         !
 ! R13   R(12,14)                1.5477                                         !
 ! R14   R(12,15)                1.5343                                         !
 ! R15   R(14,18)                1.251                                          !
 ! R16   R(14,29)                1.3272                                         !
 ! R17   R(15,16)                1.0999                                         !
 ! R18   R(15,17)                1.096                                          !
 ! R19   R(15,19)                1.5385                                         !
 ! R20   R(19,20)                1.0995                                         !
 ! R21   R(19,21)                1.5342                                         !
 ! R22   R(19,25)                1.5332                                         !
 ! R23   R(21,22)                1.0969                                         !
 ! R24   R(21,23)                1.0946                                         !
 ! R25   R(21,24)                1.0961                                         !
 ! R26   R(25,26)                1.0979                                         !
 ! R27   R(25,27)                1.0956                                         !
 ! R28   R(25,28)                1.0944                                         !
 ! R29   R(29,30)                1.0185                                         !
 ! R30   R(29,31)                1.4606                                         !
 ! R31   R(31,32)                1.094                                          !
 ! R32   R(31,33)                1.5388                                         !
 ! R33   R(31,34)                1.5511                                         !
 ! R34   R(33,36)                1.2329                                         !
 ! R35   R(33,45)                1.3428                                         !
 ! R36   R(34,35)                1.0979                                         !
 ! R37   R(34,37)                1.534                                          !
 ! R38   R(34,41)                1.5343                                         !
 ! R39   R(37,38)                1.0978                                         !
 ! R40   R(37,39)                1.0941                                         !
 ! R41   R(37,40)                1.0934                                         !
 ! R42   R(41,42)                1.0974                                         !
 ! R43   R(41,43)                1.0947                                         !
 ! R44   R(41,44)                1.0946                                         !
 ! R45   R(45,46)                1.0148                                         !
 ! R46   R(45,47)                1.4586                                         !
 ! R47   R(47,48)                1.0972                                         !
 ! R48   R(47,49)                1.5218                                         !
 ! R49   R(47,50)                1.5435                                         !
 ! R50   R(49,53)                1.2141                                         !
 ! R51   R(49,66)                1.3399                                         !
 ! R52   R(50,51)                1.0945                                         !
 ! R53   R(50,52)                1.0912                                         !
 ! R54   R(50,54)                1.5337                                         !
 ! R55   R(54,55)                1.097                                          !
 ! R56   R(54,56)                1.0989                                         !
 ! R57   R(54,57)                1.5355                                         !
 ! R58   R(57,58)                1.0983                                         !
 ! R59   R(57,59)                1.0965                                         !
 ! R60   R(57,60)                1.5322                                         !
 ! R61   R(60,61)                1.0966                                         !
 ! R62   R(60,62)                1.1085                                         !
 ! R63   R(60,63)                1.4615                                         !
 ! R64   R(63,64)                1.0171                                         !
 ! R65   R(63,65)                1.0182                                         !
 ! R66   R(66,67)                0.9764                                         !
 ! A1    A(2,1,3)              109.7319                                         !
 ! A2    A(2,1,4)              111.918                                          !
 ! A3    A(2,1,5)              113.742                                          !
 ! A4    A(3,1,4)              105.7074                                         !
 ! A5    A(3,1,5)              108.2676                                         !
 ! A6    A(4,1,5)              107.0934                                         !
 ! A7    A(1,5,6)              108.0503                                         !
 ! A8    A(1,5,7)              109.0078                                         !
 ! A9    A(1,5,8)              100.7192                                         !
 ! A10   A(6,5,7)              110.7079                                         !
 ! A11   A(6,5,8)              115.3155                                         !
 ! A12   A(7,5,8)              112.3544                                         !
 ! A13   A(5,8,9)              117.4257                                         !
 ! A14   A(5,8,10)             116.8025                                         !
 ! A15   A(9,8,10)             124.6149                                         !
 ! A16   A(8,10,11)            116.7543                                         !
 ! A17   A(8,10,12)            116.3528                                         !
 ! A18   A(11,10,12)           114.4263                                         !
 ! A19   A(10,12,13)           108.5984                                         !
 ! A20   A(10,12,14)           107.4647                                         !
 ! A21   A(10,12,15)           110.5971                                         !
 ! A22   A(13,12,14)           109.142                                          !
 ! A23   A(13,12,15)           111.0085                                         !
 ! A24   A(14,12,15)           109.9435                                         !
 ! A25   A(12,14,18)           121.3698                                         !
 ! A26   A(12,14,29)           115.2863                                         !
 ! A27   A(18,14,29)           123.3033                                         !
 ! A28   A(12,15,16)           108.1082                                         !
 ! A29   A(12,15,17)           107.8932                                         !
 ! A30   A(12,15,19)           115.3228                                         !
 ! A31   A(16,15,17)           105.8546                                         !
 ! A32   A(16,15,19)           110.1764                                         !
 ! A33   A(17,15,19)           109.0471                                         !
 ! A34   A(15,19,20)           108.4586                                         !
 ! A35   A(15,19,21)           109.2022                                         !
 ! A36   A(15,19,25)           111.6851                                         !
 ! A37   A(20,19,21)           108.195                                          !
 ! A38   A(20,19,25)           108.1696                                         !
 ! A39   A(21,19,25)           111.0283                                         !
 ! A40   A(19,21,22)           110.741                                          !
 ! A41   A(19,21,23)           110.8718                                         !
 ! A42   A(19,21,24)           111.5491                                         !
 ! A43   A(22,21,23)           107.863                                          !
 ! A44   A(22,21,24)           107.7476                                         !
 ! A45   A(23,21,24)           107.9175                                         !
 ! A46   A(19,25,26)           110.7672                                         !
 ! A47   A(19,25,27)           112.4954                                         !
 ! A48   A(19,25,28)           110.6278                                         !
 ! A49   A(26,25,27)           107.9263                                         !
 ! A50   A(26,25,28)           107.6297                                         !
 ! A51   A(27,25,28)           107.1923                                         !
 ! A52   A(14,29,30)           121.2236                                         !
 ! A53   A(14,29,31)           125.3945                                         !
 ! A54   A(30,29,31)           113.0623                                         !
 ! A55   A(29,31,32)           107.9936                                         !
 ! A56   A(29,31,33)           103.8436                                         !
 ! A57   A(29,31,34)           111.9054                                         !
 ! A58   A(32,31,33)           112.1598                                         !
 ! A59   A(32,31,34)           109.9366                                         !
 ! A60   A(33,31,34)           110.8583                                         !
 ! A61   A(31,33,36)           118.7688                                         !
 ! A62   A(31,33,45)           116.2637                                         !
 ! A63   A(36,33,45)           124.9676                                         !
 ! A64   A(31,34,35)           106.4128                                         !
 ! A65   A(31,34,37)           110.7254                                         !
 ! A66   A(31,34,41)           111.5981                                         !
 ! A67   A(35,34,37)           108.7187                                         !
 ! A68   A(35,34,41)           108.3933                                         !
 ! A69   A(37,34,41)           110.8256                                         !
 ! A70   A(34,37,38)           111.0284                                         !
 ! A71   A(34,37,39)           110.1701                                         !
 ! A72   A(34,37,40)           112.208                                          !
 ! A73   A(38,37,39)           107.5453                                         !
 ! A74   A(38,37,40)           108.0472                                         !
 ! A75   A(39,37,40)           107.6635                                         !
 ! A76   A(34,41,42)           110.554                                          !
 ! A77   A(34,41,43)           109.733                                          !
 ! A78   A(34,41,44)           111.7687                                         !
 ! A79   A(42,41,43)           107.9862                                         !
 ! A80   A(42,41,44)           108.9315                                         !
 ! A81   A(43,41,44)           107.7519                                         !
 ! A82   A(33,45,46)           120.9185                                         !
 ! A83   A(33,45,47)           124.2709                                         !
 ! A84   A(46,45,47)           114.803                                          !
 ! A85   A(45,47,48)           109.5379                                         !
 ! A86   A(45,47,49)           105.6748                                         !
 ! A87   A(45,47,50)           113.3066                                         !
 ! A88   A(48,47,49)           107.9506                                         !
 ! A89   A(48,47,50)           108.1747                                         !
 ! A90   A(49,47,50)           112.0567                                         !
 ! A91   A(47,49,53)           124.1351                                         !
 ! A92   A(47,49,66)           111.8014                                         !
 ! A93   A(53,49,66)           124.0615                                         !
 ! A94   A(47,50,51)           107.7197                                         !
 ! A95   A(47,50,52)           106.4171                                         !
 ! A96   A(47,50,54)           114.1634                                         !
 ! A97   A(51,50,52)           107.2371                                         !
 ! A98   A(51,50,54)           110.2151                                         !
 ! A99   A(52,50,54)           110.7776                                         !
 ! A100  A(50,54,55)           109.5166                                         !
 ! A101  A(50,54,56)           109.828                                          !
 ! A102  A(50,54,57)           112.0802                                         !
 ! A103  A(55,54,56)           106.205                                          !
 ! A104  A(55,54,57)           109.9194                                         !
 ! A105  A(56,54,57)           109.1194                                         !
 ! A106  A(54,57,58)           109.6084                                         !
 ! A107  A(54,57,59)           110.4168                                         !
 ! A108  A(54,57,60)           112.8459                                         !
 ! A109  A(58,57,59)           106.5078                                         !
 ! A110  A(58,57,60)           108.7908                                         !
 ! A111  A(59,57,60)           108.4574                                         !
 ! A112  A(57,60,61)           109.9562                                         !
 ! A113  A(57,60,62)           108.0213                                         !
 ! A114  A(57,60,63)           110.5504                                         !
 ! A115  A(61,60,62)           106.2679                                         !
 ! A116  A(61,60,63)           107.5619                                         !
 ! A117  A(62,60,63)           114.3618                                         !
 ! A118  A(60,63,64)           111.5477                                         !
 ! A119  A(60,63,65)           110.9222                                         !
 ! A120  A(64,63,65)           107.1726                                         !
 ! A121  A(49,66,67)           107.3776                                         !
 ! D1    D(2,1,5,6)             51.9996                                         !
 ! D2    D(2,1,5,7)            -68.3727                                         !
 ! D3    D(2,1,5,8)            173.2925                                         !
 ! D4    D(3,1,5,6)            174.2485                                         !
 ! D5    D(3,1,5,7)             53.8762                                         !
 ! D6    D(3,1,5,8)            -64.4586                                         !
 ! D7    D(4,1,5,6)            -72.1874                                         !
 ! D8    D(4,1,5,7)            167.4403                                         !
 ! D9    D(4,1,5,8)             49.1055                                         !
 ! D10   D(1,5,8,9)             60.0721                                         !
 ! D11   D(1,5,8,10)          -108.2141                                         !
 ! D12   D(6,5,8,9)            176.0739                                         !
 ! D13   D(6,5,8,10)             7.7878                                         !
 ! D14   D(7,5,8,9)            -55.7937                                         !
 ! D15   D(7,5,8,10)           135.9202                                         !
 ! D16   D(5,8,10,11)           -2.9346                                         !
 ! D17   D(5,8,10,12)          137.11                                           !
 ! D18   D(9,8,10,11)         -170.2863                                         !
 ! D19   D(9,8,10,12)          -30.2417                                         !
 ! D20   D(8,10,12,13)          65.0638                                         !
 ! D21   D(8,10,12,14)         -52.8777                                         !
 ! D22   D(8,10,12,15)        -172.8932                                         !
 ! D23   D(11,10,12,13)       -153.9726                                         !
 ! D24   D(11,10,12,14)         88.086                                          !
 ! D25   D(11,10,12,15)        -31.9296                                         !
 ! D26   D(10,12,14,18)        -23.7188                                         !
 ! D27   D(10,12,14,29)        158.5231                                         !
 ! D28   D(13,12,14,18)       -141.3074                                         !
 ! D29   D(13,12,14,29)         40.9346                                         !
 ! D30   D(15,12,14,18)         96.7111                                         !
 ! D31   D(15,12,14,29)        -81.047                                          !
 ! D32   D(10,12,15,16)         59.104                                          !
 ! D33   D(10,12,15,17)        173.1594                                         !
 ! D34   D(10,12,15,19)        -64.6892                                         !
 ! D35   D(13,12,15,16)        179.7211                                         !
 ! D36   D(13,12,15,17)        -66.2234                                         !
 ! D37   D(13,12,15,19)         55.928                                          !
 ! D38   D(14,12,15,16)        -59.4139                                         !
 ! D39   D(14,12,15,17)         54.6415                                         !
 ! D40   D(14,12,15,19)        176.7929                                         !
 ! D41   D(12,14,29,30)          0.2967                                         !
 ! D42   D(12,14,29,31)        173.3442                                         !
 ! D43   D(18,14,29,30)       -177.4129                                         !
 ! D44   D(18,14,29,31)         -4.3654                                         !
 ! D45   D(12,15,19,20)         55.2783                                         !
 ! D46   D(12,15,19,21)        172.9778                                         !
 ! D47   D(12,15,19,25)        -63.8334                                         !
 ! D48   D(16,15,19,20)        -67.4196                                         !
 ! D49   D(16,15,19,21)         50.28                                           !
 ! D50   D(16,15,19,25)        173.4688                                         !
 ! D51   D(17,15,19,20)        176.8091                                         !
 ! D52   D(17,15,19,21)        -65.4913                                         !
 ! D53   D(17,15,19,25)         57.6975                                         !
 ! D54   D(15,19,21,22)         60.9728                                         !
 ! D55   D(15,19,21,23)       -179.3293                                         !
 ! D56   D(15,19,21,24)        -59.0263                                         !
 ! D57   D(20,19,21,22)        178.8381                                         !
 ! D58   D(20,19,21,23)        -61.464                                          !
 ! D59   D(20,19,21,24)         58.8389                                         !
 ! D60   D(25,19,21,22)        -62.6058                                         !
 ! D61   D(25,19,21,23)         57.0921                                         !
 ! D62   D(25,19,21,24)        177.3951                                         !
 ! D63   D(15,19,25,26)        -58.5908                                         !
 ! D64   D(15,19,25,27)         62.295                                          !
 ! D65   D(15,19,25,28)       -177.8554                                         !
 ! D66   D(20,19,25,26)       -177.8736                                         !
 ! D67   D(20,19,25,27)        -56.9878                                         !
 ! D68   D(20,19,25,28)         62.8618                                         !
 ! D69   D(21,19,25,26)         63.5549                                         !
 ! D70   D(21,19,25,27)       -175.5593                                         !
 ! D71   D(21,19,25,28)        -55.7097                                         !
 ! D72   D(14,29,31,32)        -24.3844                                         !
 ! D73   D(14,29,31,33)       -143.6259                                         !
 ! D74   D(14,29,31,34)         96.748                                          !
 ! D75   D(30,29,31,32)        149.1559                                         !
 ! D76   D(30,29,31,33)         29.9144                                         !
 ! D77   D(30,29,31,34)        -89.7117                                         !
 ! D78   D(29,31,33,36)        -38.377                                          !
 ! D79   D(29,31,33,45)        141.6215                                         !
 ! D80   D(32,31,33,36)       -154.7295                                         !
 ! D81   D(32,31,33,45)         25.269                                          !
 ! D82   D(34,31,33,36)         81.9598                                         !
 ! D83   D(34,31,33,45)        -98.0418                                         !
 ! D84   D(29,31,34,35)         62.185                                          !
 ! D85   D(29,31,34,37)       -179.8355                                         !
 ! D86   D(29,31,34,41)        -55.8749                                         !
 ! D87   D(32,31,34,35)       -177.8132                                         !
 ! D88   D(32,31,34,37)        -59.8337                                         !
 ! D89   D(32,31,34,41)         64.1269                                         !
 ! D90   D(33,31,34,35)        -53.2314                                         !
 ! D91   D(33,31,34,37)         64.7481                                         !
 ! D92   D(33,31,34,41)       -171.2913                                         !
 ! D93   D(31,33,45,46)         -1.7408                                         !
 ! D94   D(31,33,45,47)        179.3199                                         !
 ! D95   D(36,33,45,46)        178.2575                                         !
 ! D96   D(36,33,45,47)         -0.6817                                         !
 ! D97   D(31,34,37,38)         60.3207                                         !
 ! D98   D(31,34,37,39)        179.3519                                         !
 ! D99   D(31,34,37,40)        -60.7064                                         !
 ! D100  D(35,34,37,38)        176.8841                                         !
 ! D101  D(35,34,37,39)        -64.0847                                         !
 ! D102  D(35,34,37,40)         55.8569                                         !
 ! D103  D(41,34,37,38)        -64.0813                                         !
 ! D104  D(41,34,37,39)         54.9498                                         !
 ! D105  D(41,34,37,40)        174.8915                                         !
 ! D106  D(31,34,41,42)        -61.2228                                         !
 ! D107  D(31,34,41,43)        179.7743                                         !
 ! D108  D(31,34,41,44)         60.2999                                         !
 ! D109  D(35,34,41,42)       -178.0882                                         !
 ! D110  D(35,34,41,43)         62.9089                                         !
 ! D111  D(35,34,41,44)        -56.5655                                         !
 ! D112  D(37,34,41,42)         62.6813                                         !
 ! D113  D(37,34,41,43)        -56.3216                                         !
 ! D114  D(37,34,41,44)       -175.796                                          !
 ! D115  D(33,45,47,48)        -63.1007                                         !
 ! D116  D(33,45,47,49)       -179.156                                          !
 ! D117  D(33,45,47,50)         57.7803                                         !
 ! D118  D(46,45,47,48)        117.9018                                         !
 ! D119  D(46,45,47,49)          1.8465                                         !
 ! D120  D(46,45,47,50)       -121.2172                                         !
 ! D121  D(45,47,49,53)         -4.0452                                         !
 ! D122  D(45,47,49,66)        176.4473                                         !
 ! D123  D(48,47,49,53)       -121.1765                                         !
 ! D124  D(48,47,49,66)         59.3161                                         !
 ! D125  D(50,47,49,53)        119.809                                          !
 ! D126  D(50,47,49,66)        -59.6985                                         !
 ! D127  D(45,47,50,51)       -179.5148                                         !
 ! D128  D(45,47,50,52)        -64.778                                          !
 ! D129  D(45,47,50,54)         57.7373                                         !
 ! D130  D(48,47,50,51)        -57.867                                          !
 ! D131  D(48,47,50,52)         56.8698                                         !
 ! D132  D(48,47,50,54)        179.3851                                         !
 ! D133  D(49,47,50,51)         61.0154                                         !
 ! D134  D(49,47,50,52)        175.7522                                         !
 ! D135  D(49,47,50,54)        -61.7325                                         !
 ! D136  D(47,49,66,67)        179.534                                          !
 ! D137  D(53,49,66,67)          0.0261                                         !
 ! D138  D(47,50,54,55)         75.9028                                         !
 ! D139  D(47,50,54,56)        -40.3639                                         !
 ! D140  D(47,50,54,57)       -161.8308                                         !
 ! D141  D(51,50,54,55)        -45.4759                                         !
 ! D142  D(51,50,54,56)       -161.7426                                         !
 ! D143  D(51,50,54,57)         76.7905                                         !
 ! D144  D(52,50,54,55)       -163.9952                                         !
 ! D145  D(52,50,54,56)         79.7381                                         !
 ! D146  D(52,50,54,57)        -41.7288                                         !
 ! D147  D(50,54,57,58)       -162.496                                          !
 ! D148  D(50,54,57,59)        -45.4655                                         !
 ! D149  D(50,54,57,60)         76.0952                                         !
 ! D150  D(55,54,57,58)        -40.4592                                         !
 ! D151  D(55,54,57,59)         76.5712                                         !
 ! D152  D(55,54,57,60)       -161.8681                                         !
 ! D153  D(56,54,57,58)         75.631                                          !
 ! D154  D(56,54,57,59)       -167.3386                                         !
 ! D155  D(56,54,57,60)        -45.7778                                         !
 ! D156  D(54,57,60,61)        -53.3817                                         !
 ! D157  D(54,57,60,62)         62.183                                          !
 ! D158  D(54,57,60,63)       -171.9986                                         !
 ! D159  D(58,57,60,61)       -175.2526                                         !
 ! D160  D(58,57,60,62)        -59.6879                                         !
 ! D161  D(58,57,60,63)         66.1305                                         !
 ! D162  D(59,57,60,61)         69.2809                                         !
 ! D163  D(59,57,60,62)       -175.1545                                         !
 ! D164  D(59,57,60,63)        -49.336                                          !
 ! D165  D(57,60,63,64)        173.6365                                         !
 ! D166  D(57,60,63,65)        -66.9699                                         !
 ! D167  D(61,60,63,64)         53.5728                                         !
 ! D168  D(61,60,63,65)        172.9663                                         !
 ! D169  D(62,60,63,64)        -64.1927                                         !
 ! D170  D(62,60,63,65)         55.2009                                         !
 --------------------------------------------------------------------------------
 Symmetry turned off by external request.
 Stoichiometry    C19H38N5O5(1+)
 Framework group  C1[X(C19H38N5O5)]
 Deg. of freedom   195
 Full point group                 C1      NOp   1
                          Input orientation:                          
 ---------------------------------------------------------------------
 Center     Atomic      Atomic             Coordinates (Angstroms)
 Number     Number       Type             X           Y           Z
 ---------------------------------------------------------------------
      1          7           0       -1.807482    1.649663    3.807930
      2          1           0       -1.619796    2.247667    4.617507
      3          1           0       -1.766751    0.662008    4.089215
      4          1           0       -1.068175    1.764203    3.048777
      5          6           0       -3.151278    1.903573    3.161759
      6          1           0       -3.231910    2.972172    2.958191
      7          1           0       -3.939304    1.580225    3.842299
      8          6           0       -3.046007    1.005270    1.921565
      9          8           0       -2.879770   -0.193148    2.106023
     10          7           0       -2.899732    1.628522    0.725358
     11          1           0       -2.916803    2.641283    0.733757
     12          6           0       -1.921449    1.047564   -0.194264
     13          1           0       -2.265528    0.053541   -0.486199
     14          6           0       -0.583590    0.916546    0.572773
     15          6           0       -1.734453    1.947698   -1.422666
     16          1           0       -1.393581    2.933974   -1.075064
     17          1           0       -0.909938    1.538498   -2.017607
     18          8           0       -0.327619    1.636508    1.563320
     19          6           0       -2.974004    2.100939   -2.320996
     20          1           0       -3.810281    2.457267   -1.702482
     21          6           0       -2.689965    3.157029   -3.396944
     22          1           0       -1.845895    2.851917   -4.027478
     23          1           0       -3.560417    3.296690   -4.045699
     24          1           0       -2.441361    4.127671   -2.952623
     25          6           0       -3.382912    0.766051   -2.954731
     26          1           0       -2.561466    0.351729   -3.553831
     27          1           0       -3.666574    0.016727   -2.207486
     28          1           0       -4.241967    0.901748   -3.619045
     29          7           0        0.270430    0.030476    0.075741
     30          1           0        0.044077   -0.511920   -0.756019
     31          6           0        1.641273   -0.173975    0.536608
     32          1           0        1.980976    0.752772    1.008322
     33          6           0        2.420183   -0.488365   -0.752775
     34          6           0        1.743898   -1.348811    1.544216
     35          1           0        1.429036   -2.250390    1.002618
     36          8           0        1.881658   -1.183899   -1.616687
     37          6           0        3.192311   -1.536864    2.013138
     38          1           0        3.565051   -0.633250    2.512849
     39          1           0        3.252388   -2.359751    2.731725
     40          1           0        3.867792   -1.769263    1.185401
     41          6           0        0.804552   -1.150136    2.740938
     42          1           0        1.067298   -0.236701    3.289495
     43          1           0        0.898385   -1.996433    3.428962
     44          1           0       -0.242822   -1.088175    2.428980
     45          7           0        3.655607    0.030159   -0.842048
     46          1           0        4.029269    0.617290   -0.103532
     47          6           0        4.549800   -0.168691   -1.977176
     48          1           0        4.794781   -1.234276   -2.069057
     49          6           0        5.828991    0.578281   -1.628672
     50          6           0        3.949198    0.304571   -3.317923
     51          1           0        4.686783    0.106223   -4.101830
     52          1           0        3.088600   -0.336993   -3.513892
     53          8           0        5.974056    1.251218   -0.628583
     54          6           0        3.541112    1.782824   -3.336025
     55          1           0        4.437242    2.409346   -3.424485
     56          1           0        3.072096    2.051778   -2.379324
     57          6           0        2.566896    2.098721   -4.480139
     58          1           0        2.544025    3.182563   -4.656070
     59          1           0        2.911477    1.638694   -5.413957
     60          6           0        1.140933    1.614311   -4.198075
     61          1           0        1.152290    0.549475   -3.936350
     62          1           0        0.767553    2.150238   -3.302468
     63          7           0        0.302698    1.767666   -5.385486
     64          1           0       -0.617230    1.355959   -5.249023
     65          1           0        0.161930    2.751573   -5.606591
     66          8           0        6.773109    0.412083   -2.564871
     67          1           0        7.557026    0.920884   -2.282040
 ---------------------------------------------------------------------
 Rotational constants (GHZ):           0.1891286           0.1050802           0.0748251
 Standard basis: 6-31G(d) (6D, 7F)
   511 basis functions,   964 primitive gaussians,   511 cartesian basis functions
   113 alpha electrons      113 beta electrons
       nuclear repulsion energy      3146.8769927409 Hartrees.
 NAtoms=   67 NActive=   67 NUniq=   67 SFac= 1.00D+00 NAtFMM=   60 NAOKFM=T Big=T
 Integral buffers will be    131072 words long.
 Raffenetti 2 integral format.
 Two-electron integral symmetry is turned off.
 Nuclear repulsion after empirical dispersion term =     3146.7425699014 Hartrees.
 One-electron integrals computed using PRISM.
 NBasis=   511 RedAO= T EigKep=  1.67D-03  NBF=   511
 NBsUse=   511 1.00D-06 EigRej= -1.00D+00 NBFU=   511
 Initial guess from the checkpoint file:  "conf-428.chk"
 B after Tr=     0.000000    0.000000    0.000000
         Rot=    1.000000    0.000000    0.000000    0.000000 Ang=   0.00 deg.
 Requested convergence on RMS density matrix=1.00D-08 within 128 cycles.
 Requested convergence on MAX density matrix=1.00D-06.
 Requested convergence on             energy=1.00D-06.
 No special actions if energy rises.
 SCF Done:  E(RB3LYP) =  -1396.76968654     A.U. after    3 cycles
            NFock=  3  Conv=0.90D-09     -V/T= 2.0094

 **********************************************************************

            Population analysis using the SCF Density.

 **********************************************************************

 Alpha  occ. eigenvalues --  -19.29026 -19.26973 -19.25699 -19.23695 -19.21820
 Alpha  occ. eigenvalues --  -14.60505 -14.50302 -14.48812 -14.46167 -14.38379
 Alpha  occ. eigenvalues --  -10.44251 -10.42216 -10.41598 -10.41134 -10.39035
 Alpha  occ. eigenvalues --  -10.36239 -10.34165 -10.33146 -10.30488 -10.29757
 Alpha  occ. eigenvalues --  -10.29274 -10.27953 -10.27636 -10.26829 -10.26695
 Alpha  occ. eigenvalues --  -10.26493 -10.26407 -10.25907 -10.24976  -1.20217
 Alpha  occ. eigenvalues --   -1.19851  -1.16760  -1.14574  -1.13891  -1.11333
 Alpha  occ. eigenvalues --   -1.07168  -1.05341  -1.02800  -0.95070  -0.93173
 Alpha  occ. eigenvalues --   -0.91177  -0.89797  -0.88514  -0.86108  -0.84269
 Alpha  occ. eigenvalues --   -0.81644  -0.78304  -0.77757  -0.77017  -0.76395
 Alpha  occ. eigenvalues --   -0.75407  -0.73780  -0.73252  -0.71979  -0.71383
 Alpha  occ. eigenvalues --   -0.70672  -0.68316  -0.67490  -0.67038  -0.65571
 Alpha  occ. eigenvalues --   -0.65263  -0.64507  -0.63344  -0.61827  -0.60703
 Alpha  occ. eigenvalues --   -0.59779  -0.58518  -0.57894  -0.57490  -0.57329
 Alpha  occ. eigenvalues --   -0.56354  -0.56222  -0.55764  -0.55580  -0.54927
 Alpha  occ. eigenvalues --   -0.54221  -0.53986  -0.53532  -0.52998  -0.52132
 Alpha  occ. eigenvalues --   -0.52067  -0.51369  -0.50981  -0.50066  -0.49738
 Alpha  occ. eigenvalues --   -0.49112  -0.48864  -0.48758  -0.48397  -0.47775
 Alpha  occ. eigenvalues --   -0.47589  -0.46389  -0.46206  -0.45166  -0.44496
 Alpha  occ. eigenvalues --   -0.44059  -0.43746  -0.43374  -0.43225  -0.42830
 Alpha  occ. eigenvalues --   -0.42680  -0.41603  -0.41441  -0.41153  -0.40446
 Alpha  occ. eigenvalues --   -0.40339  -0.39728  -0.39150  -0.38362  -0.37165
 Alpha  occ. eigenvalues --   -0.35616  -0.35178  -0.30322
 Alpha virt. eigenvalues --   -0.15330  -0.11345  -0.10170  -0.08660  -0.07485
 Alpha virt. eigenvalues --   -0.06350  -0.04888  -0.03571  -0.02416  -0.01687
 Alpha virt. eigenvalues --   -0.01172  -0.00582  -0.00062   0.00632   0.01399
 Alpha virt. eigenvalues --    0.01624   0.02104   0.02711   0.02833   0.03355
 Alpha virt. eigenvalues --    0.04006   0.04264   0.04537   0.04945   0.05267
 Alpha virt. eigenvalues --    0.05701   0.06144   0.06525   0.06646   0.07189
 Alpha virt. eigenvalues --    0.07405   0.08238   0.08641   0.08774   0.09440
 Alpha virt. eigenvalues --    0.09891   0.10138   0.10311   0.10826   0.10992
 Alpha virt. eigenvalues --    0.11294   0.11850   0.12154   0.12603   0.12994
 Alpha virt. eigenvalues --    0.13536   0.13777   0.14133   0.14335   0.14980
 Alpha virt. eigenvalues --    0.15130   0.15463   0.15824   0.16141   0.16860
 Alpha virt. eigenvalues --    0.17562   0.18350   0.18437   0.19200   0.20115
 Alpha virt. eigenvalues --    0.20502   0.20871   0.21929   0.23436   0.26458
 Alpha virt. eigenvalues --    0.26845   0.27626   0.29213   0.31571   0.33917
 Alpha virt. eigenvalues --    0.34541   0.36717   0.38445   0.39561   0.40019
 Alpha virt. eigenvalues --    0.41013   0.41296   0.41778   0.41875   0.42065
 Alpha virt. eigenvalues --    0.42895   0.43150   0.43624   0.44100   0.44432
 Alpha virt. eigenvalues --    0.45109   0.46316   0.46869   0.47820   0.48100
 Alpha virt. eigenvalues --    0.49475   0.50183   0.50415   0.50831   0.51428
 Alpha virt. eigenvalues --    0.52656   0.52836   0.53136   0.53710   0.54423
 Alpha virt. eigenvalues --    0.55233   0.55789   0.56091   0.56949   0.57450
 Alpha virt. eigenvalues --    0.57685   0.58159   0.59267   0.59904   0.60352
 Alpha virt. eigenvalues --    0.60858   0.61415   0.61994   0.62787   0.62972
 Alpha virt. eigenvalues --    0.63967   0.64369   0.64629   0.64832   0.65681
 Alpha virt. eigenvalues --    0.66107   0.67083   0.67774   0.68307   0.69274
 Alpha virt. eigenvalues --    0.69523   0.70573   0.70725   0.70910   0.71874
 Alpha virt. eigenvalues --    0.72136   0.72792   0.73103   0.73746   0.74140
 Alpha virt. eigenvalues --    0.74485   0.74936   0.75902   0.76243   0.76441
 Alpha virt. eigenvalues --    0.77162   0.77920   0.78454   0.78943   0.79563
 Alpha virt. eigenvalues --    0.79627   0.80294   0.80892   0.81219   0.81431
 Alpha virt. eigenvalues --    0.81666   0.82272   0.82297   0.82453   0.82925
 Alpha virt. eigenvalues --    0.83170   0.83344   0.84197   0.85002   0.85289
 Alpha virt. eigenvalues --    0.85537   0.86082   0.86424   0.87437   0.87764
 Alpha virt. eigenvalues --    0.87817   0.88720   0.89096   0.89693   0.90632
 Alpha virt. eigenvalues --    0.90812   0.91487   0.91914   0.92705   0.93082
 Alpha virt. eigenvalues --    0.93294   0.94145   0.95719   0.96666   0.97635
 Alpha virt. eigenvalues --    0.98307   0.98801   0.99883   1.00905   1.01644
 Alpha virt. eigenvalues --    1.02782   1.03027   1.04545   1.04644   1.05800
 Alpha virt. eigenvalues --    1.07293   1.08377   1.08469   1.09441   1.09986
 Alpha virt. eigenvalues --    1.10917   1.12088   1.12219   1.15761   1.16990
 Alpha virt. eigenvalues --    1.17853   1.21276   1.21673   1.23520   1.24431
 Alpha virt. eigenvalues --    1.24754   1.26817   1.28312   1.29885   1.31897
 Alpha virt. eigenvalues --    1.32869   1.33651   1.34257   1.36035   1.36343
 Alpha virt. eigenvalues --    1.36820   1.37772   1.38271   1.39273   1.42663
 Alpha virt. eigenvalues --    1.43414   1.44682   1.45893   1.46981   1.47569
 Alpha virt. eigenvalues --    1.48387   1.49799   1.50876   1.52069   1.54435
 Alpha virt. eigenvalues --    1.55716   1.56758   1.57576   1.57846   1.58360
 Alpha virt. eigenvalues --    1.59269   1.59847   1.61090   1.61404   1.63140
 Alpha virt. eigenvalues --    1.64428   1.64875   1.66658   1.67028   1.67543
 Alpha virt. eigenvalues --    1.67885   1.68513   1.69124   1.69594   1.70560
 Alpha virt. eigenvalues --    1.70992   1.72223   1.72479   1.72994   1.74064
 Alpha virt. eigenvalues --    1.74334   1.74775   1.75411   1.78285   1.78790
 Alpha virt. eigenvalues --    1.79308   1.79510   1.79950   1.80297   1.81244
 Alpha virt. eigenvalues --    1.82120   1.82500   1.82750   1.82922   1.84999
 Alpha virt. eigenvalues --    1.85792   1.85976   1.87025   1.87360   1.87715
 Alpha virt. eigenvalues --    1.88490   1.89619   1.90369   1.91219   1.92811
 Alpha virt. eigenvalues --    1.93370   1.93936   1.94234   1.94829   1.95251
 Alpha virt. eigenvalues --    1.96782   1.97484   1.98149   1.99169   1.99879
 Alpha virt. eigenvalues --    2.00056   2.00932   2.02257   2.02905   2.05457
 Alpha virt. eigenvalues --    2.06040   2.06341   2.07106   2.08004   2.09244
 Alpha virt. eigenvalues --    2.10303   2.12248   2.14367   2.14548   2.15415
 Alpha virt. eigenvalues --    2.16256   2.16421   2.17633   2.18116   2.19423
 Alpha virt. eigenvalues --    2.20281   2.21001   2.22030   2.22063   2.23027
 Alpha virt. eigenvalues --    2.23821   2.25271   2.27978   2.29681   2.30114
 Alpha virt. eigenvalues --    2.30832   2.32119   2.32697   2.34114   2.34722
 Alpha virt. eigenvalues --    2.35845   2.36830   2.37402   2.38578   2.39579
 Alpha virt. eigenvalues --    2.40300   2.41744   2.41957   2.42707   2.43576
 Alpha virt. eigenvalues --    2.44512   2.47321   2.47918   2.49830   2.50963
 Alpha virt. eigenvalues --    2.53639   2.54389   2.56764   2.57284   2.58098
 Alpha virt. eigenvalues --    2.59577   2.62060   2.62323   2.64345   2.65769
 Alpha virt. eigenvalues --    2.66947   2.67914   2.68829   2.70604   2.73045
 Alpha virt. eigenvalues --    2.74396   2.76726   2.79565   2.80554   2.81317
 Alpha virt. eigenvalues --    2.84648   2.87018   2.88611   2.89891   2.93436
 Alpha virt. eigenvalues --    3.00021   3.01089   3.06789   3.12788   3.66662
 Alpha virt. eigenvalues --    3.73071   3.79963   3.83977   3.94915   3.95123
 Alpha virt. eigenvalues --    3.99958   4.03616   4.08108   4.10006   4.11854
 Alpha virt. eigenvalues --    4.12354   4.17027   4.17593   4.21640   4.21875
 Alpha virt. eigenvalues --    4.22970   4.25959   4.26887   4.31489   4.33058
 Alpha virt. eigenvalues --    4.36559   4.40981   4.42540   4.46350   4.47304
 Alpha virt. eigenvalues --    4.55844   4.58836   4.63063
          Condensed to atoms (all electrons):
 Mulliken charges:
               1
     1  N   -0.760275
     2  H    0.413591
     3  H    0.424279
     4  H    0.462608
     5  C   -0.263732
     6  H    0.217522
     7  H    0.245517
     8  C    0.587376
     9  O   -0.479630
    10  N   -0.549836
    11  H    0.342859
    12  C   -0.071524
    13  H    0.205696
    14  C    0.662245
    15  C   -0.308291
    16  H    0.146826
    17  H    0.177682
    18  O   -0.622395
    19  C   -0.075638
    20  H    0.134681
    21  C   -0.454184
    22  H    0.139761
    23  H    0.166570
    24  H    0.146551
    25  C   -0.461967
    26  H    0.149198
    27  H    0.152907
    28  H    0.171929
    29  N   -0.588926
    30  H    0.370998
    31  C   -0.052725
    32  H    0.170388
    33  C    0.631834
    34  C   -0.073013
    35  H    0.162163
    36  O   -0.543631
    37  C   -0.466533
    38  H    0.147554
    39  H    0.170548
    40  H    0.167315
    41  C   -0.472143
    42  H    0.128292
    43  H    0.167986
    44  H    0.156217
    45  N   -0.624822
    46  H    0.362709
    47  C   -0.029968
    48  H    0.201809
    49  C    0.590693
    50  C   -0.292019
    51  H    0.175431
    52  H    0.196178
    53  O   -0.470775
    54  C   -0.275869
    55  H    0.148735
    56  H    0.125015
    57  C   -0.256158
    58  H    0.135236
    59  H    0.163532
    60  C   -0.151965
    61  H    0.154703
    62  H    0.099721
    63  N   -0.712007
    64  H    0.305078
    65  H    0.303092
    66  O   -0.555441
    67  H    0.430439
 Sum of Mulliken charges =   1.00000
 Mulliken charges with hydrogens summed into heavy atoms:
               1
     1  N    0.540204
     5  C    0.199308
     8  C    0.587376
     9  O   -0.479630
    10  N   -0.206978
    12  C    0.134172
    14  C    0.662245
    15  C    0.016216
    18  O   -0.622395
    19  C    0.059044
    21  C   -0.001302
    25  C    0.012067
    29  N   -0.217927
    31  C    0.117663
    33  C    0.631834
    34  C    0.089150
    36  O   -0.543631
    37  C    0.018884
    41  C   -0.019647
    45  N   -0.262113
    47  C    0.171841
    49  C    0.590693
    50  C    0.079591
    53  O   -0.470775
    54  C   -0.002119
    57  C    0.042609
    60  C    0.102459
    63  N   -0.103836
    66  O   -0.125002
 Electronic spatial extent (au):  <R**2>=          15790.3079
 Charge=              1.0000 electrons
 Dipole moment (field-independent basis, Debye):
    X=             -3.2538    Y=              9.1268    Z=              8.9228  Tot=             13.1720
 Quadrupole moment (field-independent basis, Debye-Ang):
   XX=           -113.6542   YY=           -153.4578   ZZ=           -120.2326
   XY=            -23.2076   XZ=            -28.4298   YZ=             11.3793
 Traceless Quadrupole moment (field-independent basis, Debye-Ang):
   XX=             15.4607   YY=            -24.3429   ZZ=              8.8823
   XY=            -23.2076   XZ=            -28.4298   YZ=             11.3793
 Octapole moment (field-independent basis, Debye-Ang**2):
  XXX=           -168.2766  YYY=           -344.1144  ZZZ=            660.2223  XYY=           -175.8849
  XXY=            -51.6634  XXZ=             69.9492  XZZ=           -231.4381  YZZ=             -4.3728
  YYZ=            159.1542  XYZ=            -75.4659
 Hexadecapole moment (field-independent basis, Debye-Ang**3):
 XXXX=          -7838.3891 YYYY=          -2286.6030 ZZZZ=          -6866.8063 XXXY=            497.4617
 XXXZ=            399.8441 YYYX=            336.3976 YYYZ=            924.5747 ZZZX=           1025.4349
 ZZZY=           1206.3421 XXYY=          -1969.4657 XXZZ=          -2411.3341 YYZZ=          -1308.5342
 XXYZ=            269.8624 YYXZ=            328.7183 ZZXY=            -50.7711
 N-N= 3.146742569901D+03 E-N=-9.521153631972D+03  KE= 1.383746927440D+03
 Unable to Open any file for archive entry.
 1\1\GINC-VIM-002\SP\RB3LYP\6-31G(d)\C19H38N5O5(1+)\KENGMITH\12-Jul-202
 2\0\\# B3LYP/6-31G* empiricaldispersion=gd3bj guess=read geom=check no
 symm integral(ultrafinegrid)\\Candidate Structure: Conf:428 Charge cal
 c in gas phase\\1,1\N,0,-1.8074818537,1.6496629532,3.807930462\H,0,-1.
 6197956366,2.2476674231,4.6175074455\H,0,-1.7667511706,0.6620082532,4.
 0892148519\H,0,-1.0681746328,1.7642025639,3.0487768786\C,0,-3.15127813
 87,1.9035725061,3.1617588499\H,0,-3.2319096582,2.9721724448,2.95819052
 17\H,0,-3.9393037965,1.5802246966,3.8422993629\C,0,-3.0460074748,1.005
 2697719,1.9215653895\O,0,-2.8797695972,-0.1931482883,2.106022696\N,0,-
 2.8997322206,1.628522473,0.7253582277\H,0,-2.916802579,2.6412834988,0.
 7337569607\C,0,-1.92144895,1.0475643374,-0.1942643238\H,0,-2.265528283
 8,0.0535411616,-0.4861989375\C,0,-0.5835900349,0.9165457507,0.57277277
 55\C,0,-1.7344526104,1.947698381,-1.4226661498\H,0,-1.3935812128,2.933
 9742223,-1.0750639191\H,0,-0.9099382863,1.5384978505,-2.0176071354\O,0
 ,-0.3276194526,1.6365080058,1.5633197644\C,0,-2.9740041773,2.100939022
 2,-2.3209956407\H,0,-3.8102812134,2.4572672647,-1.7024820674\C,0,-2.68
 99650047,3.1570285721,-3.3969440586\H,0,-1.8458947105,2.8519173687,-4.
 0274776884\H,0,-3.5604172228,3.2966900546,-4.0456991862\H,0,-2.4413610
 376,4.1276711132,-2.9526233953\C,0,-3.3829115815,0.7660514675,-2.95473
 1112\H,0,-2.5614663263,0.3517288417,-3.553831029\H,0,-3.6665743672,0.0
 167274332,-2.2074863373\H,0,-4.2419667555,0.901747611,-3.6190449452\N,
 0,0.2704302395,0.030476071,0.0757411278\H,0,0.0440774703,-0.5119195421
 ,-0.7560191444\C,0,1.6412734846,-0.1739748336,0.5366081201\H,0,1.98097
 58487,0.7527718229,1.0083219701\C,0,2.4201826395,-0.4883654215,-0.7527
 745255\C,0,1.7438977833,-1.3488113925,1.5442158252\H,0,1.4290362963,-2
 .2503898744,1.0026176796\O,0,1.8816577662,-1.1838985694,-1.6166868094\
 C,0,3.1923106126,-1.5368639287,2.0131379329\H,0,3.565050905,-0.6332497
 909,2.5128486623\H,0,3.2523875508,-2.3597505451,2.7317247251\H,0,3.867
 7920332,-1.7692630725,1.1854007399\C,0,0.8045522981,-1.150135682,2.740
 9379023\H,0,1.0672975737,-0.2367012405,3.2894951296\H,0,0.8983854225,-
 1.9964329069,3.4289617153\H,0,-0.2428219886,-1.0881753556,2.428979915\
 N,0,3.6556068231,0.0301588653,-0.8420478151\H,0,4.0292693726,0.6172896
 133,-0.1035315495\C,0,4.5497997411,-0.1686910059,-1.977175702\H,0,4.79
 47805041,-1.2342761445,-2.0690573139\C,0,5.828991303,0.5782814697,-1.6
 286717884\C,0,3.9491975956,0.3045705085,-3.3179225419\H,0,4.6867827251
 ,0.1062230144,-4.1018301498\H,0,3.088600335,-0.3369930691,-3.513892305
 9\O,0,5.9740556563,1.2512181784,-0.6285826762\C,0,3.5411115801,1.78282
 44741,-3.3360249847\H,0,4.4372416025,2.4093462143,-3.4244853445\H,0,3.
 0720961558,2.0517778733,-2.3793239067\C,0,2.5668960041,2.0987212939,-4
 .4801391851\H,0,2.5440252003,3.1825626091,-4.6560695811\H,0,2.91147748
 61,1.6386935738,-5.4139573391\C,0,1.1409332619,1.6143105635,-4.1980750
 678\H,0,1.1522901568,0.5494753675,-3.9363496972\H,0,0.7675525406,2.150
 2384437,-3.3024683329\N,0,0.3026979649,1.7676657813,-5.385485753\H,0,-
 0.6172302833,1.3559592042,-5.2490233993\H,0,0.1619296727,2.7515726371,
 -5.6065910888\O,0,6.7731091769,0.4120832668,-2.5648708457\H,0,7.557026
 0251,0.9208840538,-2.2820399581\\Version=ES64L-G16RevC.01\HF=-1396.769
 6865\RMSD=8.973e-10\Dipole=-2.7170282,2.1444834,4.8507423\Quadrupole=1
 1.4946471,-18.0983838,6.6037367,-17.2543019,-21.1368423,8.4602244\PG=C
 01 [X(C19H38N5O5)]\\@
 The archive entry for this job was punched.


 GETTING A SIMPLE ANSWER FROM A PROFESSOR IS LIKE
 GETTING A THIMBLE OF WATER FROM A FIRE HYDRANT.
     -- PROF. LEN SHAPIRO, NDSU
 Job cpu time:       0 days  0 hours  3 minutes 22.7 seconds.
 Elapsed time:       0 days  0 hours  0 minutes 51.2 seconds.
 File lengths (MBytes):  RWF=    256 Int=      0 D2E=      0 Chk=     40 Scr=     16
 Normal termination of Gaussian 16 at Tue Jul 12 17:43:15 2022.
