 Entering Gaussian System, Link 0=/opt/software/Gaussian/g16-AVX2-C.01/g16/g16
 Input=charge-conf-420.com
 Output=charge-conf-420.log
 Initial command:
 /opt/software/Gaussian/g16-AVX2-C.01/g16/l1.exe "/mnt/gs18/scratch/users/kengmith/Gau-225847.inp" -scrdir="/mnt/gs18/scratch/users/kengmith/"
 Entering Link 1 = /opt/software/Gaussian/g16-AVX2-C.01/g16/l1.exe PID=    225857.
  
 Copyright (c) 1988-2019, Gaussian, Inc.  All Rights Reserved.
  
 This is part of the Gaussian(R) 16 program.  It is based on
 the Gaussian(R) 09 system (copyright 2009, Gaussian, Inc.),
 the Gaussian(R) 03 system (copyright 2003, Gaussian, Inc.),
 the Gaussian(R) 98 system (copyright 1998, Gaussian, Inc.),
 the Gaussian(R) 94 system (copyright 1995, Gaussian, Inc.),
 the Gaussian 92(TM) system (copyright 1992, Gaussian, Inc.),
 the Gaussian 90(TM) system (copyright 1990, Gaussian, Inc.),
 the Gaussian 88(TM) system (copyright 1988, Gaussian, Inc.),
 the Gaussian 86(TM) system (copyright 1986, Carnegie Mellon
 University), and the Gaussian 82(TM) system (copyright 1983,
 Carnegie Mellon University). Gaussian is a federally registered
 trademark of Gaussian, Inc.
  
 This software contains proprietary and confidential information,
 including trade secrets, belonging to Gaussian, Inc.
  
 This software is provided under written license and may be
 used, copied, transmitted, or stored only in accord with that
 written license.
  
 The following legend is applicable only to US Government
 contracts under FAR:
  
                    RESTRICTED RIGHTS LEGEND
  
 Use, reproduction and disclosure by the US Government is
 subject to restrictions as set forth in subparagraphs (a)
 and (c) of the Commercial Computer Software - Restricted
 Rights clause in FAR 52.227-19.
  
 Gaussian, Inc.
 340 Quinnipiac St., Bldg. 40, Wallingford CT 06492
  
  
 ---------------------------------------------------------------
 Warning -- This program may not be used in any manner that
 competes with the business of Gaussian, Inc. or will provide
 assistance to any competitor of Gaussian, Inc.  The licensee
 of this program is prohibited from giving any competitor of
 Gaussian, Inc. access to this program.  By using this program,
 the user acknowledges that Gaussian, Inc. is engaged in the
 business of creating and licensing software in the field of
 computational chemistry and represents and warrants to the
 licensee that it is not a competitor of Gaussian, Inc. and that
 it will not use this program in any manner prohibited above.
 ---------------------------------------------------------------
  

 Cite this work as:
 Gaussian 16, Revision C.01,
 M. J. Frisch, G. W. Trucks, H. B. Schlegel, G. E. Scuseria, 
 M. A. Robb, J. R. Cheeseman, G. Scalmani, V. Barone, 
 G. A. Petersson, H. Nakatsuji, X. Li, M. Caricato, A. V. Marenich, 
 J. Bloino, B. G. Janesko, R. Gomperts, B. Mennucci, H. P. Hratchian, 
 J. V. Ortiz, A. F. Izmaylov, J. L. Sonnenberg, D. Williams-Young, 
 F. Ding, F. Lipparini, F. Egidi, J. Goings, B. Peng, A. Petrone, 
 T. Henderson, D. Ranasinghe, V. G. Zakrzewski, J. Gao, N. Rega, 
 G. Zheng, W. Liang, M. Hada, M. Ehara, K. Toyota, R. Fukuda, 
 J. Hasegawa, M. Ishida, T. Nakajima, Y. Honda, O. Kitao, H. Nakai, 
 T. Vreven, K. Throssell, J. A. Montgomery, Jr., J. E. Peralta, 
 F. Ogliaro, M. J. Bearpark, J. J. Heyd, E. N. Brothers, K. N. Kudin, 
 V. N. Staroverov, T. A. Keith, R. Kobayashi, J. Normand, 
 K. Raghavachari, A. P. Rendell, J. C. Burant, S. S. Iyengar, 
 J. Tomasi, M. Cossi, J. M. Millam, M. Klene, C. Adamo, R. Cammi, 
 J. W. Ochterski, R. L. Martin, K. Morokuma, O. Farkas, 
 J. B. Foresman, and D. J. Fox, Gaussian, Inc., Wallingford CT, 2019.
 
 ******************************************
 Gaussian 16:  ES64L-G16RevC.01  3-Jul-2019
                 6-Jun-2022 
 ******************************************
 %mem=8gb
 %nproc=4
 Will use up to    4 processors via shared memory.
 %chk=conf-420.chk
 ----------------------------------------------------------------------
 # B3LYP/6-31G* empiricaldispersion=gd3 guess=read geom=check nosymm in
 tegral(ultrafinegrid)
 ----------------------------------------------------------------------
 1/29=2,38=1,172=1/1;
 2/12=2,15=1,40=1/2;
 3/5=1,6=6,7=1,11=2,14=-4,25=1,30=1,74=-5,75=-5,116=-2,124=31/1,2,3;
 4/5=1/1;
 5/5=2,38=6/2;
 6/7=2,8=2,9=2,10=2,28=1/1;
 99/5=1,9=1/99;
 ------------------------------------------------------
 Candidate Structure: Conf:420 Charge calc in gas phase
 ------------------------------------------------------
 Structure from the checkpoint file:  "conf-420.chk"
 Charge =  1 Multiplicity = 1
 Redundant internal coordinates found in file.  (old form).
 N,0,-5.8324459691,0.0351810825,-2.2421696216
 H,0,-6.7384146736,-0.393313962,-2.4477974994
 H,0,-5.4355284043,0.4016986745,-3.1110122003
 H,0,-5.9599886057,0.8220509787,-1.5277662157
 C,0,-4.8835010763,-0.8817512112,-1.497853796
 H,0,-5.3055124588,-1.8867818663,-1.4561664272
 C,0,-4.8270716463,-0.224727509,-0.0870343625
 C,0,-3.5100964105,-0.9330191637,-2.1970915964
 H,0,-3.6524542268,-1.2966762515,-3.2238292032
 H,0,-3.0425618373,0.0533745741,-2.2244418998
 O,0,-5.3828556856,0.8705292051,0.0599729147
 C,0,-2.6182255596,-1.9498130927,-1.4650504298
 N,0,-1.3072942337,-1.7175237645,-1.4323516658
 H,0,-0.7587504758,-2.3546062093,-0.8269478425
 H,0,-0.9104812234,-0.8097913341,-1.6771415564
 O,0,-3.1699144664,-2.933806798,-0.9321247615
 N,0,-4.1461082089,-0.8959920763,0.8520591017
 H,0,-3.7648551739,-1.7879194928,0.5366906127
 C,0,-3.3473093241,-0.1920897051,1.8609703454
 H,0,-4.0088053849,0.2572669157,2.610946021
 C,0,-2.5867720422,0.945852671,1.1232536547
 C,0,-2.4279220858,-1.2510271578,2.5400809207
 H,0,-1.9219648719,-1.7903221923,1.7246361878
 O,0,-2.5099920679,0.9457322299,-0.1116826162
 C,0,-3.3030422022,-2.245285914,3.3405854166
 H,0,-4.2132123233,-2.4784520837,2.7753267433
 H,0,-3.6384923942,-1.744777482,4.2597208816
 C,0,-1.3358848588,-0.6353681486,3.4246048366
 H,0,-1.7671348839,-0.0062486599,4.215184999
 H,0,-0.7685537027,-1.4260929687,3.9220961475
 H,0,-0.6225821616,-0.0422153603,2.8473818509
 C,0,-2.5996460798,-3.5604627593,3.6905602668
 H,0,-3.263181902,-4.2076321993,4.273028885
 H,0,-2.317159078,-4.1087954786,2.7841747198
 H,0,-1.6925534524,-3.4042990539,4.2834465319
 N,0,-2.0548355783,1.9276676438,1.8702792428
 H,0,-2.1243279446,1.8790176823,2.8779632795
 C,0,-1.432163257,3.1365944941,1.2958244861
 H,0,-2.0502077458,3.4137689863,0.4331714272
 C,0,0.0092949342,2.8782655629,0.7679747408
 C,0,-1.4357086242,4.2504752519,2.3355504403
 H,0,-1.0075431969,5.1579089417,1.9061787751
 H,0,-2.456462611,4.4602968288,2.6705612538
 H,0,-0.8130287657,3.9807539949,3.1946241036
 O,0,0.9701671418,3.5106304101,1.1890256197
 N,0,0.080820683,1.9359234009,-0.2056026533
 H,0,-0.7760447451,1.4929887689,-0.5267328596
 C,0,1.3016633687,1.623530754,-0.9152167108
 H,0,1.9504069245,2.5059702752,-0.8827303378
 C,0,0.9166636242,1.2798492151,-2.3564095279
 C,0,2.0823210938,0.4227348585,-0.2963224127
 H,0,3.028527777,0.3378930782,-0.8496507564
 O,0,-0.1787224604,0.7480300402,-2.6306723049
 C,0,2.3695833319,0.628596015,1.1843429523
 H,0,2.8593754691,1.5873925235,1.3721924733
 H,0,3.0012347027,-0.1876093369,1.5472815408
 H,0,1.4307322629,0.6116420201,1.7461689901
 O,0,1.3335554398,-0.7793748848,-0.4554724459
 H,0,1.7252508572,-1.2337155926,-1.2290914727
 N,0,1.8296665942,1.5501435784,-3.3011593974
 H,0,2.7555853947,1.8890655013,-3.0576296355
 C,0,1.653065213,1.2354629286,-4.7200742298
 H,0,0.6065241201,1.4252889517,-4.9812398683
 C,0,1.9912175487,-0.2500245741,-4.9654155541
 C,0,2.5999556928,2.1382341501,-5.5234366283
 H,0,2.2914883143,3.1817890425,-5.4113957765
 H,0,2.541355211,1.8675587299,-6.5856796511
 O,0,3.0357982884,-0.601777998,-5.5081632306
 O,0,3.9207500427,2.0415486944,-5.0175629692
 H,0,4.2105134389,1.1353068882,-5.2343851421
 N,0,1.052956334,-1.135241255,-4.5221942318
 H,0,0.3478810583,-0.7553340607,-3.8950265621
 C,0,1.444829518,-2.5153445216,-4.3505431263
 H,0,0.5673653012,-3.0946179516,-4.044591
 H,0,1.8075645155,-2.917770836,-5.3010308005
 C,0,2.5426735965,-2.654259284,-3.2751869147
 O,0,2.8297909119,-1.709894096,-2.5298948662
 N,0,3.1168400701,-3.8646590866,-3.1925442322
 H,0,2.8414082114,-4.6088457515,-3.8262939493
 C,0,4.1094815692,-4.2458742872,-2.1901527547
 H,0,5.050060133,-3.7151194802,-2.3860268036
 C,0,4.3712745693,-5.7333322308,-2.3996772673
 C,0,3.6833302461,-3.9393056459,-0.7324728086
 H,0,4.4585665045,-4.3380375417,-0.0701662581
 H,0,3.6816832287,-2.8534118505,-0.6205029658
 O,0,3.7704380784,-6.4328824938,-3.1884892081
 C,0,2.3053927702,-4.4904422325,-0.353418344
 H,0,1.6009356146,-4.2513691436,-1.1595817073
 H,0,2.3373660143,-5.5875818815,-0.2804539086
 C,0,1.7850898874,-3.8775936769,0.9526249636
 H,0,1.7841193648,-2.7861083729,0.8501090283
 H,0,2.4589677225,-4.1352969684,1.7808350448
 C,0,0.3650705157,-4.3230441372,1.3114429515
 H,0,0.3516289575,-5.3980140295,1.5552489131
 H,0,0.0429855692,-3.789429997,2.212197339
 N,0,-0.5806574718,-3.982746474,0.2302701218
 H,0,-1.5493265537,-4.0376399902,0.5408995668
 H,0,-0.5130678427,-4.6683237066,-0.5208561145
 O,0,5.3500486034,-6.1780685566,-1.5957285135
 H,0,5.4698242139,-7.1293452215,-1.7800706656
 Recover connectivity data from disk.
                           ----------------------------
                           !    Current Parameters    !
                           ! (Angstroms and Degrees)  !
 --------------------------                            --------------------------
 ! Name  Definition              Value                                          !
 --------------------------------------------------------------------------------
 ! R1    R(1,2)                  1.0231                                         !
 ! R2    R(1,3)                  1.0231                                         !
 ! R3    R(1,4)                  1.0704                                         !
 ! R4    R(1,5)                  1.515                                          !
 ! R5    R(5,6)                  1.0908                                         !
 ! R6    R(5,7)                  1.5573                                         !
 ! R7    R(5,8)                  1.542                                          !
 ! R8    R(7,11)                 1.237                                          !
 ! R9    R(7,17)                 1.3402                                         !
 ! R10   R(8,9)                  1.0985                                         !
 ! R11   R(8,10)                 1.0919                                         !
 ! R12   R(8,12)                 1.5379                                         !
 ! R13   R(12,13)                1.3318                                         !
 ! R14   R(12,16)                1.2476                                         !
 ! R15   R(13,14)                1.036                                          !
 ! R16   R(13,15)                1.0205                                         !
 ! R17   R(17,18)                1.02                                           !
 ! R18   R(17,19)                1.4668                                         !
 ! R19   R(19,20)                1.0963                                         !
 ! R20   R(19,21)                1.5548                                         !
 ! R21   R(19,22)                1.5581                                         !
 ! R22   R(21,24)                1.2373                                         !
 ! R23   R(21,36)                1.3435                                         !
 ! R24   R(22,23)                1.1008                                         !
 ! R25   R(22,25)                1.5476                                         !
 ! R26   R(22,28)                1.5343                                         !
 ! R27   R(25,26)                1.0965                                         !
 ! R28   R(25,27)                1.099                                          !
 ! R29   R(25,32)                1.532                                          !
 ! R30   R(28,29)                1.0985                                         !
 ! R31   R(28,30)                1.093                                          !
 ! R32   R(28,31)                1.0926                                         !
 ! R33   R(32,33)                1.0947                                         !
 ! R34   R(32,34)                1.0964                                         !
 ! R35   R(32,35)                1.0949                                         !
 ! R36   R(36,37)                1.0112                                         !
 ! R37   R(36,38)                1.4762                                         !
 ! R38   R(38,39)                1.0968                                         !
 ! R39   R(38,40)                1.5567                                         !
 ! R40   R(38,41)                1.5237                                         !
 ! R41   R(40,45)                1.2249                                         !
 ! R42   R(40,46)                1.3568                                         !
 ! R43   R(41,42)                1.0914                                         !
 ! R44   R(41,43)                1.0946                                         !
 ! R45   R(41,44)                1.0948                                         !
 ! R46   R(46,47)                1.0166                                         !
 ! R47   R(46,48)                1.4462                                         !
 ! R48   R(48,49)                1.0957                                         !
 ! R49   R(48,50)                1.5308                                         !
 ! R50   R(48,51)                1.5602                                         !
 ! R51   R(50,53)                1.2482                                         !
 ! R52   R(50,60)                1.3413                                         !
 ! R53   R(51,52)                1.0994                                         !
 ! R54   R(51,54)                1.5223                                         !
 ! R55   R(51,58)                1.4251                                         !
 ! R56   R(54,55)                1.0929                                         !
 ! R57   R(54,56)                1.094                                          !
 ! R58   R(54,57)                1.0942                                         !
 ! R59   R(58,59)                0.9789                                         !
 ! R60   R(60,61)                1.0156                                         !
 ! R61   R(60,62)                1.4641                                         !
 ! R62   R(62,63)                1.0952                                         !
 ! R63   R(62,64)                1.5431                                         !
 ! R64   R(62,65)                1.5352                                         !
 ! R65   R(64,68)                1.2286                                         !
 ! R66   R(64,71)                1.364                                          !
 ! R67   R(65,66)                1.0939                                         !
 ! R68   R(65,67)                1.0978                                         !
 ! R69   R(65,69)                1.4177                                         !
 ! R70   R(69,70)                0.9758                                         !
 ! R71   R(71,72)                1.0173                                         !
 ! R72   R(71,73)                1.4449                                         !
 ! R73   R(73,74)                1.095                                          !
 ! R74   R(73,75)                1.0941                                         !
 ! R75   R(73,76)                1.543                                          !
 ! R76   R(76,77)                1.2368                                         !
 ! R77   R(76,78)                1.3422                                         !
 ! R78   R(78,79)                1.0155                                         !
 ! R79   R(78,80)                1.4613                                         !
 ! R80   R(80,81)                1.0976                                         !
 ! R81   R(80,82)                1.5248                                         !
 ! R82   R(80,83)                1.5493                                         !
 ! R83   R(82,86)                1.2135                                         !
 ! R84   R(82,99)                1.3424                                         !
 ! R85   R(83,84)                1.0948                                         !
 ! R86   R(83,85)                1.0917                                         !
 ! R87   R(83,87)                1.5317                                         !
 ! R88   R(87,88)                1.097                                          !
 ! R89   R(87,89)                1.1                                            !
 ! R90   R(87,90)                1.5336                                         !
 ! R91   R(90,91)                1.0963                                         !
 ! R92   R(90,92)                1.0984                                         !
 ! R93   R(90,93)                1.5309                                         !
 ! R94   R(93,94)                1.1024                                         !
 ! R95   R(93,95)                1.0954                                         !
 ! R96   R(93,96)                1.4762                                         !
 ! R97   R(96,97)                1.0187                                         !
 ! R98   R(96,98)                1.0192                                         !
 ! R99   R(99,100)               0.9763                                         !
 ! A1    A(2,1,3)              108.8385                                         !
 ! A2    A(2,1,4)              109.6646                                         !
 ! A3    A(2,1,5)              113.5733                                         !
 ! A4    A(3,1,4)              110.466                                          !
 ! A5    A(3,1,5)              113.0187                                         !
 ! A6    A(4,1,5)              101.0489                                         !
 ! A7    A(1,5,6)              109.5165                                         !
 ! A8    A(1,5,7)              102.2647                                         !
 ! A9    A(1,5,8)              110.8066                                         !
 ! A10   A(6,5,7)              111.5987                                         !
 ! A11   A(6,5,8)              109.3456                                         !
 ! A12   A(7,5,8)              113.1134                                         !
 ! A13   A(5,7,11)             117.7064                                         !
 ! A14   A(5,7,17)             116.2239                                         !
 ! A15   A(11,7,17)            126.0505                                         !
 ! A16   A(5,8,9)              108.6277                                         !
 ! A17   A(5,8,10)             111.2648                                         !
 ! A18   A(5,8,12)             108.8232                                         !
 ! A19   A(9,8,10)             109.3374                                         !
 ! A20   A(9,8,12)             107.5285                                         !
 ! A21   A(10,8,12)            111.1534                                         !
 ! A22   A(8,12,13)            117.8541                                         !
 ! A23   A(8,12,16)            117.9256                                         !
 ! A24   A(13,12,16)           124.2183                                         !
 ! A25   A(12,13,14)           115.3592                                         !
 ! A26   A(12,13,15)           122.1432                                         !
 ! A27   A(14,13,15)           118.7701                                         !
 ! A28   A(7,17,18)            114.2835                                         !
 ! A29   A(7,17,19)            121.2191                                         !
 ! A30   A(18,17,19)           115.3891                                         !
 ! A31   A(17,19,20)           109.7938                                         !
 ! A32   A(17,19,21)           106.9326                                         !
 ! A33   A(17,19,22)           107.1567                                         !
 ! A34   A(20,19,21)           108.6464                                         !
 ! A35   A(20,19,22)           109.659                                          !
 ! A36   A(21,19,22)           114.5547                                         !
 ! A37   A(19,21,24)           120.2537                                         !
 ! A38   A(19,21,36)           117.6905                                         !
 ! A39   A(24,21,36)           122.0368                                         !
 ! A40   A(19,22,23)           106.3372                                         !
 ! A41   A(19,22,25)           109.1716                                         !
 ! A42   A(19,22,28)           113.4869                                         !
 ! A43   A(23,22,25)           109.1667                                         !
 ! A44   A(23,22,28)           107.2479                                         !
 ! A45   A(25,22,28)           111.2272                                         !
 ! A46   A(22,25,26)           109.8364                                         !
 ! A47   A(22,25,27)           108.2159                                         !
 ! A48   A(22,25,32)           114.2085                                         !
 ! A49   A(26,25,27)           105.9393                                         !
 ! A50   A(26,25,32)           108.4416                                         !
 ! A51   A(27,25,32)           109.8801                                         !
 ! A52   A(22,28,29)           111.4252                                         !
 ! A53   A(22,28,30)           109.9721                                         !
 ! A54   A(22,28,31)           112.2061                                         !
 ! A55   A(29,28,30)           106.8888                                         !
 ! A56   A(29,28,31)           109.0007                                         !
 ! A57   A(30,28,31)           107.118                                          !
 ! A58   A(25,32,33)           110.5345                                         !
 ! A59   A(25,32,34)           111.0267                                         !
 ! A60   A(25,32,35)           112.4366                                         !
 ! A61   A(33,32,34)           107.4807                                         !
 ! A62   A(33,32,35)           107.3599                                         !
 ! A63   A(34,32,35)           107.7913                                         !
 ! A64   A(21,36,37)           119.4529                                         !
 ! A65   A(21,36,38)           123.3056                                         !
 ! A66   A(37,36,38)           117.1391                                         !
 ! A67   A(36,38,39)           105.9819                                         !
 ! A68   A(36,38,40)           112.7456                                         !
 ! A69   A(36,38,41)           109.399                                          !
 ! A70   A(39,38,40)           107.2795                                         !
 ! A71   A(39,38,41)           110.5261                                         !
 ! A72   A(40,38,41)           110.7842                                         !
 ! A73   A(38,40,45)           121.6113                                         !
 ! A74   A(38,40,46)           114.0406                                         !
 ! A75   A(45,40,46)           124.3215                                         !
 ! A76   A(38,41,42)           109.7821                                         !
 ! A77   A(38,41,43)           110.5564                                         !
 ! A78   A(38,41,44)           110.7337                                         !
 ! A79   A(42,41,43)           109.0789                                         !
 ! A80   A(42,41,44)           106.8837                                         !
 ! A81   A(43,41,44)           109.7224                                         !
 ! A82   A(40,46,47)           119.0006                                         !
 ! A83   A(40,46,48)           123.1333                                         !
 ! A84   A(47,46,48)           117.5416                                         !
 ! A85   A(46,48,49)           108.1369                                         !
 ! A86   A(46,48,50)           107.3452                                         !
 ! A87   A(46,48,51)           113.2022                                         !
 ! A88   A(49,48,50)           110.9544                                         !
 ! A89   A(49,48,51)           108.1685                                         !
 ! A90   A(50,48,51)           109.056                                          !
 ! A91   A(48,50,53)           121.5501                                         !
 ! A92   A(48,50,60)           116.5304                                         !
 ! A93   A(53,50,60)           121.9004                                         !
 ! A94   A(48,51,52)           106.8804                                         !
 ! A95   A(48,51,54)           112.0964                                         !
 ! A96   A(48,51,58)           109.9987                                         !
 ! A97   A(52,51,54)           109.729                                          !
 ! A98   A(52,51,58)           109.3226                                         !
 ! A99   A(54,51,58)           108.7741                                         !
 ! A100  A(51,54,55)           111.7397                                         !
 ! A101  A(51,54,56)           109.3138                                         !
 ! A102  A(51,54,57)           109.597                                          !
 ! A103  A(55,54,56)           109.7997                                         !
 ! A104  A(55,54,57)           108.0503                                         !
 ! A105  A(56,54,57)           108.2691                                         !
 ! A106  A(51,58,59)           105.6349                                         !
 ! A107  A(50,60,61)           121.2587                                         !
 ! A108  A(50,60,62)           123.8617                                         !
 ! A109  A(61,60,62)           114.4613                                         !
 ! A110  A(60,62,63)           108.0058                                         !
 ! A111  A(60,62,64)           109.5458                                         !
 ! A112  A(60,62,65)           107.8395                                         !
 ! A113  A(63,62,64)           109.7755                                         !
 ! A114  A(63,62,65)           111.2635                                         !
 ! A115  A(64,62,65)           110.3477                                         !
 ! A116  A(62,64,68)           122.1516                                         !
 ! A117  A(62,64,71)           114.9837                                         !
 ! A118  A(68,64,71)           122.8609                                         !
 ! A119  A(62,65,66)           109.4774                                         !
 ! A120  A(62,65,67)           109.1739                                         !
 ! A121  A(62,65,69)           110.3526                                         !
 ! A122  A(66,65,67)           108.6187                                         !
 ! A123  A(66,65,69)           106.9312                                         !
 ! A124  A(67,65,69)           112.2231                                         !
 ! A125  A(65,69,70)           105.1117                                         !
 ! A126  A(64,71,72)           115.7697                                         !
 ! A127  A(64,71,73)           118.1604                                         !
 ! A128  A(72,71,73)           118.129                                          !
 ! A129  A(71,73,74)           108.7322                                         !
 ! A130  A(71,73,75)           109.7581                                         !
 ! A131  A(71,73,76)           111.2075                                         !
 ! A132  A(74,73,75)           108.2901                                         !
 ! A133  A(74,73,76)           109.134                                          !
 ! A134  A(75,73,76)           109.6608                                         !
 ! A135  A(73,76,77)           121.0894                                         !
 ! A136  A(73,76,78)           115.3691                                         !
 ! A137  A(77,76,78)           123.5145                                         !
 ! A138  A(76,78,79)           120.4235                                         !
 ! A139  A(76,78,80)           124.6151                                         !
 ! A140  A(79,78,80)           114.9063                                         !
 ! A141  A(78,80,81)           109.4837                                         !
 ! A142  A(78,80,82)           106.0725                                         !
 ! A143  A(78,80,83)           114.0112                                         !
 ! A144  A(81,80,82)           107.4616                                         !
 ! A145  A(81,80,83)           107.9339                                         !
 ! A146  A(82,80,83)           111.6871                                         !
 ! A147  A(80,82,86)           124.5184                                         !
 ! A148  A(80,82,99)           111.4735                                         !
 ! A149  A(86,82,99)           124.0076                                         !
 ! A150  A(80,83,84)           107.5977                                         !
 ! A151  A(80,83,85)           107.0823                                         !
 ! A152  A(80,83,87)           114.1468                                         !
 ! A153  A(84,83,85)           107.5355                                         !
 ! A154  A(84,83,87)           110.8704                                         !
 ! A155  A(85,83,87)           109.3403                                         !
 ! A156  A(83,87,88)           108.5077                                         !
 ! A157  A(83,87,89)           110.4347                                         !
 ! A158  A(83,87,90)           111.849                                          !
 ! A159  A(88,87,89)           106.5458                                         !
 ! A160  A(88,87,90)           108.7165                                         !
 ! A161  A(89,87,90)           110.6054                                         !
 ! A162  A(87,90,91)           108.5734                                         !
 ! A163  A(87,90,92)           109.8908                                         !
 ! A164  A(87,90,93)           113.4543                                         !
 ! A165  A(91,90,92)           107.7368                                         !
 ! A166  A(91,90,93)           108.1072                                         !
 ! A167  A(92,90,93)           108.91                                           !
 ! A168  A(90,93,94)           110.2975                                         !
 ! A169  A(90,93,95)           108.8891                                         !
 ! A170  A(90,93,96)           110.8249                                         !
 ! A171  A(94,93,95)           106.8336                                         !
 ! A172  A(94,93,96)           112.27                                           !
 ! A173  A(95,93,96)           107.5537                                         !
 ! A174  A(93,96,97)           111.9269                                         !
 ! A175  A(93,96,98)           110.0119                                         !
 ! A176  A(97,96,98)           104.5679                                         !
 ! A177  A(82,99,100)          107.407                                          !
 ! D1    D(2,1,5,6)              8.4988                                         !
 ! D2    D(2,1,5,7)           -109.9723                                         !
 ! D3    D(2,1,5,8)            129.207                                          !
 ! D4    D(3,1,5,6)           -116.1233                                         !
 ! D5    D(3,1,5,7)            125.4056                                         !
 ! D6    D(3,1,5,8)              4.5849                                         !
 ! D7    D(4,1,5,6)            125.84                                           !
 ! D8    D(4,1,5,7)              7.3689                                         !
 ! D9    D(4,1,5,8)           -113.4518                                         !
 ! D10   D(1,5,7,11)            -7.5164                                         !
 ! D11   D(1,5,7,17)           173.9809                                         !
 ! D12   D(6,5,7,11)          -124.5019                                         !
 ! D13   D(6,5,7,17)            56.9955                                         !
 ! D14   D(8,5,7,11)           111.6941                                         !
 ! D15   D(8,5,7,17)           -66.8085                                         !
 ! D16   D(1,5,8,9)            -59.2079                                         !
 ! D17   D(1,5,8,10)            61.1997                                         !
 ! D18   D(1,5,8,12)          -175.9959                                         !
 ! D19   D(6,5,8,9)             61.6016                                         !
 ! D20   D(6,5,8,10)          -177.9908                                         !
 ! D21   D(6,5,8,12)           -55.1864                                         !
 ! D22   D(7,5,8,9)           -173.3667                                         !
 ! D23   D(7,5,8,10)           -52.9591                                         !
 ! D24   D(7,5,8,12)            69.8453                                         !
 ! D25   D(5,7,17,18)           -1.9846                                         !
 ! D26   D(5,7,17,19)          143.4495                                         !
 ! D27   D(11,7,17,18)         179.6551                                         !
 ! D28   D(11,7,17,19)         -34.9108                                         !
 ! D29   D(5,8,12,13)         -147.9169                                         !
 ! D30   D(5,8,12,16)           31.5858                                         !
 ! D31   D(9,8,12,13)           94.595                                          !
 ! D32   D(9,8,12,16)          -85.9023                                         !
 ! D33   D(10,8,12,13)         -25.0455                                         !
 ! D34   D(10,8,12,16)         154.4572                                         !
 ! D35   D(8,12,13,14)         172.268                                          !
 ! D36   D(8,12,13,15)          14.3187                                         !
 ! D37   D(16,12,13,14)         -7.2007                                         !
 ! D38   D(16,12,13,15)       -165.15                                           !
 ! D39   D(7,17,19,20)          75.0159                                         !
 ! D40   D(7,17,19,21)         -42.6796                                         !
 ! D41   D(7,17,19,22)        -165.9515                                         !
 ! D42   D(18,17,19,20)       -139.905                                          !
 ! D43   D(18,17,19,21)        102.3996                                         !
 ! D44   D(18,17,19,22)        -20.8723                                         !
 ! D45   D(17,19,21,24)        -14.6461                                         !
 ! D46   D(17,19,21,36)        163.7998                                         !
 ! D47   D(20,19,21,24)       -133.0917                                         !
 ! D48   D(20,19,21,36)         45.3542                                         !
 ! D49   D(22,19,21,24)        103.9157                                         !
 ! D50   D(22,19,21,36)        -77.6384                                         !
 ! D51   D(17,19,22,23)         50.9787                                         !
 ! D52   D(17,19,22,25)        -66.6756                                         !
 ! D53   D(17,19,22,28)        168.6415                                         !
 ! D54   D(20,19,22,23)        170.0982                                         !
 ! D55   D(20,19,22,25)         52.444                                          !
 ! D56   D(20,19,22,28)        -72.2389                                         !
 ! D57   D(21,19,22,23)        -67.4566                                         !
 ! D58   D(21,19,22,25)        174.8891                                         !
 ! D59   D(21,19,22,28)         50.2062                                         !
 ! D60   D(19,21,36,37)          2.8085                                         !
 ! D61   D(19,21,36,38)       -173.4036                                         !
 ! D62   D(24,21,36,37)       -178.7751                                         !
 ! D63   D(24,21,36,38)          5.0128                                         !
 ! D64   D(19,22,25,26)         39.9232                                         !
 ! D65   D(19,22,25,27)        -75.2946                                         !
 ! D66   D(19,22,25,32)        161.9897                                         !
 ! D67   D(23,22,25,26)        -75.9341                                         !
 ! D68   D(23,22,25,27)        168.8481                                         !
 ! D69   D(23,22,25,32)         46.1324                                         !
 ! D70   D(28,22,25,26)        165.917                                          !
 ! D71   D(28,22,25,27)         50.6992                                         !
 ! D72   D(28,22,25,32)        -72.0164                                         !
 ! D73   D(19,22,28,29)         57.9739                                         !
 ! D74   D(19,22,28,30)        176.3109                                         !
 ! D75   D(19,22,28,31)        -64.5706                                         !
 ! D76   D(23,22,28,29)        175.1065                                         !
 ! D77   D(23,22,28,30)        -66.5565                                         !
 ! D78   D(23,22,28,31)         52.562                                          !
 ! D79   D(25,22,28,29)        -65.593                                          !
 ! D80   D(25,22,28,30)         52.744                                          !
 ! D81   D(25,22,28,31)        171.8626                                         !
 ! D82   D(22,25,32,33)        178.7737                                         !
 ! D83   D(22,25,32,34)        -62.0412                                         !
 ! D84   D(22,25,32,35)         58.8148                                         !
 ! D85   D(26,25,32,33)        -58.3983                                         !
 ! D86   D(26,25,32,34)         60.7867                                         !
 ! D87   D(26,25,32,35)       -178.3573                                         !
 ! D88   D(27,25,32,33)         56.9684                                         !
 ! D89   D(27,25,32,34)        176.1534                                         !
 ! D90   D(27,25,32,35)        -62.9905                                         !
 ! D91   D(21,36,38,39)         38.7104                                         !
 ! D92   D(21,36,38,40)        -78.3613                                         !
 ! D93   D(21,36,38,41)        157.8892                                         !
 ! D94   D(37,36,38,39)       -137.5833                                         !
 ! D95   D(37,36,38,40)        105.3451                                         !
 ! D96   D(37,36,38,41)        -18.4044                                         !
 ! D97   D(36,38,40,45)       -122.0889                                         !
 ! D98   D(36,38,40,46)         59.7088                                         !
 ! D99   D(39,38,40,45)        121.6106                                         !
 ! D100  D(39,38,40,46)        -56.5917                                         !
 ! D101  D(41,38,40,45)          0.8911                                         !
 ! D102  D(41,38,40,46)       -177.3111                                         !
 ! D103  D(36,38,41,42)       -178.0769                                         !
 ! D104  D(36,38,41,43)        -57.6877                                         !
 ! D105  D(36,38,41,44)         64.1373                                         !
 ! D106  D(39,38,41,42)        -61.7471                                         !
 ! D107  D(39,38,41,43)         58.642                                          !
 ! D108  D(39,38,41,44)       -179.5329                                         !
 ! D109  D(40,38,41,42)         57.0266                                         !
 ! D110  D(40,38,41,43)        177.4157                                         !
 ! D111  D(40,38,41,44)        -60.7592                                         !
 ! D112  D(38,40,46,47)          1.2063                                         !
 ! D113  D(38,40,46,48)        174.4985                                         !
 ! D114  D(45,40,46,47)       -176.9399                                         !
 ! D115  D(45,40,46,48)         -3.6478                                         !
 ! D116  D(40,46,48,49)        -25.2878                                         !
 ! D117  D(40,46,48,50)       -145.0604                                         !
 ! D118  D(40,46,48,51)         94.5401                                         !
 ! D119  D(47,46,48,49)        148.096                                          !
 ! D120  D(47,46,48,50)         28.3234                                         !
 ! D121  D(47,46,48,51)        -92.0761                                         !
 ! D122  D(46,48,50,53)        -31.038                                          !
 ! D123  D(46,48,50,60)        150.5258                                         !
 ! D124  D(49,48,50,53)       -148.9958                                         !
 ! D125  D(49,48,50,60)         32.568                                          !
 ! D126  D(51,48,50,53)         91.9568                                         !
 ! D127  D(51,48,50,60)        -86.4794                                         !
 ! D128  D(46,48,51,52)       -174.6914                                         !
 ! D129  D(46,48,51,54)        -54.4308                                         !
 ! D130  D(46,48,51,58)         66.7268                                         !
 ! D131  D(49,48,51,52)        -54.8815                                         !
 ! D132  D(49,48,51,54)         65.379                                          !
 ! D133  D(49,48,51,58)       -173.4633                                         !
 ! D134  D(50,48,51,52)         65.887                                          !
 ! D135  D(50,48,51,54)       -173.8525                                         !
 ! D136  D(50,48,51,58)        -52.6948                                         !
 ! D137  D(48,50,60,61)          5.1499                                         !
 ! D138  D(48,50,60,62)        177.3103                                         !
 ! D139  D(53,50,60,61)       -173.2804                                         !
 ! D140  D(53,50,60,62)         -1.12                                           !
 ! D141  D(48,51,54,55)        -52.6541                                         !
 ! D142  D(48,51,54,56)       -174.4009                                         !
 ! D143  D(48,51,54,57)         67.085                                          !
 ! D144  D(52,51,54,55)         65.9355                                         !
 ! D145  D(52,51,54,56)        -55.8113                                         !
 ! D146  D(52,51,54,57)       -174.3254                                         !
 ! D147  D(58,51,54,55)       -174.5148                                         !
 ! D148  D(58,51,54,56)         63.7385                                         !
 ! D149  D(58,51,54,57)        -54.7756                                         !
 ! D150  D(48,51,58,59)         99.6536                                         !
 ! D151  D(52,51,58,59)        -17.4156                                         !
 ! D152  D(54,51,58,59)       -137.2183                                         !
 ! D153  D(50,60,62,63)         38.2977                                         !
 ! D154  D(50,60,62,64)        -81.2339                                         !
 ! D155  D(50,60,62,65)        158.6422                                         !
 ! D156  D(61,60,62,63)       -149.0619                                         !
 ! D157  D(61,60,62,64)         91.4064                                         !
 ! D158  D(61,60,62,65)        -28.7174                                         !
 ! D159  D(60,62,64,68)       -105.1915                                         !
 ! D160  D(60,62,64,71)         74.1175                                         !
 ! D161  D(63,62,64,68)        136.37                                           !
 ! D162  D(63,62,64,71)        -44.321                                          !
 ! D163  D(65,62,64,68)         13.3883                                         !
 ! D164  D(65,62,64,71)       -167.3027                                         !
 ! D165  D(60,62,65,66)        -65.4813                                         !
 ! D166  D(60,62,65,67)        175.7339                                         !
 ! D167  D(60,62,65,69)         51.9488                                         !
 ! D168  D(63,62,65,66)         52.7926                                         !
 ! D169  D(63,62,65,67)        -65.9921                                         !
 ! D170  D(63,62,65,69)        170.2227                                         !
 ! D171  D(64,62,65,66)        174.9016                                         !
 ! D172  D(64,62,65,67)         56.1168                                         !
 ! D173  D(64,62,65,69)        -67.6683                                         !
 ! D174  D(62,64,71,72)        -13.7026                                         !
 ! D175  D(62,64,71,73)       -162.1588                                         !
 ! D176  D(68,64,71,72)        165.6009                                         !
 ! D177  D(68,64,71,73)         17.1447                                         !
 ! D178  D(62,65,69,70)         68.1174                                         !
 ! D179  D(66,65,69,70)       -172.8913                                         !
 ! D180  D(67,65,69,70)        -53.8862                                         !
 ! D181  D(64,71,73,74)       -176.9776                                         !
 ! D182  D(64,71,73,75)        -58.6887                                         !
 ! D183  D(64,71,73,76)         62.8345                                         !
 ! D184  D(72,71,73,74)         35.3134                                         !
 ! D185  D(72,71,73,75)        153.6023                                         !
 ! D186  D(72,71,73,76)        -84.8745                                         !
 ! D187  D(71,73,76,77)         11.7784                                         !
 ! D188  D(71,73,76,78)       -170.0459                                         !
 ! D189  D(74,73,76,77)       -108.1714                                         !
 ! D190  D(74,73,76,78)         70.0042                                         !
 ! D191  D(75,73,76,77)        133.3584                                         !
 ! D192  D(75,73,76,78)        -48.466                                          !
 ! D193  D(73,76,78,79)          1.5486                                         !
 ! D194  D(73,76,78,80)       -175.6116                                         !
 ! D195  D(77,76,78,79)        179.6748                                         !
 ! D196  D(77,76,78,80)          2.5145                                         !
 ! D197  D(76,78,80,81)        -69.6389                                         !
 ! D198  D(76,78,80,82)        174.6919                                         !
 ! D199  D(76,78,80,83)         51.3698                                         !
 ! D200  D(79,78,80,81)        113.0608                                         !
 ! D201  D(79,78,80,82)         -2.6084                                         !
 ! D202  D(79,78,80,83)       -125.9304                                         !
 ! D203  D(78,80,82,86)         -5.0098                                         !
 ! D204  D(78,80,82,99)        175.2491                                         !
 ! D205  D(81,80,82,86)       -122.0428                                         !
 ! D206  D(81,80,82,99)         58.2161                                         !
 ! D207  D(83,80,82,86)        119.7617                                         !
 ! D208  D(83,80,82,99)        -59.9794                                         !
 ! D209  D(78,80,83,84)        175.4237                                         !
 ! D210  D(78,80,83,85)        -69.2264                                         !
 ! D211  D(78,80,83,87)         51.9349                                         !
 ! D212  D(81,80,83,84)        -62.709                                          !
 ! D213  D(81,80,83,85)         52.6409                                         !
 ! D214  D(81,80,83,87)        173.8022                                         !
 ! D215  D(82,80,83,84)         55.2036                                         !
 ! D216  D(82,80,83,85)        170.5536                                         !
 ! D217  D(82,80,83,87)        -68.2851                                         !
 ! D218  D(80,82,99,100)      -179.8059                                         !
 ! D219  D(86,82,99,100)         0.4515                                         !
 ! D220  D(80,83,87,88)        -45.9601                                         !
 ! D221  D(80,83,87,89)         70.4762                                         !
 ! D222  D(80,83,87,90)       -165.8804                                         !
 ! D223  D(84,83,87,88)       -167.6627                                         !
 ! D224  D(84,83,87,89)        -51.2264                                         !
 ! D225  D(84,83,87,90)         72.417                                          !
 ! D226  D(85,83,87,88)         73.9415                                         !
 ! D227  D(85,83,87,89)       -169.6222                                         !
 ! D228  D(85,83,87,90)        -45.9788                                         !
 ! D229  D(83,87,90,91)         55.4378                                         !
 ! D230  D(83,87,90,92)        -62.1657                                         !
 ! D231  D(83,87,90,93)        175.649                                          !
 ! D232  D(88,87,90,91)        -64.36                                           !
 ! D233  D(88,87,90,92)        178.0365                                         !
 ! D234  D(88,87,90,93)         55.8512                                         !
 ! D235  D(89,87,90,91)        178.985                                          !
 ! D236  D(89,87,90,92)         61.3815                                         !
 ! D237  D(89,87,90,93)        -60.8038                                         !
 ! D238  D(87,90,93,94)         67.0669                                         !
 ! D239  D(87,90,93,95)       -176.0035                                         !
 ! D240  D(87,90,93,96)        -57.8918                                         !
 ! D241  D(91,90,93,94)       -172.4579                                         !
 ! D242  D(91,90,93,95)        -55.5283                                         !
 ! D243  D(91,90,93,96)         62.5834                                         !
 ! D244  D(92,90,93,94)        -55.6615                                         !
 ! D245  D(92,90,93,95)         61.2681                                         !
 ! D246  D(92,90,93,96)        179.3798                                         !
 ! D247  D(90,93,96,97)       -164.7129                                         !
 ! D248  D(90,93,96,98)         79.4908                                         !
 ! D249  D(94,93,96,97)         71.4507                                         !
 ! D250  D(94,93,96,98)        -44.3455                                         !
 ! D251  D(95,93,96,97)        -45.792                                          !
 ! D252  D(95,93,96,98)       -161.5883                                         !
 --------------------------------------------------------------------------------
 Symmetry turned off by external request.
 Stoichiometry    C28H52N9O11(1+)
 Framework group  C1[X(C28H52N9O11)]
 Deg. of freedom   294
 Full point group                 C1      NOp   1
                          Input orientation:                          
 ---------------------------------------------------------------------
 Center     Atomic      Atomic             Coordinates (Angstroms)
 Number     Number       Type             X           Y           Z
 ---------------------------------------------------------------------
      1          7           0       -5.832446    0.035181   -2.242170
      2          1           0       -6.738415   -0.393314   -2.447797
      3          1           0       -5.435528    0.401699   -3.111012
      4          1           0       -5.959989    0.822051   -1.527766
      5          6           0       -4.883501   -0.881751   -1.497854
      6          1           0       -5.305512   -1.886782   -1.456166
      7          6           0       -4.827072   -0.224728   -0.087034
      8          6           0       -3.510096   -0.933019   -2.197092
      9          1           0       -3.652454   -1.296676   -3.223829
     10          1           0       -3.042562    0.053375   -2.224442
     11          8           0       -5.382856    0.870529    0.059973
     12          6           0       -2.618226   -1.949813   -1.465050
     13          7           0       -1.307294   -1.717524   -1.432352
     14          1           0       -0.758750   -2.354606   -0.826948
     15          1           0       -0.910481   -0.809791   -1.677142
     16          8           0       -3.169914   -2.933807   -0.932125
     17          7           0       -4.146108   -0.895992    0.852059
     18          1           0       -3.764855   -1.787919    0.536691
     19          6           0       -3.347309   -0.192090    1.860970
     20          1           0       -4.008805    0.257267    2.610946
     21          6           0       -2.586772    0.945853    1.123254
     22          6           0       -2.427922   -1.251027    2.540081
     23          1           0       -1.921965   -1.790322    1.724636
     24          8           0       -2.509992    0.945732   -0.111683
     25          6           0       -3.303042   -2.245286    3.340585
     26          1           0       -4.213212   -2.478452    2.775327
     27          1           0       -3.638492   -1.744777    4.259721
     28          6           0       -1.335885   -0.635368    3.424605
     29          1           0       -1.767135   -0.006249    4.215185
     30          1           0       -0.768554   -1.426093    3.922096
     31          1           0       -0.622582   -0.042215    2.847382
     32          6           0       -2.599646   -3.560463    3.690560
     33          1           0       -3.263182   -4.207632    4.273029
     34          1           0       -2.317159   -4.108795    2.784175
     35          1           0       -1.692553   -3.404299    4.283447
     36          7           0       -2.054836    1.927668    1.870279
     37          1           0       -2.124328    1.879018    2.877963
     38          6           0       -1.432163    3.136594    1.295824
     39          1           0       -2.050208    3.413769    0.433171
     40          6           0        0.009295    2.878266    0.767975
     41          6           0       -1.435709    4.250475    2.335550
     42          1           0       -1.007543    5.157909    1.906179
     43          1           0       -2.456463    4.460297    2.670561
     44          1           0       -0.813029    3.980754    3.194624
     45          8           0        0.970167    3.510630    1.189026
     46          7           0        0.080821    1.935923   -0.205603
     47          1           0       -0.776045    1.492989   -0.526733
     48          6           0        1.301663    1.623531   -0.915217
     49          1           0        1.950407    2.505970   -0.882730
     50          6           0        0.916664    1.279849   -2.356410
     51          6           0        2.082321    0.422735   -0.296322
     52          1           0        3.028528    0.337893   -0.849651
     53          8           0       -0.178722    0.748030   -2.630672
     54          6           0        2.369583    0.628596    1.184343
     55          1           0        2.859375    1.587393    1.372192
     56          1           0        3.001235   -0.187609    1.547282
     57          1           0        1.430732    0.611642    1.746169
     58          8           0        1.333555   -0.779375   -0.455472
     59          1           0        1.725251   -1.233716   -1.229091
     60          7           0        1.829667    1.550144   -3.301159
     61          1           0        2.755585    1.889066   -3.057630
     62          6           0        1.653065    1.235463   -4.720074
     63          1           0        0.606524    1.425289   -4.981240
     64          6           0        1.991218   -0.250025   -4.965416
     65          6           0        2.599956    2.138234   -5.523437
     66          1           0        2.291488    3.181789   -5.411396
     67          1           0        2.541355    1.867559   -6.585680
     68          8           0        3.035798   -0.601778   -5.508163
     69          8           0        3.920750    2.041549   -5.017563
     70          1           0        4.210513    1.135307   -5.234385
     71          7           0        1.052956   -1.135241   -4.522194
     72          1           0        0.347881   -0.755334   -3.895027
     73          6           0        1.444830   -2.515345   -4.350543
     74          1           0        0.567365   -3.094618   -4.044591
     75          1           0        1.807565   -2.917771   -5.301031
     76          6           0        2.542674   -2.654259   -3.275187
     77          8           0        2.829791   -1.709894   -2.529895
     78          7           0        3.116840   -3.864659   -3.192544
     79          1           0        2.841408   -4.608846   -3.826294
     80          6           0        4.109482   -4.245874   -2.190153
     81          1           0        5.050060   -3.715119   -2.386027
     82          6           0        4.371275   -5.733332   -2.399677
     83          6           0        3.683330   -3.939306   -0.732473
     84          1           0        4.458567   -4.338038   -0.070166
     85          1           0        3.681683   -2.853412   -0.620503
     86          8           0        3.770438   -6.432882   -3.188489
     87          6           0        2.305393   -4.490442   -0.353418
     88          1           0        1.600936   -4.251369   -1.159582
     89          1           0        2.337366   -5.587582   -0.280454
     90          6           0        1.785090   -3.877594    0.952625
     91          1           0        1.784119   -2.786108    0.850109
     92          1           0        2.458968   -4.135297    1.780835
     93          6           0        0.365071   -4.323044    1.311443
     94          1           0        0.351629   -5.398014    1.555249
     95          1           0        0.042986   -3.789430    2.212197
     96          7           0       -0.580657   -3.982746    0.230270
     97          1           0       -1.549327   -4.037640    0.540900
     98          1           0       -0.513068   -4.668324   -0.520856
     99          8           0        5.350049   -6.178069   -1.595729
    100          1           0        5.469824   -7.129345   -1.780071
 ---------------------------------------------------------------------
 Rotational constants (GHZ):           0.0756077           0.0478839           0.0400463
 Standard basis: 6-31G(d) (6D, 7F)
   824 basis functions,  1552 primitive gaussians,   824 cartesian basis functions
   185 alpha electrons      185 beta electrons
       nuclear repulsion energy      7366.5436931713 Hartrees.
 NAtoms=  100 NActive=  100 NUniq=  100 SFac= 1.00D+00 NAtFMM=   60 NAOKFM=T Big=T
 Integral buffers will be    131072 words long.
 Raffenetti 2 integral format.
 Two-electron integral symmetry is turned off.
 Nuclear repulsion after empirical dispersion term =     7366.3861131107 Hartrees.
 One-electron integrals computed using PRISM.
 NBasis=   824 RedAO= T EigKep=  1.62D-03  NBF=   824
 NBsUse=   824 1.00D-06 EigRej= -1.00D+00 NBFU=   824
 Initial guess from the checkpoint file:  "conf-420.chk"
 B after Tr=     0.000000    0.000000    0.000000
         Rot=    1.000000    0.000000    0.000000    0.000000 Ang=   0.00 deg.
 Requested convergence on RMS density matrix=1.00D-08 within 128 cycles.
 Requested convergence on MAX density matrix=1.00D-06.
 Requested convergence on             energy=1.00D-06.
 No special actions if energy rises.
 SCF Done:  E(RB3LYP) =  -2418.61810831     A.U. after    3 cycles
            NFock=  3  Conv=0.65D-09     -V/T= 2.0093

 **********************************************************************

            Population analysis using the SCF Density.

 **********************************************************************

 Alpha  occ. eigenvalues --  -19.28524 -19.26232 -19.23171 -19.22955 -19.22115
 Alpha  occ. eigenvalues --  -19.21721 -19.21431 -19.21303 -19.21099 -19.20624
 Alpha  occ. eigenvalues --  -19.18844 -14.59177 -14.47578 -14.47132 -14.45961
 Alpha  occ. eigenvalues --  -14.45374 -14.44152 -14.43309 -14.42578 -14.40482
 Alpha  occ. eigenvalues --  -10.42644 -10.41102 -10.39841 -10.39621 -10.39581
 Alpha  occ. eigenvalues --  -10.38721 -10.38413 -10.37267 -10.36084 -10.34787
 Alpha  occ. eigenvalues --  -10.32775 -10.32746 -10.32440 -10.31992 -10.31950
 Alpha  occ. eigenvalues --  -10.31400 -10.31128 -10.31075 -10.30120 -10.28512
 Alpha  occ. eigenvalues --  -10.27537 -10.27218 -10.26463 -10.26115 -10.26077
 Alpha  occ. eigenvalues --  -10.25890 -10.24842 -10.23924  -1.19645  -1.18696
 Alpha  occ. eigenvalues --   -1.14987  -1.13897  -1.13291  -1.13235  -1.12858
 Alpha  occ. eigenvalues --   -1.12142  -1.10777  -1.10700  -1.08902  -1.08712
 Alpha  occ. eigenvalues --   -1.05246  -1.03121  -1.02089  -1.01926  -1.00702
 Alpha  occ. eigenvalues --   -0.99621  -0.99230  -0.96540  -0.92717  -0.90615
 Alpha  occ. eigenvalues --   -0.88563  -0.87187  -0.85931  -0.84368  -0.83569
 Alpha  occ. eigenvalues --   -0.83213  -0.81531  -0.80657  -0.79652  -0.78608
 Alpha  occ. eigenvalues --   -0.77478  -0.74557  -0.73287  -0.73013  -0.72540
 Alpha  occ. eigenvalues --   -0.72285  -0.71391  -0.70999  -0.70335  -0.69431
 Alpha  occ. eigenvalues --   -0.69106  -0.67413  -0.67195  -0.66921  -0.66461
 Alpha  occ. eigenvalues --   -0.66300  -0.65353  -0.64753  -0.64554  -0.63339
 Alpha  occ. eigenvalues --   -0.62385  -0.61824  -0.61694  -0.61358  -0.60476
 Alpha  occ. eigenvalues --   -0.59732  -0.59168  -0.58665  -0.58273  -0.57998
 Alpha  occ. eigenvalues --   -0.57444  -0.57329  -0.57183  -0.56801  -0.56533
 Alpha  occ. eigenvalues --   -0.56180  -0.55978  -0.55428  -0.55152  -0.54704
 Alpha  occ. eigenvalues --   -0.54437  -0.53846  -0.53557  -0.53199  -0.52953
 Alpha  occ. eigenvalues --   -0.52778  -0.52500  -0.52038  -0.51831  -0.51351
 Alpha  occ. eigenvalues --   -0.50830  -0.50520  -0.50277  -0.49917  -0.49765
 Alpha  occ. eigenvalues --   -0.49692  -0.49335  -0.48774  -0.48284  -0.48180
 Alpha  occ. eigenvalues --   -0.48065  -0.47831  -0.47463  -0.47320  -0.47107
 Alpha  occ. eigenvalues --   -0.47010  -0.46733  -0.46145  -0.45922  -0.45767
 Alpha  occ. eigenvalues --   -0.45589  -0.45415  -0.45201  -0.44893  -0.44583
 Alpha  occ. eigenvalues --   -0.44117  -0.43973  -0.43390  -0.42797  -0.42399
 Alpha  occ. eigenvalues --   -0.42092  -0.41331  -0.40985  -0.40931  -0.40735
 Alpha  occ. eigenvalues --   -0.40576  -0.40163  -0.39792  -0.38511  -0.37903
 Alpha  occ. eigenvalues --   -0.37667  -0.36711  -0.36659  -0.36478  -0.36085
 Alpha  occ. eigenvalues --   -0.35798  -0.35689  -0.35310  -0.34898  -0.34836
 Alpha  occ. eigenvalues --   -0.33924  -0.32996  -0.32895  -0.32059  -0.31537
 Alpha virt. eigenvalues --   -0.11952  -0.10421  -0.09057  -0.08604  -0.08418
 Alpha virt. eigenvalues --   -0.08109  -0.07009  -0.06507  -0.05303  -0.05112
 Alpha virt. eigenvalues --   -0.03033  -0.02136  -0.01572  -0.01051  -0.00473
 Alpha virt. eigenvalues --   -0.00002   0.00521   0.01148   0.01467   0.02040
 Alpha virt. eigenvalues --    0.02202   0.02760   0.03105   0.03384   0.03481
 Alpha virt. eigenvalues --    0.03915   0.04007   0.04246   0.04711   0.04928
 Alpha virt. eigenvalues --    0.05048   0.05651   0.05847   0.06447   0.06632
 Alpha virt. eigenvalues --    0.06893   0.06958   0.07168   0.07521   0.07738
 Alpha virt. eigenvalues --    0.07976   0.08306   0.08529   0.08798   0.09026
 Alpha virt. eigenvalues --    0.09139   0.09479   0.09771   0.10126   0.10317
 Alpha virt. eigenvalues --    0.10353   0.10717   0.11010   0.11191   0.11279
 Alpha virt. eigenvalues --    0.11473   0.12077   0.12176   0.12367   0.12531
 Alpha virt. eigenvalues --    0.12792   0.12909   0.12960   0.13389   0.13750
 Alpha virt. eigenvalues --    0.14314   0.14649   0.14815   0.14846   0.15426
 Alpha virt. eigenvalues --    0.15597   0.15832   0.16466   0.16888   0.16969
 Alpha virt. eigenvalues --    0.17235   0.17524   0.17721   0.18314   0.18581
 Alpha virt. eigenvalues --    0.18953   0.19174   0.19213   0.19629   0.19988
 Alpha virt. eigenvalues --    0.20015   0.20527   0.21090   0.22018   0.23136
 Alpha virt. eigenvalues --    0.23495   0.24481   0.24660   0.25471   0.26365
 Alpha virt. eigenvalues --    0.27588   0.28474   0.29287   0.29509   0.30295
 Alpha virt. eigenvalues --    0.30561   0.31164   0.31836   0.32309   0.34485
 Alpha virt. eigenvalues --    0.34951   0.35539   0.37977   0.38758   0.39955
 Alpha virt. eigenvalues --    0.40993   0.41448   0.41703   0.41806   0.42207
 Alpha virt. eigenvalues --    0.42815   0.42975   0.43718   0.44077   0.44611
 Alpha virt. eigenvalues --    0.44666   0.44975   0.45444   0.45651   0.46081
 Alpha virt. eigenvalues --    0.46305   0.46987   0.47033   0.47477   0.47690
 Alpha virt. eigenvalues --    0.48084   0.48239   0.48325   0.49196   0.49374
 Alpha virt. eigenvalues --    0.49550   0.49790   0.50253   0.50422   0.50943
 Alpha virt. eigenvalues --    0.51034   0.51875   0.52236   0.52423   0.52876
 Alpha virt. eigenvalues --    0.52949   0.53289   0.53604   0.53913   0.54390
 Alpha virt. eigenvalues --    0.54853   0.55229   0.55881   0.56143   0.56400
 Alpha virt. eigenvalues --    0.56569   0.56934   0.57374   0.57771   0.57791
 Alpha virt. eigenvalues --    0.58308   0.58512   0.58882   0.59341   0.59676
 Alpha virt. eigenvalues --    0.60159   0.60381   0.60753   0.60846   0.61802
 Alpha virt. eigenvalues --    0.62218   0.62380   0.62975   0.63516   0.63698
 Alpha virt. eigenvalues --    0.63996   0.64539   0.64657   0.65119   0.66253
 Alpha virt. eigenvalues --    0.66435   0.67159   0.67304   0.67387   0.67743
 Alpha virt. eigenvalues --    0.68420   0.68993   0.69470   0.69684   0.69893
 Alpha virt. eigenvalues --    0.70521   0.71132   0.71221   0.71941   0.72358
 Alpha virt. eigenvalues --    0.72535   0.72980   0.73160   0.73277   0.73613
 Alpha virt. eigenvalues --    0.73723   0.74055   0.74515   0.74760   0.75125
 Alpha virt. eigenvalues --    0.75350   0.75620   0.76106   0.76275   0.76941
 Alpha virt. eigenvalues --    0.77167   0.77595   0.77858   0.78191   0.78438
 Alpha virt. eigenvalues --    0.78876   0.79106   0.79715   0.80002   0.80465
 Alpha virt. eigenvalues --    0.80931   0.81223   0.81397   0.81672   0.81913
 Alpha virt. eigenvalues --    0.82204   0.82486   0.82952   0.83152   0.83494
 Alpha virt. eigenvalues --    0.83740   0.84001   0.84188   0.84358   0.84424
 Alpha virt. eigenvalues --    0.84544   0.84945   0.85251   0.85768   0.85992
 Alpha virt. eigenvalues --    0.86315   0.86827   0.87189   0.87630   0.88002
 Alpha virt. eigenvalues --    0.88182   0.88515   0.88730   0.89149   0.89215
 Alpha virt. eigenvalues --    0.90180   0.90665   0.90879   0.91333   0.91974
 Alpha virt. eigenvalues --    0.92745   0.92970   0.93412   0.93571   0.93806
 Alpha virt. eigenvalues --    0.94027   0.94937   0.95224   0.95861   0.96098
 Alpha virt. eigenvalues --    0.96566   0.96960   0.97502   0.98140   0.98567
 Alpha virt. eigenvalues --    0.99394   0.99572   0.99739   0.99892   1.00987
 Alpha virt. eigenvalues --    1.01690   1.01960   1.02783   1.03244   1.03482
 Alpha virt. eigenvalues --    1.03798   1.04890   1.05659   1.05790   1.06341
 Alpha virt. eigenvalues --    1.06782   1.07767   1.08482   1.08790   1.09278
 Alpha virt. eigenvalues --    1.09679   1.10311   1.10539   1.11083   1.11659
 Alpha virt. eigenvalues --    1.13590   1.14146   1.14756   1.15129   1.15840
 Alpha virt. eigenvalues --    1.16475   1.17367   1.17700   1.18880   1.19073
 Alpha virt. eigenvalues --    1.19316   1.20883   1.21174   1.22063   1.22755
 Alpha virt. eigenvalues --    1.23176   1.23558   1.23873   1.25376   1.25607
 Alpha virt. eigenvalues --    1.25790   1.26981   1.28167   1.28501   1.29468
 Alpha virt. eigenvalues --    1.29608   1.30135   1.30409   1.31208   1.31382
 Alpha virt. eigenvalues --    1.32496   1.32865   1.33415   1.33569   1.34055
 Alpha virt. eigenvalues --    1.34797   1.35711   1.36220   1.37097   1.38196
 Alpha virt. eigenvalues --    1.38486   1.38925   1.39142   1.39991   1.41899
 Alpha virt. eigenvalues --    1.42271   1.43517   1.44562   1.45181   1.46046
 Alpha virt. eigenvalues --    1.46388   1.47054   1.47563   1.49285   1.49777
 Alpha virt. eigenvalues --    1.49938   1.50772   1.51833   1.52568   1.52973
 Alpha virt. eigenvalues --    1.53197   1.53592   1.53665   1.54869   1.55718
 Alpha virt. eigenvalues --    1.56326   1.56832   1.57651   1.58186   1.58744
 Alpha virt. eigenvalues --    1.59182   1.60164   1.60517   1.60720   1.61473
 Alpha virt. eigenvalues --    1.61859   1.62286   1.63252   1.63553   1.63686
 Alpha virt. eigenvalues --    1.64144   1.64774   1.65381   1.65519   1.66156
 Alpha virt. eigenvalues --    1.66659   1.66927   1.67272   1.68016   1.68729
 Alpha virt. eigenvalues --    1.68862   1.69177   1.70148   1.70373   1.70553
 Alpha virt. eigenvalues --    1.71780   1.72078   1.72507   1.72814   1.73383
 Alpha virt. eigenvalues --    1.73859   1.74340   1.74621   1.75056   1.75263
 Alpha virt. eigenvalues --    1.75546   1.75894   1.76206   1.76711   1.77647
 Alpha virt. eigenvalues --    1.77982   1.78100   1.78645   1.79316   1.79772
 Alpha virt. eigenvalues --    1.79935   1.80296   1.80718   1.81489   1.82573
 Alpha virt. eigenvalues --    1.82813   1.83001   1.83568   1.83935   1.84315
 Alpha virt. eigenvalues --    1.84789   1.85771   1.86506   1.87005   1.87182
 Alpha virt. eigenvalues --    1.87418   1.87729   1.88086   1.88928   1.89103
 Alpha virt. eigenvalues --    1.89383   1.89656   1.89887   1.90547   1.90921
 Alpha virt. eigenvalues --    1.91494   1.91998   1.92288   1.92686   1.93317
 Alpha virt. eigenvalues --    1.93510   1.93828   1.94106   1.94654   1.95964
 Alpha virt. eigenvalues --    1.96009   1.96629   1.97020   1.97292   1.97728
 Alpha virt. eigenvalues --    1.98007   1.98710   1.99499   2.00420   2.00545
 Alpha virt. eigenvalues --    2.01182   2.01518   2.01812   2.02060   2.02467
 Alpha virt. eigenvalues --    2.03183   2.03648   2.04219   2.04450   2.05179
 Alpha virt. eigenvalues --    2.06066   2.06858   2.07516   2.07911   2.08254
 Alpha virt. eigenvalues --    2.09461   2.10307   2.10666   2.11910   2.12657
 Alpha virt. eigenvalues --    2.13220   2.14123   2.14656   2.15294   2.15952
 Alpha virt. eigenvalues --    2.16791   2.17914   2.18280   2.18996   2.19450
 Alpha virt. eigenvalues --    2.19919   2.20497   2.21555   2.21788   2.22275
 Alpha virt. eigenvalues --    2.22887   2.23068   2.23791   2.24146   2.24660
 Alpha virt. eigenvalues --    2.25734   2.26410   2.26514   2.26950   2.27824
 Alpha virt. eigenvalues --    2.28682   2.29308   2.29425   2.30101   2.30186
 Alpha virt. eigenvalues --    2.31466   2.31807   2.32287   2.33707   2.34043
 Alpha virt. eigenvalues --    2.34905   2.35784   2.36128   2.36598   2.37505
 Alpha virt. eigenvalues --    2.37607   2.38153   2.38726   2.39188   2.40130
 Alpha virt. eigenvalues --    2.40820   2.40956   2.41117   2.42203   2.42719
 Alpha virt. eigenvalues --    2.43540   2.44676   2.44984   2.45574   2.47915
 Alpha virt. eigenvalues --    2.48220   2.48884   2.50706   2.51065   2.51423
 Alpha virt. eigenvalues --    2.51720   2.52322   2.52907   2.53909   2.54799
 Alpha virt. eigenvalues --    2.56006   2.56500   2.56833   2.57111   2.57798
 Alpha virt. eigenvalues --    2.58079   2.59297   2.59925   2.60974   2.61615
 Alpha virt. eigenvalues --    2.62347   2.63088   2.63817   2.64744   2.65321
 Alpha virt. eigenvalues --    2.66910   2.67112   2.68794   2.69653   2.70390
 Alpha virt. eigenvalues --    2.71939   2.73517   2.74048   2.75124   2.75885
 Alpha virt. eigenvalues --    2.76888   2.78401   2.81512   2.82572   2.83818
 Alpha virt. eigenvalues --    2.84443   2.84810   2.86356   2.87330   2.87916
 Alpha virt. eigenvalues --    2.89604   2.90602   2.90909   2.94739   2.95292
 Alpha virt. eigenvalues --    2.95974   2.96550   2.97161   3.00412   3.01632
 Alpha virt. eigenvalues --    3.05008   3.05900   3.08087   3.10293   3.12665
 Alpha virt. eigenvalues --    3.13183   3.64859   3.72714   3.78668   3.80116
 Alpha virt. eigenvalues --    3.87921   3.88994   3.90570   3.94531   3.95316
 Alpha virt. eigenvalues --    3.95747   3.98391   4.00587   4.02311   4.05045
 Alpha virt. eigenvalues --    4.05582   4.06113   4.07676   4.13319   4.14682
 Alpha virt. eigenvalues --    4.15165   4.17017   4.17315   4.19270   4.20265
 Alpha virt. eigenvalues --    4.22294   4.23180   4.23503   4.25825   4.26670
 Alpha virt. eigenvalues --    4.28280   4.31552   4.33586   4.34797   4.36143
 Alpha virt. eigenvalues --    4.37642   4.40819   4.42426   4.43713   4.45804
 Alpha virt. eigenvalues --    4.48845   4.50782   4.52705   4.54211   4.56107
 Alpha virt. eigenvalues --    4.57330   4.59161   4.64495   4.67679
          Condensed to atoms (all electrons):
 Mulliken charges:
               1
     1  N   -0.766015
     2  H    0.414201
     3  H    0.412906
     4  H    0.433225
     5  C   -0.113422
     6  H    0.237235
     7  C    0.660595
     8  C   -0.379390
     9  H    0.185934
    10  H    0.225971
    11  O   -0.537986
    12  C    0.600825
    13  N   -0.817053
    14  H    0.416666
    15  H    0.413757
    16  O   -0.570705
    17  N   -0.618104
    18  H    0.388211
    19  C   -0.048767
    20  H    0.185765
    21  C    0.650785
    22  C   -0.121169
    23  H    0.162157
    24  O   -0.574579
    25  C   -0.266854
    26  H    0.153307
    27  H    0.149687
    28  C   -0.498582
    29  H    0.144796
    30  H    0.177036
    31  H    0.185442
    32  C   -0.463040
    33  H    0.168292
    34  H    0.148935
    35  H    0.159814
    36  N   -0.596583
    37  H    0.348907
    38  C   -0.062049
    39  H    0.184644
    40  C    0.621035
    41  C   -0.471092
    42  H    0.194632
    43  H    0.155835
    44  H    0.173136
    45  O   -0.514791
    46  N   -0.644780
    47  H    0.400883
    48  C   -0.056116
    49  H    0.181612
    50  C    0.640786
    51  C    0.124375
    52  H    0.145147
    53  O   -0.593183
    54  C   -0.459072
    55  H    0.176646
    56  H    0.155516
    57  H    0.156456
    58  O   -0.676404
    59  H    0.443853
    60  N   -0.584616
    61  H    0.365820
    62  C   -0.096709
    63  H    0.178492
    64  C    0.637362
    65  C   -0.052987
    66  H    0.164117
    67  H    0.161931
    68  O   -0.527861
    69  O   -0.630290
    70  H    0.424086
    71  N   -0.590963
    72  H    0.363457
    73  C   -0.258246
    74  H    0.184507
    75  H    0.208633
    76  C    0.649209
    77  O   -0.559547
    78  N   -0.617845
    79  H    0.363790
    80  C   -0.015674
    81  H    0.203985
    82  C    0.585108
    83  C   -0.291579
    84  H    0.172571
    85  H    0.181431
    86  O   -0.466820
    87  C   -0.279207
    88  H    0.127704
    89  H    0.139979
    90  C   -0.269740
    91  H    0.176885
    92  H    0.137033
    93  C   -0.148176
    94  H    0.133738
    95  H    0.146238
    96  N   -0.765155
    97  H    0.333740
    98  H    0.315229
    99  O   -0.558294
   100  H    0.429396
 Sum of Mulliken charges =   1.00000
 Mulliken charges with hydrogens summed into heavy atoms:
               1
     1  N    0.494316
     5  C    0.123812
     7  C    0.660595
     8  C    0.032516
    11  O   -0.537986
    12  C    0.600825
    13  N    0.013369
    16  O   -0.570705
    17  N   -0.229893
    19  C    0.136998
    21  C    0.650785
    22  C    0.040987
    24  O   -0.574579
    25  C    0.036139
    28  C    0.008692
    32  C    0.014000
    36  N   -0.247676
    38  C    0.122595
    40  C    0.621035
    41  C    0.052511
    45  O   -0.514791
    46  N   -0.243897
    48  C    0.125496
    50  C    0.640786
    51  C    0.269523
    53  O   -0.593183
    54  C    0.029546
    58  O   -0.232551
    60  N   -0.218797
    62  C    0.081783
    64  C    0.637362
    65  C    0.273062
    68  O   -0.527861
    69  O   -0.206204
    71  N   -0.227505
    73  C    0.134894
    76  C    0.649209
    77  O   -0.559547
    78  N   -0.254055
    80  C    0.188311
    82  C    0.585108
    83  C    0.062423
    86  O   -0.466820
    87  C   -0.011524
    90  C    0.044178
    93  C    0.131800
    96  N   -0.116186
    99  O   -0.128898
 Electronic spatial extent (au):  <R**2>=          31715.2559
 Charge=              1.0000 electrons
 Dipole moment (field-independent basis, Debye):
    X=            -14.3443    Y=             -6.8242    Z=             -5.8919  Tot=             16.9423
 Quadrupole moment (field-independent basis, Debye-Ang):
   XX=           -171.6796   YY=           -241.5415   ZZ=           -233.2825
   XY=            -27.8334   XZ=             29.7272   YZ=              0.6448
 Traceless Quadrupole moment (field-independent basis, Debye-Ang):
   XX=             43.8216   YY=            -26.0403   ZZ=            -17.7813
   XY=            -27.8334   XZ=             29.7272   YZ=              0.6448
 Octapole moment (field-independent basis, Debye-Ang**2):
  XXX=           -492.1285  YYY=            529.1906  ZZZ=            691.5677  XYY=            141.4267
  XXY=             63.5154  XXZ=             -0.2262  XZZ=           -198.6237  YZZ=            258.9781
  YYZ=            226.9232  XYZ=             33.1578
 Hexadecapole moment (field-independent basis, Debye-Ang**3):
 XXXX=         -10270.7006 YYYY=         -11820.4946 ZZZZ=         -11671.1445 XXXY=           1138.7248
 XXXZ=           4514.1558 YYYX=            332.5826 YYYZ=           -937.0742 ZZZX=           3299.0868
 ZZZY=          -1111.4974 XXYY=          -3663.0010 XXZZ=          -3799.6332 YYZZ=          -4146.7274
 XXYZ=            -28.5758 YYXZ=            675.4114 ZZXY=            552.8142
 N-N= 7.366386113111D+03 E-N=-2.034236415697D+04  KE= 2.396448591813D+03
 Unable to Open any file for archive entry.
 1\1\GINC-NVF-017\SP\RB3LYP\6-31G(d)\C28H52N9O11(1+)\KENGMITH\06-Jun-20
 22\0\\# B3LYP/6-31G* empiricaldispersion=gd3 guess=read geom=check nos
 ymm integral(ultrafinegrid)\\Candidate Structure: Conf:420 Charge calc
  in gas phase\\1,1\N,0,-5.8324459691,0.0351810825,-2.2421696216\H,0,-6
 .7384146736,-0.393313962,-2.4477974994\H,0,-5.4355284043,0.4016986745,
 -3.1110122003\H,0,-5.9599886057,0.8220509787,-1.5277662157\C,0,-4.8835
 010763,-0.8817512112,-1.497853796\H,0,-5.3055124588,-1.8867818663,-1.4
 561664272\C,0,-4.8270716463,-0.224727509,-0.0870343625\C,0,-3.51009641
 05,-0.9330191637,-2.1970915964\H,0,-3.6524542268,-1.2966762515,-3.2238
 292032\H,0,-3.0425618373,0.0533745741,-2.2244418998\O,0,-5.3828556856,
 0.8705292051,0.0599729147\C,0,-2.6182255596,-1.9498130927,-1.465050429
 8\N,0,-1.3072942337,-1.7175237645,-1.4323516658\H,0,-0.7587504758,-2.3
 546062093,-0.8269478425\H,0,-0.9104812234,-0.8097913341,-1.6771415564\
 O,0,-3.1699144664,-2.933806798,-0.9321247615\N,0,-4.1461082089,-0.8959
 920763,0.8520591017\H,0,-3.7648551739,-1.7879194928,0.5366906127\C,0,-
 3.3473093241,-0.1920897051,1.8609703454\H,0,-4.0088053849,0.2572669157
 ,2.610946021\C,0,-2.5867720422,0.945852671,1.1232536547\C,0,-2.4279220
 858,-1.2510271578,2.5400809207\H,0,-1.9219648719,-1.7903221923,1.72463
 61878\O,0,-2.5099920679,0.9457322299,-0.1116826162\C,0,-3.3030422022,-
 2.245285914,3.3405854166\H,0,-4.2132123233,-2.4784520837,2.7753267433\
 H,0,-3.6384923942,-1.744777482,4.2597208816\C,0,-1.3358848588,-0.63536
 81486,3.4246048366\H,0,-1.7671348839,-0.0062486599,4.215184999\H,0,-0.
 7685537027,-1.4260929687,3.9220961475\H,0,-0.6225821616,-0.0422153603,
 2.8473818509\C,0,-2.5996460798,-3.5604627593,3.6905602668\H,0,-3.26318
 1902,-4.2076321993,4.273028885\H,0,-2.317159078,-4.1087954786,2.784174
 7198\H,0,-1.6925534524,-3.4042990539,4.2834465319\N,0,-2.0548355783,1.
 9276676438,1.8702792428\H,0,-2.1243279446,1.8790176823,2.8779632795\C,
 0,-1.432163257,3.1365944941,1.2958244861\H,0,-2.0502077458,3.413768986
 3,0.4331714272\C,0,0.0092949342,2.8782655629,0.7679747408\C,0,-1.43570
 86242,4.2504752519,2.3355504403\H,0,-1.0075431969,5.1579089417,1.90617
 87751\H,0,-2.456462611,4.4602968288,2.6705612538\H,0,-0.8130287657,3.9
 807539949,3.1946241036\O,0,0.9701671418,3.5106304101,1.1890256197\N,0,
 0.080820683,1.9359234009,-0.2056026533\H,0,-0.7760447451,1.4929887689,
 -0.5267328596\C,0,1.3016633687,1.623530754,-0.9152167108\H,0,1.9504069
 245,2.5059702752,-0.8827303378\C,0,0.9166636242,1.2798492151,-2.356409
 5279\C,0,2.0823210938,0.4227348585,-0.2963224127\H,0,3.028527777,0.337
 8930782,-0.8496507564\O,0,-0.1787224604,0.7480300402,-2.6306723049\C,0
 ,2.3695833319,0.628596015,1.1843429523\H,0,2.8593754691,1.5873925235,1
 .3721924733\H,0,3.0012347027,-0.1876093369,1.5472815408\H,0,1.43073226
 29,0.6116420201,1.7461689901\O,0,1.3335554398,-0.7793748848,-0.4554724
 459\H,0,1.7252508572,-1.2337155926,-1.2290914727\N,0,1.8296665942,1.55
 01435784,-3.3011593974\H,0,2.7555853947,1.8890655013,-3.0576296355\C,0
 ,1.653065213,1.2354629286,-4.7200742298\H,0,0.6065241201,1.4252889517,
 -4.9812398683\C,0,1.9912175487,-0.2500245741,-4.9654155541\C,0,2.59995
 56928,2.1382341501,-5.5234366283\H,0,2.2914883143,3.1817890425,-5.4113
 957765\H,0,2.541355211,1.8675587299,-6.5856796511\O,0,3.0357982884,-0.
 601777998,-5.5081632306\O,0,3.9207500427,2.0415486944,-5.0175629692\H,
 0,4.2105134389,1.1353068882,-5.2343851421\N,0,1.052956334,-1.135241255
 ,-4.5221942318\H,0,0.3478810583,-0.7553340607,-3.8950265621\C,0,1.4448
 29518,-2.5153445216,-4.3505431263\H,0,0.5673653012,-3.0946179516,-4.04
 4591\H,0,1.8075645155,-2.917770836,-5.3010308005\C,0,2.5426735965,-2.6
 54259284,-3.2751869147\O,0,2.8297909119,-1.709894096,-2.5298948662\N,0
 ,3.1168400701,-3.8646590866,-3.1925442322\H,0,2.8414082114,-4.60884575
 15,-3.8262939493\C,0,4.1094815692,-4.2458742872,-2.1901527547\H,0,5.05
 0060133,-3.7151194802,-2.3860268036\C,0,4.3712745693,-5.7333322308,-2.
 3996772673\C,0,3.6833302461,-3.9393056459,-0.7324728086\H,0,4.45856650
 45,-4.3380375417,-0.0701662581\H,0,3.6816832287,-2.8534118505,-0.62050
 29658\O,0,3.7704380784,-6.4328824938,-3.1884892081\C,0,2.3053927702,-4
 .4904422325,-0.353418344\H,0,1.6009356146,-4.2513691436,-1.1595817073\
 H,0,2.3373660143,-5.5875818815,-0.2804539086\C,0,1.7850898874,-3.87759
 36769,0.9526249636\H,0,1.7841193648,-2.7861083729,0.8501090283\H,0,2.4
 589677225,-4.1352969684,1.7808350448\C,0,0.3650705157,-4.3230441372,1.
 3114429515\H,0,0.3516289575,-5.3980140295,1.5552489131\H,0,0.042985569
 2,-3.789429997,2.212197339\N,0,-0.5806574718,-3.982746474,0.2302701218
 \H,0,-1.5493265537,-4.0376399902,0.5408995668\H,0,-0.5130678427,-4.668
 3237066,-0.5208561145\O,0,5.3500486034,-6.1780685566,-1.5957285135\H,0
 ,5.4698242139,-7.1293452215,-1.7800706656\\Version=ES64L-G16RevC.01\HF
 =-2418.6181083\RMSD=6.547e-10\Dipole=-5.6859245,-0.9727594,-0.5731002\
 Quadrupole=32.580304,-19.3603496,-13.2199544,-20.6934235,22.101438,0.4
 793926\PG=C01 [X(C28H52N9O11)]\\@
 The archive entry for this job was punched.


 ERROR IS THE FORCE THAT WELDS MEN TOGETHER....
 TRUTH IS COMMUNICATED TO MEN ONLY BY DEEDS OF TRUTH.
           TOLSTOI,MY RELIGION
 Job cpu time:       0 days  0 hours  6 minutes 56.7 seconds.
 Elapsed time:       0 days  0 hours  1 minutes 45.4 seconds.
 File lengths (MBytes):  RWF=    472 Int=      0 D2E=      0 Chk=     72 Scr=     16
 Normal termination of Gaussian 16 at Mon Jun  6 03:08:06 2022.
