 Entering Gaussian System, Link 0=/opt/software/Gaussian/g16-AVX2-C.01/g16/g16
 Input=charge-conf-14.com
 Output=charge-conf-14.log
 Initial command:
 /opt/software/Gaussian/g16-AVX2-C.01/g16/l1.exe "/mnt/gs18/scratch/users/kengmith/Gau-130979.inp" -scrdir="/mnt/gs18/scratch/users/kengmith/"
 Entering Link 1 = /opt/software/Gaussian/g16-AVX2-C.01/g16/l1.exe PID=    130989.
  
 Copyright (c) 1988-2019, Gaussian, Inc.  All Rights Reserved.
  
 This is part of the Gaussian(R) 16 program.  It is based on
 the Gaussian(R) 09 system (copyright 2009, Gaussian, Inc.),
 the Gaussian(R) 03 system (copyright 2003, Gaussian, Inc.),
 the Gaussian(R) 98 system (copyright 1998, Gaussian, Inc.),
 the Gaussian(R) 94 system (copyright 1995, Gaussian, Inc.),
 the Gaussian 92(TM) system (copyright 1992, Gaussian, Inc.),
 the Gaussian 90(TM) system (copyright 1990, Gaussian, Inc.),
 the Gaussian 88(TM) system (copyright 1988, Gaussian, Inc.),
 the Gaussian 86(TM) system (copyright 1986, Carnegie Mellon
 University), and the Gaussian 82(TM) system (copyright 1983,
 Carnegie Mellon University). Gaussian is a federally registered
 trademark of Gaussian, Inc.
  
 This software contains proprietary and confidential information,
 including trade secrets, belonging to Gaussian, Inc.
  
 This software is provided under written license and may be
 used, copied, transmitted, or stored only in accord with that
 written license.
  
 The following legend is applicable only to US Government
 contracts under FAR:
  
                    RESTRICTED RIGHTS LEGEND
  
 Use, reproduction and disclosure by the US Government is
 subject to restrictions as set forth in subparagraphs (a)
 and (c) of the Commercial Computer Software - Restricted
 Rights clause in FAR 52.227-19.
  
 Gaussian, Inc.
 340 Quinnipiac St., Bldg. 40, Wallingford CT 06492
  
  
 ---------------------------------------------------------------
 Warning -- This program may not be used in any manner that
 competes with the business of Gaussian, Inc. or will provide
 assistance to any competitor of Gaussian, Inc.  The licensee
 of this program is prohibited from giving any competitor of
 Gaussian, Inc. access to this program.  By using this program,
 the user acknowledges that Gaussian, Inc. is engaged in the
 business of creating and licensing software in the field of
 computational chemistry and represents and warrants to the
 licensee that it is not a competitor of Gaussian, Inc. and that
 it will not use this program in any manner prohibited above.
 ---------------------------------------------------------------
  

 Cite this work as:
 Gaussian 16, Revision C.01,
 M. J. Frisch, G. W. Trucks, H. B. Schlegel, G. E. Scuseria, 
 M. A. Robb, J. R. Cheeseman, G. Scalmani, V. Barone, 
 G. A. Petersson, H. Nakatsuji, X. Li, M. Caricato, A. V. Marenich, 
 J. Bloino, B. G. Janesko, R. Gomperts, B. Mennucci, H. P. Hratchian, 
 J. V. Ortiz, A. F. Izmaylov, J. L. Sonnenberg, D. Williams-Young, 
 F. Ding, F. Lipparini, F. Egidi, J. Goings, B. Peng, A. Petrone, 
 T. Henderson, D. Ranasinghe, V. G. Zakrzewski, J. Gao, N. Rega, 
 G. Zheng, W. Liang, M. Hada, M. Ehara, K. Toyota, R. Fukuda, 
 J. Hasegawa, M. Ishida, T. Nakajima, Y. Honda, O. Kitao, H. Nakai, 
 T. Vreven, K. Throssell, J. A. Montgomery, Jr., J. E. Peralta, 
 F. Ogliaro, M. J. Bearpark, J. J. Heyd, E. N. Brothers, K. N. Kudin, 
 V. N. Staroverov, T. A. Keith, R. Kobayashi, J. Normand, 
 K. Raghavachari, A. P. Rendell, J. C. Burant, S. S. Iyengar, 
 J. Tomasi, M. Cossi, J. M. Millam, M. Klene, C. Adamo, R. Cammi, 
 J. W. Ochterski, R. L. Martin, K. Morokuma, O. Farkas, 
 J. B. Foresman, and D. J. Fox, Gaussian, Inc., Wallingford CT, 2019.
 
 ******************************************
 Gaussian 16:  ES64L-G16RevC.01  3-Jul-2019
                 6-Jun-2022 
 ******************************************
 %mem=8gb
 %nproc=4
 Will use up to    4 processors via shared memory.
 %chk=conf-14.chk
 ----------------------------------------------------------------------
 # B3LYP/6-31G* empiricaldispersion=gd3 guess=read geom=check nosymm in
 tegral(ultrafinegrid)
 ----------------------------------------------------------------------
 1/29=2,38=1,172=1/1;
 2/12=2,15=1,40=1/2;
 3/5=1,6=6,7=1,11=2,14=-4,25=1,30=1,74=-5,75=-5,116=-2,124=31/1,2,3;
 4/5=1/1;
 5/5=2,38=6/2;
 6/7=2,8=2,9=2,10=2,28=1/1;
 99/5=1,9=1/99;
 -----------------------------------------------------
 Candidate Structure: Conf:14 Charge calc in gas phase
 -----------------------------------------------------
 Structure from the checkpoint file:  "conf-14.chk"
 Charge =  1 Multiplicity = 1
 Redundant internal coordinates found in file.  (old form).
 N,0,-4.7593568354,1.2323658978,-2.2769381062
 H,0,-5.2602787061,0.3410532879,-2.2154047381
 H,0,-4.9476259416,1.6561315842,-3.1893008834
 H,0,-5.085681747,1.8598717205,-1.4727476713
 C,0,-3.2821035622,1.1130313935,-1.9540395267
 H,0,-2.9783685695,0.0718317375,-2.0767150111
 C,0,-3.2437437371,1.5488890888,-0.4587410312
 C,0,-2.4668037946,2.047798329,-2.8701721595
 H,0,-2.4610649024,1.6455719267,-3.8909012648
 H,0,-2.9159727511,3.0450260715,-2.877425662
 O,0,-4.2283749745,2.1766924226,-0.0353736446
 C,0,-1.040996493,2.2209104755,-2.3007961164
 N,0,-0.2392288697,1.1391917014,-2.449643263
 H,0,0.7031053085,1.0941295663,-2.0420941429
 H,0,-0.4317001268,0.4503640279,-3.1639918449
 O,0,-0.779208305,3.2187912338,-1.6476125095
 N,0,-2.1633165983,1.2102291254,0.2238424556
 H,0,-1.3641748159,0.7775807888,-0.2435026525
 C,0,-1.8081280686,1.7561886477,1.5361897826
 H,0,-2.4274112422,2.6412177357,1.7095255369
 C,0,-0.3077541414,2.0884555283,1.3957595141
 C,0,-2.0079241698,0.7219681599,2.6904489221
 H,0,-1.1686956795,0.0165065249,2.6309205562
 O,0,0.3891540215,1.3790133729,0.6649796849
 C,0,-3.314106544,-0.0774393213,2.5157923336
 H,0,-3.2899233202,-0.5836404884,1.5428588061
 H,0,-4.1636846691,0.619350021,2.4854856657
 C,0,-1.962598943,1.4241475176,4.0559049683
 H,0,-2.8673554697,2.0252667773,4.2127340263
 H,0,-1.8800144016,0.6887182473,4.8574392475
 H,0,-1.0965506761,2.0837371167,4.1578522046
 C,0,-3.5322712445,-1.1304064193,3.6088723741
 H,0,-4.390962885,-1.7656533061,3.366856299
 H,0,-2.6528368176,-1.7772133264,3.7127338632
 H,0,-3.7253281305,-0.6745668942,4.5843877718
 N,0,0.1887020455,3.0682648211,2.176096083
 H,0,-0.4524972554,3.6682806501,2.6775642468
 C,0,1.6304133717,3.3733378839,2.2403297931
 H,0,1.9547402602,3.7728771312,1.2707840693
 C,0,2.4484122622,2.1031070281,2.5068972028
 C,0,1.882918571,4.4178282037,3.3298893718
 H,0,2.954158232,4.6287576238,3.3817938359
 H,0,1.3673346469,5.3551163152,3.0915818301
 H,0,1.5523197301,4.0651555916,4.3140375916
 O,0,3.5658966168,1.9559367845,2.0181040562
 N,0,1.8832479172,1.2064866505,3.3595240896
 H,0,0.9094068929,1.3026799469,3.6147732107
 C,0,2.4310006516,-0.1237867516,3.5722542403
 H,0,3.5122089841,-0.0291633567,3.7124932075
 C,0,2.1514521042,-0.9993728371,2.3297253063
 C,0,1.777376457,-0.7446543647,4.8253027106
 H,0,2.1613939191,-1.7713400404,4.9192875165
 O,0,1.1931041229,-1.7882528663,2.2752139421
 C,0,2.0847253397,0.0303849022,6.0975050111
 H,0,3.1622240076,0.0496974939,6.2913796427
 H,0,1.5820833625,-0.4451620356,6.9442026254
 H,0,1.7289204723,1.0623930451,6.0198141493
 O,0,0.3576189898,-0.7696574319,4.6544430022
 H,0,0.2280602563,-1.3492839842,3.8754192627
 N,0,3.0258303183,-0.8486188988,1.319054368
 H,0,3.7092888825,-0.0931821449,1.3433671261
 C,0,2.946604829,-1.6551024931,0.122928599
 H,0,2.6803606096,-2.6773908509,0.4189192065
 C,0,4.3216295771,-1.623536515,-0.5422027658
 C,0,1.8609559976,-1.1820654414,-0.8837907353
 H,0,0.9642555487,-0.9527879577,-0.305017243
 H,0,1.6309836248,-2.0137907637,-1.570445877
 O,0,5.163153588,-0.7793538477,-0.2576903281
 O,0,2.2030191022,-0.0095562027,-1.6015488852
 H,0,2.8742464652,-0.2172455837,-2.289629011
 N,0,4.53609499,-2.5392165442,-1.5344263188
 H,0,3.7506710732,-3.0769993392,-1.8743821895
 C,0,5.604122144,-2.2434947876,-2.4759908048
 H,0,6.5634414881,-2.2559113823,-1.952338118
 H,0,5.6176632504,-3.019058085,-3.2465398294
 C,0,5.32919221,-0.8835507093,-3.1425167098
 O,0,4.1870788743,-0.6127337449,-3.537775946
 N,0,6.3840645819,-0.0605882222,-3.2588160131
 H,0,7.2532849898,-0.3130838969,-2.8074218233
 C,0,6.3059375545,1.2756509203,-3.8431769262
 H,0,5.535077014,1.247201284,-4.6175189565
 C,0,7.610265081,1.6571625729,-4.5300421934
 C,0,5.9369595766,2.3806269687,-2.8198251096
 H,0,6.6822734794,2.3906460124,-2.0138259307
 H,0,6.0195181601,3.3375453873,-3.3499195601
 O,0,7.6979614576,2.5270990129,-5.3619650245
 C,0,4.521801223,2.2104920347,-2.2571597812
 H,0,3.8485616633,1.9934518204,-3.0970390731
 H,0,4.4850506344,1.339314186,-1.5976267357
 C,0,3.9887261413,3.4341787287,-1.4996948835
 H,0,4.2632771932,4.3561017509,-2.0361216489
 H,0,4.4296400843,3.4971021301,-0.4976813398
 C,0,2.4657534697,3.3609108073,-1.378866908
 H,0,2.0417717911,3.2243476562,-2.3911901071
 H,0,2.1944867187,2.4731691711,-0.7985041128
 N,0,1.9068504152,4.5349819241,-0.6946716144
 H,0,0.8932132128,4.4957240623,-0.791424949
 H,0,2.2095647371,5.3843268456,-1.1715930779
 O,0,8.6755517785,0.9649769096,-4.0530958503
 H,0,9.4667106643,1.3100101997,-4.5090219208
 Recover connectivity data from disk.
                           ----------------------------
                           !    Current Parameters    !
                           ! (Angstroms and Degrees)  !
 --------------------------                            --------------------------
 ! Name  Definition              Value                                          !
 --------------------------------------------------------------------------------
 ! R1    R(1,2)                  1.0243                                         !
 ! R2    R(1,3)                  1.0234                                         !
 ! R3    R(1,4)                  1.071                                          !
 ! R4    R(1,5)                  1.5168                                         !
 ! R5    R(5,6)                  1.0915                                         !
 ! R6    R(5,7)                  1.558                                          !
 ! R7    R(5,8)                  1.542                                          !
 ! R8    R(7,11)                 1.2421                                         !
 ! R9    R(7,17)                 1.3221                                         !
 ! R10   R(8,9)                  1.0971                                         !
 ! R11   R(8,10)                 1.0937                                         !
 ! R12   R(8,12)                 1.545                                          !
 ! R13   R(12,13)                1.3547                                         !
 ! R14   R(12,16)                1.221                                          !
 ! R15   R(13,14)                1.0277                                         !
 ! R16   R(13,15)                1.0109                                         !
 ! R17   R(17,18)                1.0219                                         !
 ! R18   R(17,19)                1.4651                                         !
 ! R19   R(19,20)                1.094                                          !
 ! R20   R(19,21)                1.5431                                         !
 ! R21   R(19,22)                1.5626                                         !
 ! R22   R(21,24)                1.2341                                         !
 ! R23   R(21,36)                1.3474                                         !
 ! R24   R(22,23)                1.098                                          !
 ! R25   R(22,25)                1.5413                                         !
 ! R26   R(22,28)                1.5361                                         !
 ! R27   R(25,26)                1.097                                          !
 ! R28   R(25,27)                1.0992                                         !
 ! R29   R(25,32)                1.5333                                         !
 ! R30   R(28,29)                1.0975                                         !
 ! R31   R(28,30)                1.0909                                         !
 ! R32   R(28,31)                1.0934                                         !
 ! R33   R(32,33)                1.0952                                         !
 ! R34   R(32,34)                1.0966                                         !
 ! R35   R(32,35)                1.0939                                         !
 ! R36   R(36,37)                1.0112                                         !
 ! R37   R(36,38)                1.475                                          !
 ! R38   R(38,39)                1.0977                                         !
 ! R39   R(38,40)                1.5342                                         !
 ! R40   R(38,41)                1.5303                                         !
 ! R41   R(40,45)                1.2286                                         !
 ! R42   R(40,46)                1.3603                                         !
 ! R43   R(41,42)                1.093                                          !
 ! R44   R(41,43)                1.096                                          !
 ! R45   R(41,44)                1.0965                                         !
 ! R46   R(46,47)                1.0113                                         !
 ! R47   R(46,48)                1.4543                                         !
 ! R48   R(48,49)                1.0944                                         !
 ! R49   R(48,50)                1.5455                                         !
 ! R50   R(48,51)                1.5436                                         !
 ! R51   R(50,53)                1.2425                                         !
 ! R52   R(50,60)                1.3449                                         !
 ! R53   R(51,52)                1.1002                                         !
 ! R54   R(51,54)                1.5211                                         !
 ! R55   R(51,58)                1.4302                                         !
 ! R56   R(54,55)                1.095                                          !
 ! R57   R(54,56)                1.0935                                         !
 ! R58   R(54,57)                1.0944                                         !
 ! R59   R(58,59)                0.9796                                         !
 ! R60   R(60,61)                1.019                                          !
 ! R61   R(60,62)                1.4448                                         !
 ! R62   R(62,63)                1.0971                                         !
 ! R63   R(62,64)                1.5278                                         !
 ! R64   R(62,65)                1.5543                                         !
 ! R65   R(64,68)                1.2255                                         !
 ! R66   R(64,71)                1.3671                                         !
 ! R67   R(65,66)                1.0916                                         !
 ! R68   R(65,67)                1.1028                                         !
 ! R69   R(65,69)                1.4167                                         !
 ! R70   R(69,70)                0.9834                                         !
 ! R71   R(71,72)                1.0108                                         !
 ! R72   R(71,73)                1.4542                                         !
 ! R73   R(73,74)                1.093                                          !
 ! R74   R(73,75)                1.0934                                         !
 ! R75   R(73,76)                1.5393                                         !
 ! R76   R(76,77)                1.2385                                         !
 ! R77   R(76,78)                1.343                                          !
 ! R78   R(78,79)                1.0115                                         !
 ! R79   R(78,80)                1.4605                                         !
 ! R80   R(80,81)                1.093                                          !
 ! R81   R(80,82)                1.5227                                         !
 ! R82   R(80,83)                1.5506                                         !
 ! R83   R(82,86)                1.2069                                         !
 ! R84   R(82,99)                1.357                                          !
 ! R85   R(83,84)                1.0978                                         !
 ! R86   R(83,85)                1.097                                          !
 ! R87   R(83,87)                1.5324                                         !
 ! R88   R(87,88)                1.0981                                         !
 ! R89   R(87,89)                1.0933                                         !
 ! R90   R(87,90)                1.5347                                         !
 ! R91   R(90,91)                1.1014                                         !
 ! R92   R(90,92)                1.0965                                         !
 ! R93   R(90,93)                1.5295                                         !
 ! R94   R(93,94)                1.106                                          !
 ! R95   R(93,95)                1.0948                                         !
 ! R96   R(93,96)                1.4693                                         !
 ! R97   R(96,97)                1.019                                          !
 ! R98   R(96,98)                1.02                                           !
 ! R99   R(99,100)               0.9761                                         !
 ! A1    A(2,1,3)              108.8989                                         !
 ! A2    A(2,1,4)              108.4054                                         !
 ! A3    A(2,1,5)              113.2684                                         !
 ! A4    A(3,1,4)              111.7615                                         !
 ! A5    A(3,1,5)              113.6723                                         !
 ! A6    A(4,1,5)              100.5444                                         !
 ! A7    A(1,5,6)              108.7918                                         !
 ! A8    A(1,5,7)              101.9044                                         !
 ! A9    A(1,5,8)              109.9234                                         !
 ! A10   A(6,5,7)              111.5846                                         !
 ! A11   A(6,5,8)              111.3679                                         !
 ! A12   A(7,5,8)              112.8053                                         !
 ! A13   A(5,7,11)             116.6797                                         !
 ! A14   A(5,7,17)             116.3576                                         !
 ! A15   A(11,7,17)            126.9627                                         !
 ! A16   A(5,8,9)              109.467                                          !
 ! A17   A(5,8,10)             109.8473                                         !
 ! A18   A(5,8,12)             109.6884                                         !
 ! A19   A(9,8,10)             109.2835                                         !
 ! A20   A(9,8,12)             112.2785                                         !
 ! A21   A(10,8,12)            106.2167                                         !
 ! A22   A(8,12,13)            114.5968                                         !
 ! A23   A(8,12,16)            119.1147                                         !
 ! A24   A(13,12,16)           125.765                                          !
 ! A25   A(12,13,14)           122.2861                                         !
 ! A26   A(12,13,15)           120.6033                                         !
 ! A27   A(14,13,15)           115.1483                                         !
 ! A28   A(7,17,18)            120.7584                                         !
 ! A29   A(7,17,19)            124.4113                                         !
 ! A30   A(18,17,19)           112.2001                                         !
 ! A31   A(17,19,20)           107.8276                                         !
 ! A32   A(17,19,21)           103.5586                                         !
 ! A33   A(17,19,22)           112.583                                          !
 ! A34   A(20,19,21)           112.9929                                         !
 ! A35   A(20,19,22)           110.2434                                         !
 ! A36   A(21,19,22)           109.5144                                         !
 ! A37   A(19,21,24)           118.6311                                         !
 ! A38   A(19,21,36)           117.5246                                         !
 ! A39   A(24,21,36)           123.567                                          !
 ! A40   A(19,22,23)           106.7065                                         !
 ! A41   A(19,22,25)           111.5871                                         !
 ! A42   A(19,22,28)           110.5052                                         !
 ! A43   A(23,22,25)           107.9603                                         !
 ! A44   A(23,22,28)           108.6236                                         !
 ! A45   A(25,22,28)           111.2735                                         !
 ! A46   A(22,25,26)           108.7321                                         !
 ! A47   A(22,25,27)           109.2291                                         !
 ! A48   A(22,25,32)           113.3257                                         !
 ! A49   A(26,25,27)           106.5646                                         !
 ! A50   A(26,25,32)           108.5726                                         !
 ! A51   A(27,25,32)           110.1818                                         !
 ! A52   A(22,28,29)           110.6751                                         !
 ! A53   A(22,28,30)           110.3151                                         !
 ! A54   A(22,28,31)           112.4585                                         !
 ! A55   A(29,28,30)           109.0653                                         !
 ! A56   A(29,28,31)           108.0132                                         !
 ! A57   A(30,28,31)           106.1531                                         !
 ! A58   A(25,32,33)           110.6303                                         !
 ! A59   A(25,32,34)           111.0052                                         !
 ! A60   A(25,32,35)           112.0034                                         !
 ! A61   A(33,32,34)           107.914                                          !
 ! A62   A(33,32,35)           107.4808                                         !
 ! A63   A(34,32,35)           107.6288                                         !
 ! A64   A(21,36,37)           119.0153                                         !
 ! A65   A(21,36,38)           122.3955                                         !
 ! A66   A(37,36,38)           118.3873                                         !
 ! A67   A(36,38,39)           109.0029                                         !
 ! A68   A(36,38,40)           110.9447                                         !
 ! A69   A(36,38,41)           109.478                                          !
 ! A70   A(39,38,40)           107.2959                                         !
 ! A71   A(39,38,41)           109.3718                                         !
 ! A72   A(40,38,41)           110.6969                                         !
 ! A73   A(38,40,45)           120.9999                                         !
 ! A74   A(38,40,46)           115.6666                                         !
 ! A75   A(45,40,46)           123.2533                                         !
 ! A76   A(38,41,42)           109.1009                                         !
 ! A77   A(38,41,43)           110.5655                                         !
 ! A78   A(38,41,44)           111.7015                                         !
 ! A79   A(42,41,43)           107.8392                                         !
 ! A80   A(42,41,44)           108.3577                                         !
 ! A81   A(43,41,44)           109.1719                                         !
 ! A82   A(40,46,47)           119.7086                                         !
 ! A83   A(40,46,48)           122.5576                                         !
 ! A84   A(47,46,48)           114.3794                                         !
 ! A85   A(46,48,49)           108.1663                                         !
 ! A86   A(46,48,50)           109.4202                                         !
 ! A87   A(46,48,51)           109.0972                                         !
 ! A88   A(49,48,50)           109.3118                                         !
 ! A89   A(49,48,51)           110.4319                                         !
 ! A90   A(50,48,51)           110.3744                                         !
 ! A91   A(48,50,53)           122.3093                                         !
 ! A92   A(48,50,60)           115.0279                                         !
 ! A93   A(53,50,60)           122.6617                                         !
 ! A94   A(48,51,52)           107.2709                                         !
 ! A95   A(48,51,54)           112.8573                                         !
 ! A96   A(48,51,58)           109.2924                                         !
 ! A97   A(52,51,54)           109.4826                                         !
 ! A98   A(52,51,58)           109.9006                                         !
 ! A99   A(54,51,58)           108.0236                                         !
 ! A100  A(51,54,55)           110.8495                                         !
 ! A101  A(51,54,56)           109.4602                                         !
 ! A102  A(51,54,57)           110.8195                                         !
 ! A103  A(55,54,56)           108.8389                                         !
 ! A104  A(55,54,57)           108.4132                                         !
 ! A105  A(56,54,57)           108.3987                                         !
 ! A106  A(51,58,59)           103.688                                          !
 ! A107  A(50,60,61)           120.0813                                         !
 ! A108  A(50,60,62)           121.5963                                         !
 ! A109  A(61,60,62)           118.057                                          !
 ! A110  A(60,62,63)           108.0649                                         !
 ! A111  A(60,62,64)           107.4302                                         !
 ! A112  A(60,62,65)           113.8685                                         !
 ! A113  A(63,62,64)           110.8017                                         !
 ! A114  A(63,62,65)           106.788                                          !
 ! A115  A(64,62,65)           109.8996                                         !
 ! A116  A(62,64,68)           122.0865                                         !
 ! A117  A(62,64,71)           116.3166                                         !
 ! A118  A(68,64,71)           121.4785                                         !
 ! A119  A(62,65,66)           107.114                                          !
 ! A120  A(62,65,67)           108.6275                                         !
 ! A121  A(62,65,69)           114.2922                                         !
 ! A122  A(66,65,67)           108.4959                                         !
 ! A123  A(66,65,69)           107.0456                                         !
 ! A124  A(67,65,69)           111.0449                                         !
 ! A125  A(65,69,70)           110.1514                                         !
 ! A126  A(64,71,72)           118.5919                                         !
 ! A127  A(64,71,73)           116.6758                                         !
 ! A128  A(72,71,73)           117.46                                           !
 ! A129  A(71,73,74)           109.3963                                         !
 ! A130  A(71,73,75)           108.7333                                         !
 ! A131  A(71,73,76)           109.1996                                         !
 ! A132  A(74,73,75)           108.5853                                         !
 ! A133  A(74,73,76)           111.9786                                         !
 ! A134  A(75,73,76)           108.8899                                         !
 ! A135  A(73,76,77)           119.7412                                         !
 ! A136  A(73,76,78)           116.0155                                         !
 ! A137  A(77,76,78)           124.2424                                         !
 ! A138  A(76,78,79)           118.9075                                         !
 ! A139  A(76,78,80)           123.5925                                         !
 ! A140  A(79,78,80)           116.9312                                         !
 ! A141  A(78,80,81)           107.2997                                         !
 ! A142  A(78,80,82)           111.3393                                         !
 ! A143  A(78,80,83)           113.6185                                         !
 ! A144  A(81,80,82)           106.9224                                         !
 ! A145  A(81,80,83)           108.5592                                         !
 ! A146  A(82,80,83)           108.8439                                         !
 ! A147  A(80,82,86)           123.6267                                         !
 ! A148  A(80,82,99)           112.7124                                         !
 ! A149  A(86,82,99)           123.5667                                         !
 ! A150  A(80,83,84)           109.2377                                         !
 ! A151  A(80,83,85)           106.5458                                         !
 ! A152  A(80,83,87)           112.5175                                         !
 ! A153  A(84,83,85)           107.1997                                         !
 ! A154  A(84,83,87)           111.0019                                         !
 ! A155  A(85,83,87)           110.1065                                         !
 ! A156  A(83,87,88)           107.897                                          !
 ! A157  A(83,87,89)           109.9389                                         !
 ! A158  A(83,87,90)           114.4232                                         !
 ! A159  A(88,87,89)           106.4573                                         !
 ! A160  A(88,87,90)           108.7926                                         !
 ! A161  A(89,87,90)           109.0224                                         !
 ! A162  A(87,90,91)           109.9041                                         !
 ! A163  A(87,90,92)           110.9221                                         !
 ! A164  A(87,90,93)           110.2829                                         !
 ! A165  A(91,90,92)           107.265                                          !
 ! A166  A(91,90,93)           109.0735                                         !
 ! A167  A(92,90,93)           109.3257                                         !
 ! A168  A(90,93,94)           108.3801                                         !
 ! A169  A(90,93,95)           109.1141                                         !
 ! A170  A(90,93,96)           112.1641                                         !
 ! A171  A(94,93,95)           106.865                                          !
 ! A172  A(94,93,96)           112.2755                                         !
 ! A173  A(95,93,96)           107.8692                                         !
 ! A174  A(93,96,97)           107.6607                                         !
 ! A175  A(93,96,98)           109.5566                                         !
 ! A176  A(97,96,98)           106.4328                                         !
 ! A177  A(82,99,100)          106.9661                                         !
 ! D1    D(2,1,5,6)             20.5246                                         !
 ! D2    D(2,1,5,7)            -97.4359                                         !
 ! D3    D(2,1,5,8)            142.713                                          !
 ! D4    D(3,1,5,6)           -104.469                                          !
 ! D5    D(3,1,5,7)            137.5705                                         !
 ! D6    D(3,1,5,8)             17.7194                                         !
 ! D7    D(4,1,5,6)            135.9693                                         !
 ! D8    D(4,1,5,7)             18.0088                                         !
 ! D9    D(4,1,5,8)           -101.8423                                         !
 ! D10   D(1,5,7,11)           -17.9322                                         !
 ! D11   D(1,5,7,17)           162.1069                                         !
 ! D12   D(6,5,7,11)          -133.8728                                         !
 ! D13   D(6,5,7,17)            46.1663                                         !
 ! D14   D(8,5,7,11)            99.8704                                         !
 ! D15   D(8,5,7,17)           -80.0906                                         !
 ! D16   D(1,5,8,9)            -71.744                                          !
 ! D17   D(1,5,8,10)            48.2542                                         !
 ! D18   D(1,5,8,12)           164.6457                                         !
 ! D19   D(6,5,8,9)             48.9026                                         !
 ! D20   D(6,5,8,10)           168.9008                                         !
 ! D21   D(6,5,8,12)           -74.7078                                         !
 ! D22   D(7,5,8,9)            175.2754                                         !
 ! D23   D(7,5,8,10)           -64.7264                                         !
 ! D24   D(7,5,8,12)            51.6651                                         !
 ! D25   D(5,7,17,18)            6.41                                           !
 ! D26   D(5,7,17,19)          166.5677                                         !
 ! D27   D(11,7,17,18)        -173.5463                                         !
 ! D28   D(11,7,17,19)         -13.3886                                         !
 ! D29   D(5,8,12,13)           73.2951                                         !
 ! D30   D(5,8,12,16)          -98.8834                                         !
 ! D31   D(9,8,12,13)          -48.6501                                         !
 ! D32   D(9,8,12,16)          139.1714                                         !
 ! D33   D(10,8,12,13)        -168.045                                          !
 ! D34   D(10,8,12,16)          19.7764                                         !
 ! D35   D(8,12,13,14)        -174.4757                                         !
 ! D36   D(8,12,13,15)          22.2397                                         !
 ! D37   D(16,12,13,14)         -2.9011                                         !
 ! D38   D(16,12,13,15)       -166.1857                                         !
 ! D39   D(7,17,19,20)         -14.3042                                         !
 ! D40   D(7,17,19,21)        -134.2803                                         !
 ! D41   D(7,17,19,22)         107.5257                                         !
 ! D42   D(18,17,19,20)        147.3327                                         !
 ! D43   D(18,17,19,21)         27.3565                                         !
 ! D44   D(18,17,19,22)        -90.8374                                         !
 ! D45   D(17,19,21,24)        -32.4456                                         !
 ! D46   D(17,19,21,36)        153.3851                                         !
 ! D47   D(20,19,21,24)       -148.8332                                         !
 ! D48   D(20,19,21,36)         36.9975                                         !
 ! D49   D(22,19,21,24)         87.8574                                         !
 ! D50   D(22,19,21,36)        -86.3119                                         !
 ! D51   D(17,19,22,23)         76.0573                                         !
 ! D52   D(17,19,22,25)        -41.652                                          !
 ! D53   D(17,19,22,28)       -166.0236                                         !
 ! D54   D(20,19,22,23)       -163.4925                                         !
 ! D55   D(20,19,22,25)         78.7982                                         !
 ! D56   D(20,19,22,28)        -45.5733                                         !
 ! D57   D(21,19,22,23)        -38.5743                                         !
 ! D58   D(21,19,22,25)       -156.2837                                         !
 ! D59   D(21,19,22,28)         79.3448                                         !
 ! D60   D(19,21,36,37)        -12.191                                          !
 ! D61   D(19,21,36,38)        173.0579                                         !
 ! D62   D(24,21,36,37)        173.9522                                         !
 ! D63   D(24,21,36,38)         -0.799                                          !
 ! D64   D(19,22,25,26)         57.6896                                         !
 ! D65   D(19,22,25,27)        -58.2302                                         !
 ! D66   D(19,22,25,32)        178.5186                                         !
 ! D67   D(23,22,25,26)        -59.2626                                         !
 ! D68   D(23,22,25,27)       -175.1824                                         !
 ! D69   D(23,22,25,32)         61.5664                                         !
 ! D70   D(28,22,25,26)       -178.3711                                         !
 ! D71   D(28,22,25,27)         65.7091                                         !
 ! D72   D(28,22,25,32)        -57.5421                                         !
 ! D73   D(19,22,28,29)         71.6956                                         !
 ! D74   D(19,22,28,30)       -167.5076                                         !
 ! D75   D(19,22,28,31)        -49.211                                          !
 ! D76   D(23,22,28,29)       -171.5668                                         !
 ! D77   D(23,22,28,30)        -50.77                                           !
 ! D78   D(23,22,28,31)         67.5266                                         !
 ! D79   D(25,22,28,29)        -52.8553                                         !
 ! D80   D(25,22,28,30)         67.9415                                         !
 ! D81   D(25,22,28,31)       -173.7619                                         !
 ! D82   D(22,25,32,33)       -171.8959                                         !
 ! D83   D(22,25,32,34)        -52.1194                                         !
 ! D84   D(22,25,32,35)         68.2154                                         !
 ! D85   D(26,25,32,33)        -50.9768                                         !
 ! D86   D(26,25,32,34)         68.7997                                         !
 ! D87   D(26,25,32,35)       -170.8655                                         !
 ! D88   D(27,25,32,33)         65.3786                                         !
 ! D89   D(27,25,32,34)       -174.8449                                         !
 ! D90   D(27,25,32,35)        -54.5101                                         !
 ! D91   D(21,36,38,39)         66.9607                                         !
 ! D92   D(21,36,38,40)        -50.9766                                         !
 ! D93   D(21,36,38,41)       -173.441                                          !
 ! D94   D(37,36,38,39)       -107.822                                          !
 ! D95   D(37,36,38,40)        134.2408                                         !
 ! D96   D(37,36,38,41)         11.7763                                         !
 ! D97   D(36,38,40,45)        145.8929                                         !
 ! D98   D(36,38,40,46)        -37.2607                                         !
 ! D99   D(39,38,40,45)         26.923                                          !
 ! D100  D(39,38,40,46)       -156.2306                                         !
 ! D101  D(41,38,40,45)        -92.353                                          !
 ! D102  D(41,38,40,46)         84.4934                                         !
 ! D103  D(36,38,41,42)        179.2062                                         !
 ! D104  D(36,38,41,43)        -62.357                                          !
 ! D105  D(36,38,41,44)         59.4346                                         !
 ! D106  D(39,38,41,42)        -61.4226                                         !
 ! D107  D(39,38,41,43)         57.0143                                         !
 ! D108  D(39,38,41,44)        178.8059                                         !
 ! D109  D(40,38,41,42)         56.594                                          !
 ! D110  D(40,38,41,43)        175.0309                                         !
 ! D111  D(40,38,41,44)        -63.1775                                         !
 ! D112  D(38,40,46,47)         12.9376                                         !
 ! D113  D(38,40,46,48)        171.0885                                         !
 ! D114  D(45,40,46,47)       -170.295                                          !
 ! D115  D(45,40,46,48)        -12.1441                                         !
 ! D116  D(40,46,48,49)         46.1363                                         !
 ! D117  D(40,46,48,50)        -72.859                                          !
 ! D118  D(40,46,48,51)        166.296                                          !
 ! D119  D(47,46,48,49)       -154.6505                                         !
 ! D120  D(47,46,48,50)         86.3543                                         !
 ! D121  D(47,46,48,51)        -34.4907                                         !
 ! D122  D(46,48,50,53)        -97.6521                                         !
 ! D123  D(46,48,50,60)         82.7226                                         !
 ! D124  D(49,48,50,53)        144.0642                                         !
 ! D125  D(49,48,50,60)        -35.5611                                         !
 ! D126  D(51,48,50,53)         22.4136                                         !
 ! D127  D(51,48,50,60)       -157.2117                                         !
 ! D128  D(46,48,51,52)        176.2862                                         !
 ! D129  D(46,48,51,54)        -63.0439                                         !
 ! D130  D(46,48,51,58)         57.1753                                         !
 ! D131  D(49,48,51,52)        -64.9589                                         !
 ! D132  D(49,48,51,54)         55.711                                          !
 ! D133  D(49,48,51,58)        175.9302                                         !
 ! D134  D(50,48,51,52)         56.0263                                         !
 ! D135  D(50,48,51,54)        176.6961                                         !
 ! D136  D(50,48,51,58)        -63.0846                                         !
 ! D137  D(48,50,60,61)         -9.8377                                         !
 ! D138  D(48,50,60,62)        176.196                                          !
 ! D139  D(53,50,60,61)        170.5385                                         !
 ! D140  D(53,50,60,62)         -3.4278                                         !
 ! D141  D(48,51,54,55)        -60.9389                                         !
 ! D142  D(48,51,54,56)        178.9923                                         !
 ! D143  D(48,51,54,57)         59.4876                                         !
 ! D144  D(52,51,54,55)         58.46                                           !
 ! D145  D(52,51,54,56)        -61.6088                                         !
 ! D146  D(52,51,54,57)        178.8865                                         !
 ! D147  D(58,51,54,55)        178.1168                                         !
 ! D148  D(58,51,54,56)         58.048                                          !
 ! D149  D(58,51,54,57)        -61.4566                                         !
 ! D150  D(48,51,58,59)         62.056                                          !
 ! D151  D(52,51,58,59)        -55.4116                                         !
 ! D152  D(54,51,58,59)       -174.8044                                         !
 ! D153  D(50,60,62,63)        -39.2084                                         !
 ! D154  D(50,60,62,64)       -158.8077                                         !
 ! D155  D(50,60,62,65)         79.2516                                         !
 ! D156  D(61,60,62,63)        146.7076                                         !
 ! D157  D(61,60,62,64)         27.1082                                         !
 ! D158  D(61,60,62,65)        -94.8325                                         !
 ! D159  D(60,62,64,68)        -16.881                                          !
 ! D160  D(60,62,64,71)        167.0214                                         !
 ! D161  D(63,62,64,68)       -134.7178                                         !
 ! D162  D(63,62,64,71)         49.1846                                         !
 ! D163  D(65,62,64,68)        107.5001                                         !
 ! D164  D(65,62,64,71)        -68.5975                                         !
 ! D165  D(60,62,65,66)        -43.8555                                         !
 ! D166  D(60,62,65,67)       -160.8607                                         !
 ! D167  D(60,62,65,69)         74.5353                                         !
 ! D168  D(63,62,65,66)         75.3328                                         !
 ! D169  D(63,62,65,67)        -41.6724                                         !
 ! D170  D(63,62,65,69)       -166.2764                                         !
 ! D171  D(64,62,65,66)       -164.4216                                         !
 ! D172  D(64,62,65,67)         78.5732                                         !
 ! D173  D(64,62,65,69)        -46.0307                                         !
 ! D174  D(62,64,71,72)          9.5719                                         !
 ! D175  D(62,64,71,73)        159.0648                                         !
 ! D176  D(68,64,71,72)       -166.5513                                         !
 ! D177  D(68,64,71,73)        -17.0584                                         !
 ! D178  D(62,65,69,70)         74.438                                          !
 ! D179  D(66,65,69,70)       -167.1323                                         !
 ! D180  D(67,65,69,70)        -48.8708                                         !
 ! D181  D(64,71,73,74)         65.351                                          !
 ! D182  D(64,71,73,75)       -176.2117                                         !
 ! D183  D(64,71,73,76)        -57.5205                                         !
 ! D184  D(72,71,73,74)       -144.8036                                         !
 ! D185  D(72,71,73,75)        -26.3663                                         !
 ! D186  D(72,71,73,76)         92.325                                          !
 ! D187  D(71,73,76,77)        -44.054                                          !
 ! D188  D(71,73,76,78)        136.2771                                         !
 ! D189  D(74,73,76,77)       -165.3705                                         !
 ! D190  D(74,73,76,78)         14.9606                                         !
 ! D191  D(75,73,76,77)         74.5395                                         !
 ! D192  D(75,73,76,78)       -105.1294                                         !
 ! D193  D(73,76,78,79)         -7.854                                          !
 ! D194  D(73,76,78,80)       -178.9298                                         !
 ! D195  D(77,76,78,79)        172.4938                                         !
 ! D196  D(77,76,78,80)          1.4179                                         !
 ! D197  D(76,78,80,81)        -32.1837                                         !
 ! D198  D(76,78,80,82)       -148.8624                                         !
 ! D199  D(76,78,80,83)         87.8188                                         !
 ! D200  D(79,78,80,81)        156.5776                                         !
 ! D201  D(79,78,80,82)         39.8988                                         !
 ! D202  D(79,78,80,83)        -83.42                                           !
 ! D203  D(78,80,82,86)        160.2315                                         !
 ! D204  D(78,80,82,99)        -23.1883                                         !
 ! D205  D(81,80,82,86)         43.3228                                         !
 ! D206  D(81,80,82,99)       -140.097                                          !
 ! D207  D(83,80,82,86)        -73.7658                                         !
 ! D208  D(83,80,82,99)        102.8144                                         !
 ! D209  D(78,80,83,84)         58.366                                          !
 ! D210  D(78,80,83,85)        173.8587                                         !
 ! D211  D(78,80,83,87)        -65.3859                                         !
 ! D212  D(81,80,83,84)        177.6524                                         !
 ! D213  D(81,80,83,85)        -66.8549                                         !
 ! D214  D(81,80,83,87)         53.9004                                         !
 ! D215  D(82,80,83,84)        -66.3064                                         !
 ! D216  D(82,80,83,85)         49.1863                                         !
 ! D217  D(82,80,83,87)        169.9416                                         !
 ! D218  D(80,82,99,100)      -176.7023                                         !
 ! D219  D(86,82,99,100)        -0.1197                                         !
 ! D220  D(80,83,87,88)        -45.3817                                         !
 ! D221  D(80,83,87,89)         70.3298                                         !
 ! D222  D(80,83,87,90)       -166.6094                                         !
 ! D223  D(84,83,87,88)       -168.1482                                         !
 ! D224  D(84,83,87,89)        -52.4367                                         !
 ! D225  D(84,83,87,90)         70.6241                                         !
 ! D226  D(85,83,87,88)         73.3074                                         !
 ! D227  D(85,83,87,89)       -170.9811                                         !
 ! D228  D(85,83,87,90)        -47.9203                                         !
 ! D229  D(83,87,90,91)         41.3444                                         !
 ! D230  D(83,87,90,92)        -77.103                                          !
 ! D231  D(83,87,90,93)        161.6313                                         !
 ! D232  D(88,87,90,91)        -79.3887                                         !
 ! D233  D(88,87,90,92)        162.1639                                         !
 ! D234  D(88,87,90,93)         40.8981                                         !
 ! D235  D(89,87,90,91)        164.8986                                         !
 ! D236  D(89,87,90,92)         46.4513                                         !
 ! D237  D(89,87,90,93)        -74.8145                                         !
 ! D238  D(87,90,93,94)        -53.749                                          !
 ! D239  D(87,90,93,95)         62.272                                          !
 ! D240  D(87,90,93,96)       -178.2668                                         !
 ! D241  D(91,90,93,94)         67.0362                                         !
 ! D242  D(91,90,93,95)       -176.9428                                         !
 ! D243  D(91,90,93,96)        -57.4816                                         !
 ! D244  D(92,90,93,94)       -175.9605                                         !
 ! D245  D(92,90,93,95)        -59.9394                                         !
 ! D246  D(92,90,93,96)         59.5218                                         !
 ! D247  D(90,93,96,97)        170.5065                                         !
 ! D248  D(90,93,96,98)         55.1558                                         !
 ! D249  D(94,93,96,97)         48.1759                                         !
 ! D250  D(94,93,96,98)        -67.1748                                         !
 ! D251  D(95,93,96,97)        -69.306                                          !
 ! D252  D(95,93,96,98)        175.3433                                         !
 --------------------------------------------------------------------------------
 Symmetry turned off by external request.
 Stoichiometry    C28H52N9O11(1+)
 Framework group  C1[X(C28H52N9O11)]
 Deg. of freedom   294
 Full point group                 C1      NOp   1
                          Input orientation:                          
 ---------------------------------------------------------------------
 Center     Atomic      Atomic             Coordinates (Angstroms)
 Number     Number       Type             X           Y           Z
 ---------------------------------------------------------------------
      1          7           0       -4.759357    1.232366   -2.276938
      2          1           0       -5.260279    0.341053   -2.215405
      3          1           0       -4.947626    1.656132   -3.189301
      4          1           0       -5.085682    1.859872   -1.472748
      5          6           0       -3.282104    1.113031   -1.954040
      6          1           0       -2.978369    0.071832   -2.076715
      7          6           0       -3.243744    1.548889   -0.458741
      8          6           0       -2.466804    2.047798   -2.870172
      9          1           0       -2.461065    1.645572   -3.890901
     10          1           0       -2.915973    3.045026   -2.877426
     11          8           0       -4.228375    2.176692   -0.035374
     12          6           0       -1.040996    2.220910   -2.300796
     13          7           0       -0.239229    1.139192   -2.449643
     14          1           0        0.703105    1.094130   -2.042094
     15          1           0       -0.431700    0.450364   -3.163992
     16          8           0       -0.779208    3.218791   -1.647613
     17          7           0       -2.163317    1.210229    0.223842
     18          1           0       -1.364175    0.777581   -0.243503
     19          6           0       -1.808128    1.756189    1.536190
     20          1           0       -2.427411    2.641218    1.709526
     21          6           0       -0.307754    2.088456    1.395760
     22          6           0       -2.007924    0.721968    2.690449
     23          1           0       -1.168696    0.016507    2.630921
     24          8           0        0.389154    1.379013    0.664980
     25          6           0       -3.314107   -0.077439    2.515792
     26          1           0       -3.289923   -0.583640    1.542859
     27          1           0       -4.163685    0.619350    2.485486
     28          6           0       -1.962599    1.424148    4.055905
     29          1           0       -2.867355    2.025267    4.212734
     30          1           0       -1.880014    0.688718    4.857439
     31          1           0       -1.096551    2.083737    4.157852
     32          6           0       -3.532271   -1.130406    3.608872
     33          1           0       -4.390963   -1.765653    3.366856
     34          1           0       -2.652837   -1.777213    3.712734
     35          1           0       -3.725328   -0.674567    4.584388
     36          7           0        0.188702    3.068265    2.176096
     37          1           0       -0.452497    3.668281    2.677564
     38          6           0        1.630413    3.373338    2.240330
     39          1           0        1.954740    3.772877    1.270784
     40          6           0        2.448412    2.103107    2.506897
     41          6           0        1.882919    4.417828    3.329889
     42          1           0        2.954158    4.628758    3.381794
     43          1           0        1.367335    5.355116    3.091582
     44          1           0        1.552320    4.065156    4.314038
     45          8           0        3.565897    1.955937    2.018104
     46          7           0        1.883248    1.206487    3.359524
     47          1           0        0.909407    1.302680    3.614773
     48          6           0        2.431001   -0.123787    3.572254
     49          1           0        3.512209   -0.029163    3.712493
     50          6           0        2.151452   -0.999373    2.329725
     51          6           0        1.777376   -0.744654    4.825303
     52          1           0        2.161394   -1.771340    4.919288
     53          8           0        1.193104   -1.788253    2.275214
     54          6           0        2.084725    0.030385    6.097505
     55          1           0        3.162224    0.049697    6.291380
     56          1           0        1.582083   -0.445162    6.944203
     57          1           0        1.728920    1.062393    6.019814
     58          8           0        0.357619   -0.769657    4.654443
     59          1           0        0.228060   -1.349284    3.875419
     60          7           0        3.025830   -0.848619    1.319054
     61          1           0        3.709289   -0.093182    1.343367
     62          6           0        2.946605   -1.655102    0.122929
     63          1           0        2.680361   -2.677391    0.418919
     64          6           0        4.321630   -1.623537   -0.542203
     65          6           0        1.860956   -1.182065   -0.883791
     66          1           0        0.964256   -0.952788   -0.305017
     67          1           0        1.630984   -2.013791   -1.570446
     68          8           0        5.163154   -0.779354   -0.257690
     69          8           0        2.203019   -0.009556   -1.601549
     70          1           0        2.874246   -0.217246   -2.289629
     71          7           0        4.536095   -2.539217   -1.534426
     72          1           0        3.750671   -3.076999   -1.874382
     73          6           0        5.604122   -2.243495   -2.475991
     74          1           0        6.563441   -2.255911   -1.952338
     75          1           0        5.617663   -3.019058   -3.246540
     76          6           0        5.329192   -0.883551   -3.142517
     77          8           0        4.187079   -0.612734   -3.537776
     78          7           0        6.384065   -0.060588   -3.258816
     79          1           0        7.253285   -0.313084   -2.807422
     80          6           0        6.305938    1.275651   -3.843177
     81          1           0        5.535077    1.247201   -4.617519
     82          6           0        7.610265    1.657163   -4.530042
     83          6           0        5.936960    2.380627   -2.819825
     84          1           0        6.682273    2.390646   -2.013826
     85          1           0        6.019518    3.337545   -3.349920
     86          8           0        7.697961    2.527099   -5.361965
     87          6           0        4.521801    2.210492   -2.257160
     88          1           0        3.848562    1.993452   -3.097039
     89          1           0        4.485051    1.339314   -1.597627
     90          6           0        3.988726    3.434179   -1.499695
     91          1           0        4.263277    4.356102   -2.036122
     92          1           0        4.429640    3.497102   -0.497681
     93          6           0        2.465753    3.360911   -1.378867
     94          1           0        2.041772    3.224348   -2.391190
     95          1           0        2.194487    2.473169   -0.798504
     96          7           0        1.906850    4.534982   -0.694672
     97          1           0        0.893213    4.495724   -0.791425
     98          1           0        2.209565    5.384327   -1.171593
     99          8           0        8.675552    0.964977   -4.053096
    100          1           0        9.466711    1.310010   -4.509022
 ---------------------------------------------------------------------
 Rotational constants (GHZ):           0.0855912           0.0431543           0.0369448
 Standard basis: 6-31G(d) (6D, 7F)
   824 basis functions,  1552 primitive gaussians,   824 cartesian basis functions
   185 alpha electrons      185 beta electrons
       nuclear repulsion energy      7345.4238956897 Hartrees.
 NAtoms=  100 NActive=  100 NUniq=  100 SFac= 1.00D+00 NAtFMM=   60 NAOKFM=T Big=T
 Integral buffers will be    131072 words long.
 Raffenetti 2 integral format.
 Two-electron integral symmetry is turned off.
 Nuclear repulsion after empirical dispersion term =     7345.2649322186 Hartrees.
 One-electron integrals computed using PRISM.
 NBasis=   824 RedAO= T EigKep=  1.72D-03  NBF=   824
 NBsUse=   824 1.00D-06 EigRej= -1.00D+00 NBFU=   824
 Initial guess from the checkpoint file:  "conf-14.chk"
 B after Tr=     0.000000    0.000000    0.000000
         Rot=    1.000000    0.000000    0.000000    0.000000 Ang=   0.00 deg.
 Requested convergence on RMS density matrix=1.00D-08 within 128 cycles.
 Requested convergence on MAX density matrix=1.00D-06.
 Requested convergence on             energy=1.00D-06.
 No special actions if energy rises.
 SCF Done:  E(RB3LYP) =  -2418.59213889     A.U. after    3 cycles
            NFock=  3  Conv=0.51D-09     -V/T= 2.0092

 **********************************************************************

            Population analysis using the SCF Density.

 **********************************************************************

 Alpha  occ. eigenvalues --  -19.27122 -19.27097 -19.23061 -19.22848 -19.21725
 Alpha  occ. eigenvalues --  -19.20826 -19.20461 -19.20301 -19.20120 -19.19487
 Alpha  occ. eigenvalues --  -19.18359 -14.60859 -14.49288 -14.46211 -14.46014
 Alpha  occ. eigenvalues --  -14.44904 -14.44682 -14.42828 -14.42773 -14.36347
 Alpha  occ. eigenvalues --  -10.43727 -10.42041 -10.41136 -10.39171 -10.38721
 Alpha  occ. eigenvalues --  -10.37486 -10.37242 -10.36030 -10.35511 -10.34971
 Alpha  occ. eigenvalues --  -10.34014 -10.31978 -10.31566 -10.31320 -10.31103
 Alpha  occ. eigenvalues --  -10.30538 -10.29968 -10.29752 -10.28515 -10.26665
 Alpha  occ. eigenvalues --  -10.25851 -10.25600 -10.25184 -10.24885 -10.24806
 Alpha  occ. eigenvalues --  -10.23624 -10.23056 -10.22620  -1.19670  -1.17714
 Alpha  occ. eigenvalues --   -1.14910  -1.14564  -1.13736  -1.13127  -1.11599
 Alpha  occ. eigenvalues --   -1.11212  -1.10021  -1.09842  -1.08732  -1.07676
 Alpha  occ. eigenvalues --   -1.06237  -1.02176  -1.01651  -1.01094  -1.00997
 Alpha  occ. eigenvalues --   -0.99824  -0.98908  -0.94149  -0.92881  -0.90401
 Alpha  occ. eigenvalues --   -0.86940  -0.86236  -0.85092  -0.84103  -0.83153
 Alpha  occ. eigenvalues --   -0.82105  -0.81794  -0.79600  -0.79152  -0.77509
 Alpha  occ. eigenvalues --   -0.75118  -0.74790  -0.74570  -0.73524  -0.72833
 Alpha  occ. eigenvalues --   -0.72574  -0.71263  -0.70281  -0.69147  -0.68907
 Alpha  occ. eigenvalues --   -0.68548  -0.67015  -0.66658  -0.66327  -0.66021
 Alpha  occ. eigenvalues --   -0.65773  -0.65200  -0.64875  -0.64386  -0.63665
 Alpha  occ. eigenvalues --   -0.63132  -0.62424  -0.60975  -0.60324  -0.59755
 Alpha  occ. eigenvalues --   -0.59516  -0.59100  -0.59059  -0.58144  -0.57865
 Alpha  occ. eigenvalues --   -0.57108  -0.56840  -0.56179  -0.55277  -0.55135
 Alpha  occ. eigenvalues --   -0.54812  -0.54611  -0.54046  -0.53924  -0.53689
 Alpha  occ. eigenvalues --   -0.53444  -0.53167  -0.52782  -0.52544  -0.52248
 Alpha  occ. eigenvalues --   -0.51855  -0.51750  -0.51337  -0.50867  -0.50605
 Alpha  occ. eigenvalues --   -0.50543  -0.49908  -0.49703  -0.49449  -0.49267
 Alpha  occ. eigenvalues --   -0.48997  -0.48583  -0.48241  -0.48010  -0.47574
 Alpha  occ. eigenvalues --   -0.47350  -0.46904  -0.46583  -0.46450  -0.46317
 Alpha  occ. eigenvalues --   -0.46184  -0.45924  -0.45665  -0.45158  -0.44545
 Alpha  occ. eigenvalues --   -0.44428  -0.44210  -0.44108  -0.43727  -0.43081
 Alpha  occ. eigenvalues --   -0.42685  -0.42579  -0.42167  -0.41925  -0.41503
 Alpha  occ. eigenvalues --   -0.40880  -0.40797  -0.40695  -0.39856  -0.39483
 Alpha  occ. eigenvalues --   -0.38917  -0.38750  -0.38055  -0.38004  -0.37827
 Alpha  occ. eigenvalues --   -0.36912  -0.36299  -0.35749  -0.35617  -0.35516
 Alpha  occ. eigenvalues --   -0.35249  -0.34979  -0.34264  -0.33933  -0.33655
 Alpha  occ. eigenvalues --   -0.32355  -0.32248  -0.31767  -0.30845  -0.28661
 Alpha virt. eigenvalues --   -0.12847  -0.11852  -0.10501  -0.07731  -0.07458
 Alpha virt. eigenvalues --   -0.06724  -0.06478  -0.05958  -0.05516  -0.04335
 Alpha virt. eigenvalues --   -0.04169  -0.02580  -0.01904  -0.01508  -0.01321
 Alpha virt. eigenvalues --   -0.00014   0.00061   0.00857   0.01668   0.02211
 Alpha virt. eigenvalues --    0.02493   0.02547   0.03344   0.03366   0.03698
 Alpha virt. eigenvalues --    0.04227   0.04317   0.04543   0.05074   0.05519
 Alpha virt. eigenvalues --    0.05903   0.06367   0.06408   0.06816   0.07008
 Alpha virt. eigenvalues --    0.07300   0.07722   0.07982   0.08335   0.08510
 Alpha virt. eigenvalues --    0.08652   0.09023   0.09306   0.09422   0.09478
 Alpha virt. eigenvalues --    0.09905   0.09938   0.10256   0.10290   0.10692
 Alpha virt. eigenvalues --    0.10771   0.11125   0.11226   0.11642   0.11687
 Alpha virt. eigenvalues --    0.11875   0.12272   0.12337   0.12723   0.12920
 Alpha virt. eigenvalues --    0.13130   0.13509   0.13685   0.14232   0.14412
 Alpha virt. eigenvalues --    0.14553   0.14954   0.15367   0.15571   0.15973
 Alpha virt. eigenvalues --    0.16168   0.16792   0.17039   0.17547   0.18049
 Alpha virt. eigenvalues --    0.18269   0.18660   0.18867   0.19384   0.19560
 Alpha virt. eigenvalues --    0.19724   0.20187   0.20262   0.20676   0.20774
 Alpha virt. eigenvalues --    0.21217   0.21440   0.22018   0.22267   0.23030
 Alpha virt. eigenvalues --    0.23889   0.24600   0.25878   0.26700   0.27502
 Alpha virt. eigenvalues --    0.28269   0.28454   0.29013   0.29290   0.30193
 Alpha virt. eigenvalues --    0.30350   0.32230   0.32514   0.33064   0.34773
 Alpha virt. eigenvalues --    0.35383   0.36535   0.37335   0.38172   0.39156
 Alpha virt. eigenvalues --    0.40327   0.41021   0.41838   0.42184   0.43063
 Alpha virt. eigenvalues --    0.43551   0.43987   0.44109   0.44396   0.44965
 Alpha virt. eigenvalues --    0.45074   0.45742   0.45812   0.46250   0.46607
 Alpha virt. eigenvalues --    0.46660   0.47312   0.47711   0.47732   0.48135
 Alpha virt. eigenvalues --    0.48254   0.48535   0.48828   0.49250   0.49738
 Alpha virt. eigenvalues --    0.49840   0.50066   0.50528   0.50809   0.51007
 Alpha virt. eigenvalues --    0.51511   0.51946   0.52560   0.53125   0.53236
 Alpha virt. eigenvalues --    0.53416   0.53759   0.54655   0.55000   0.55151
 Alpha virt. eigenvalues --    0.55962   0.56423   0.56564   0.56884   0.57269
 Alpha virt. eigenvalues --    0.57811   0.58127   0.58415   0.58706   0.58923
 Alpha virt. eigenvalues --    0.59311   0.59578   0.59764   0.59958   0.60129
 Alpha virt. eigenvalues --    0.60997   0.61568   0.61918   0.62189   0.62460
 Alpha virt. eigenvalues --    0.63138   0.63746   0.63910   0.64686   0.64995
 Alpha virt. eigenvalues --    0.65320   0.65926   0.66239   0.66510   0.66922
 Alpha virt. eigenvalues --    0.67075   0.67561   0.68534   0.68934   0.69387
 Alpha virt. eigenvalues --    0.69696   0.70207   0.70557   0.70990   0.71351
 Alpha virt. eigenvalues --    0.71674   0.72044   0.72210   0.72761   0.72989
 Alpha virt. eigenvalues --    0.73147   0.73536   0.73681   0.74166   0.74736
 Alpha virt. eigenvalues --    0.74843   0.75155   0.75439   0.75727   0.76216
 Alpha virt. eigenvalues --    0.76295   0.76645   0.77125   0.77329   0.77655
 Alpha virt. eigenvalues --    0.77748   0.78270   0.78685   0.79068   0.79239
 Alpha virt. eigenvalues --    0.79426   0.79789   0.80059   0.80279   0.80500
 Alpha virt. eigenvalues --    0.81067   0.81370   0.81645   0.81821   0.81914
 Alpha virt. eigenvalues --    0.82066   0.82452   0.82591   0.82943   0.83455
 Alpha virt. eigenvalues --    0.83547   0.83718   0.84061   0.84396   0.84604
 Alpha virt. eigenvalues --    0.84734   0.85116   0.85296   0.85883   0.86101
 Alpha virt. eigenvalues --    0.86620   0.86949   0.87139   0.87524   0.87833
 Alpha virt. eigenvalues --    0.88092   0.88818   0.89031   0.89171   0.89608
 Alpha virt. eigenvalues --    0.90105   0.90445   0.90919   0.91237   0.91615
 Alpha virt. eigenvalues --    0.91807   0.92457   0.93098   0.93670   0.93815
 Alpha virt. eigenvalues --    0.94347   0.94752   0.95971   0.96653   0.96798
 Alpha virt. eigenvalues --    0.97314   0.97944   0.98121   0.98739   0.99312
 Alpha virt. eigenvalues --    0.99562   1.00093   1.00521   1.01303   1.01560
 Alpha virt. eigenvalues --    1.01921   1.02256   1.03207   1.03667   1.03984
 Alpha virt. eigenvalues --    1.04631   1.05404   1.05805   1.06705   1.06922
 Alpha virt. eigenvalues --    1.07688   1.07867   1.09158   1.09428   1.09955
 Alpha virt. eigenvalues --    1.10853   1.11985   1.12406   1.12903   1.13635
 Alpha virt. eigenvalues --    1.14349   1.14458   1.15394   1.15801   1.16329
 Alpha virt. eigenvalues --    1.17138   1.18129   1.18374   1.18857   1.19952
 Alpha virt. eigenvalues --    1.20168   1.20898   1.21410   1.21730   1.22127
 Alpha virt. eigenvalues --    1.22429   1.23584   1.24040   1.25428   1.26497
 Alpha virt. eigenvalues --    1.27149   1.27737   1.29244   1.29374   1.29682
 Alpha virt. eigenvalues --    1.29879   1.30312   1.31169   1.31296   1.32262
 Alpha virt. eigenvalues --    1.32850   1.33211   1.34373   1.34941   1.35222
 Alpha virt. eigenvalues --    1.36058   1.36554   1.37477   1.38486   1.38908
 Alpha virt. eigenvalues --    1.39879   1.40037   1.41380   1.41877   1.42677
 Alpha virt. eigenvalues --    1.43185   1.43318   1.44736   1.45049   1.45794
 Alpha virt. eigenvalues --    1.46815   1.47346   1.47747   1.49031   1.49108
 Alpha virt. eigenvalues --    1.50231   1.50699   1.51174   1.52164   1.52475
 Alpha virt. eigenvalues --    1.52896   1.54029   1.54992   1.55855   1.56156
 Alpha virt. eigenvalues --    1.57293   1.57334   1.58230   1.58586   1.58835
 Alpha virt. eigenvalues --    1.59180   1.59989   1.61112   1.61431   1.62107
 Alpha virt. eigenvalues --    1.63435   1.64292   1.64664   1.65401   1.65837
 Alpha virt. eigenvalues --    1.65960   1.66846   1.67325   1.67643   1.68084
 Alpha virt. eigenvalues --    1.68341   1.68664   1.68959   1.69829   1.69971
 Alpha virt. eigenvalues --    1.70325   1.70780   1.71148   1.71834   1.72637
 Alpha virt. eigenvalues --    1.72852   1.73169   1.73372   1.73890   1.74022
 Alpha virt. eigenvalues --    1.74563   1.75001   1.75560   1.75951   1.76339
 Alpha virt. eigenvalues --    1.76412   1.76778   1.77286   1.77883   1.78159
 Alpha virt. eigenvalues --    1.78563   1.78921   1.80034   1.80439   1.80837
 Alpha virt. eigenvalues --    1.81449   1.82321   1.82548   1.82857   1.83385
 Alpha virt. eigenvalues --    1.83496   1.84245   1.84428   1.84628   1.84996
 Alpha virt. eigenvalues --    1.85467   1.86065   1.86276   1.86598   1.87268
 Alpha virt. eigenvalues --    1.87520   1.87874   1.88353   1.88657   1.88779
 Alpha virt. eigenvalues --    1.89104   1.89845   1.90145   1.90914   1.91293
 Alpha virt. eigenvalues --    1.91668   1.92006   1.92220   1.92944   1.93467
 Alpha virt. eigenvalues --    1.93822   1.94213   1.94297   1.95106   1.95710
 Alpha virt. eigenvalues --    1.96370   1.96694   1.97301   1.97792   1.98432
 Alpha virt. eigenvalues --    1.99337   1.99595   2.00179   2.00345   2.00536
 Alpha virt. eigenvalues --    2.01169   2.01337   2.01923   2.02649   2.02853
 Alpha virt. eigenvalues --    2.03126   2.03518   2.05454   2.05913   2.06491
 Alpha virt. eigenvalues --    2.07071   2.08324   2.08799   2.09022   2.09546
 Alpha virt. eigenvalues --    2.10073   2.10847   2.11159   2.11419   2.12164
 Alpha virt. eigenvalues --    2.12366   2.12771   2.13498   2.13987   2.14762
 Alpha virt. eigenvalues --    2.15522   2.17809   2.17906   2.18459   2.18599
 Alpha virt. eigenvalues --    2.20415   2.20927   2.21267   2.21542   2.23020
 Alpha virt. eigenvalues --    2.23409   2.23608   2.23894   2.24564   2.25053
 Alpha virt. eigenvalues --    2.25870   2.26178   2.26761   2.27454   2.28478
 Alpha virt. eigenvalues --    2.28799   2.29223   2.29517   2.30194   2.31554
 Alpha virt. eigenvalues --    2.32220   2.32624   2.33114   2.33763   2.34631
 Alpha virt. eigenvalues --    2.35807   2.36081   2.36359   2.37915   2.38613
 Alpha virt. eigenvalues --    2.38941   2.39297   2.39453   2.40774   2.41141
 Alpha virt. eigenvalues --    2.42078   2.42274   2.42416   2.43191   2.44040
 Alpha virt. eigenvalues --    2.44541   2.45724   2.45904   2.46583   2.47086
 Alpha virt. eigenvalues --    2.49166   2.49209   2.51426   2.52149   2.52959
 Alpha virt. eigenvalues --    2.54086   2.54380   2.54970   2.55079   2.56573
 Alpha virt. eigenvalues --    2.57361   2.57883   2.58044   2.58727   2.59058
 Alpha virt. eigenvalues --    2.59790   2.60401   2.60532   2.61580   2.62286
 Alpha virt. eigenvalues --    2.62646   2.63911   2.65464   2.66982   2.68444
 Alpha virt. eigenvalues --    2.68743   2.69942   2.70208   2.72015   2.72326
 Alpha virt. eigenvalues --    2.72578   2.73827   2.75402   2.77528   2.77811
 Alpha virt. eigenvalues --    2.78894   2.79615   2.81146   2.82030   2.82881
 Alpha virt. eigenvalues --    2.84348   2.84752   2.85192   2.88420   2.88483
 Alpha virt. eigenvalues --    2.90897   2.91677   2.91970   2.94197   2.95996
 Alpha virt. eigenvalues --    2.96298   2.98161   2.99204   2.99947   3.03121
 Alpha virt. eigenvalues --    3.05260   3.06534   3.09981   3.10268   3.12585
 Alpha virt. eigenvalues --    3.14109   3.62731   3.79567   3.79905   3.84662
 Alpha virt. eigenvalues --    3.86104   3.87799   3.91720   3.94275   3.95753
 Alpha virt. eigenvalues --    3.97136   3.99401   4.01159   4.01875   4.03508
 Alpha virt. eigenvalues --    4.09082   4.09693   4.11287   4.12403   4.14017
 Alpha virt. eigenvalues --    4.14953   4.16211   4.17023   4.18194   4.19811
 Alpha virt. eigenvalues --    4.20877   4.22328   4.24223   4.25627   4.27486
 Alpha virt. eigenvalues --    4.29183   4.30628   4.32183   4.35254   4.35445
 Alpha virt. eigenvalues --    4.39876   4.41757   4.43598   4.46331   4.46817
 Alpha virt. eigenvalues --    4.47658   4.50417   4.51877   4.52241   4.58598
 Alpha virt. eigenvalues --    4.61352   4.61925   4.63420   4.70840
          Condensed to atoms (all electrons):
 Mulliken charges:
               1
     1  N   -0.755310
     2  H    0.417484
     3  H    0.415400
     4  H    0.436062
     5  C   -0.118243
     6  H    0.215566
     7  C    0.653507
     8  C   -0.379378
     9  H    0.184533
    10  H    0.207667
    11  O   -0.545167
    12  C    0.588353
    13  N   -0.786522
    14  H    0.456169
    15  H    0.334298
    16  O   -0.480992
    17  N   -0.588960
    18  H    0.388721
    19  C   -0.066269
    20  H    0.181006
    21  C    0.644885
    22  C   -0.095609
    23  H    0.156646
    24  O   -0.543371
    25  C   -0.256882
    26  H    0.114471
    27  H    0.145568
    28  C   -0.472651
    29  H    0.147916
    30  H    0.203323
    31  H    0.129033
    32  C   -0.452550
    33  H    0.149947
    34  H    0.160169
    35  H    0.164587
    36  N   -0.639230
    37  H    0.344296
    38  C   -0.053901
    39  H    0.275522
    40  C    0.635334
    41  C   -0.492126
    42  H    0.197686
    43  H    0.165462
    44  H    0.155498
    45  O   -0.542015
    46  N   -0.609779
    47  H    0.361819
    48  C   -0.069639
    49  H    0.181441
    50  C    0.651153
    51  C    0.105863
    52  H    0.142313
    53  O   -0.585172
    54  C   -0.448942
    55  H    0.154595
    56  H    0.170879
    57  H    0.149786
    58  O   -0.663473
    59  H    0.431011
    60  N   -0.603945
    61  H    0.396498
    62  C   -0.060469
    63  H    0.180524
    64  C    0.597357
    65  C   -0.052531
    66  H    0.184083
    67  H    0.112374
    68  O   -0.507461
    69  O   -0.664639
    70  H    0.460908
    71  N   -0.571299
    72  H    0.338695
    73  C   -0.235190
    74  H    0.190946
    75  H    0.191825
    76  C    0.647116
    77  O   -0.574078
    78  N   -0.581746
    79  H    0.360948
    80  C   -0.059774
    81  H    0.201606
    82  C    0.590375
    83  C   -0.267248
    84  H    0.154372
    85  H    0.166676
    86  O   -0.446442
    87  C   -0.282148
    88  H    0.128962
    89  H    0.174420
    90  C   -0.264212
    91  H    0.117353
    92  H    0.167330
    93  C   -0.155402
    94  H    0.098069
    95  H    0.186632
    96  N   -0.756444
    97  H    0.324226
    98  H    0.295256
    99  O   -0.581321
   100  H    0.426001
 Sum of Mulliken charges =   1.00000
 Mulliken charges with hydrogens summed into heavy atoms:
               1
     1  N    0.513636
     5  C    0.097323
     7  C    0.653507
     8  C    0.012823
    11  O   -0.545167
    12  C    0.588353
    13  N    0.003945
    16  O   -0.480992
    17  N   -0.200239
    19  C    0.114737
    21  C    0.644885
    22  C    0.061037
    24  O   -0.543371
    25  C    0.003156
    28  C    0.007621
    32  C    0.022152
    36  N   -0.294934
    38  C    0.221621
    40  C    0.635334
    41  C    0.026520
    45  O   -0.542015
    46  N   -0.247961
    48  C    0.111802
    50  C    0.651153
    51  C    0.248176
    53  O   -0.585172
    54  C    0.026318
    58  O   -0.232462
    60  N   -0.207446
    62  C    0.120055
    64  C    0.597357
    65  C    0.243926
    68  O   -0.507461
    69  O   -0.203730
    71  N   -0.232604
    73  C    0.147582
    76  C    0.647116
    77  O   -0.574078
    78  N   -0.220798
    80  C    0.141833
    82  C    0.590375
    83  C    0.053800
    86  O   -0.446442
    87  C    0.021234
    90  C    0.020471
    93  C    0.129299
    96  N   -0.136962
    99  O   -0.155320
 Electronic spatial extent (au):  <R**2>=          35734.6359
 Charge=              1.0000 electrons
 Dipole moment (field-independent basis, Debye):
    X=             -8.5968    Y=              1.2123    Z=             -9.1272  Tot=             12.5969
 Quadrupole moment (field-independent basis, Debye-Ang):
   XX=           -157.5293   YY=           -260.8446   ZZ=           -234.4738
   XY=            -31.3372   XZ=             23.3304   YZ=             14.2714
 Traceless Quadrupole moment (field-independent basis, Debye-Ang):
   XX=             60.0866   YY=            -43.2287   ZZ=            -16.8579
   XY=            -31.3372   XZ=             23.3304   YZ=             14.2714
 Octapole moment (field-independent basis, Debye-Ang**2):
  XXX=          -1157.5387  YYY=           -748.9577  ZZZ=            -18.1725  XYY=           -445.6369
  XXY=           -298.8809  XXZ=           -406.0100  XZZ=           -532.2891  YZZ=           -240.9952
  YYZ=             -1.4335  XYZ=            105.4347
 Hexadecapole moment (field-independent basis, Debye-Ang**3):
 XXXX=         -16829.6286 YYYY=          -6851.5689 ZZZZ=         -13899.7802 XXXY=          -1189.9295
 XXXZ=           2032.9888 YYYX=           -818.4136 YYYZ=            674.7818 ZZZX=           4057.0349
 ZZZY=            731.4862 XXYY=          -5133.2943 XXZZ=          -5247.9427 YYZZ=          -3417.9746
 XXYZ=            232.6374 YYXZ=           1203.6635 ZZXY=           -816.3743
 N-N= 7.345264932219D+03 E-N=-2.030255854575D+04  KE= 2.396446739219D+03
 Unable to Open any file for archive entry.
 1\1\GINC-AMR-145\SP\RB3LYP\6-31G(d)\C28H52N9O11(1+)\KENGMITH\06-Jun-20
 22\0\\# B3LYP/6-31G* empiricaldispersion=gd3 guess=read geom=check nos
 ymm integral(ultrafinegrid)\\Candidate Structure: Conf:14 Charge calc 
 in gas phase\\1,1\N,0,-4.7593568354,1.2323658978,-2.2769381062\H,0,-5.
 2602787061,0.3410532879,-2.2154047381\H,0,-4.9476259416,1.6561315842,-
 3.1893008834\H,0,-5.085681747,1.8598717205,-1.4727476713\C,0,-3.282103
 5622,1.1130313935,-1.9540395267\H,0,-2.9783685695,0.0718317375,-2.0767
 150111\C,0,-3.2437437371,1.5488890888,-0.4587410312\C,0,-2.4668037946,
 2.047798329,-2.8701721595\H,0,-2.4610649024,1.6455719267,-3.8909012648
 \H,0,-2.9159727511,3.0450260715,-2.877425662\O,0,-4.2283749745,2.17669
 24226,-0.0353736446\C,0,-1.040996493,2.2209104755,-2.3007961164\N,0,-0
 .2392288697,1.1391917014,-2.449643263\H,0,0.7031053085,1.0941295663,-2
 .0420941429\H,0,-0.4317001268,0.4503640279,-3.1639918449\O,0,-0.779208
 305,3.2187912338,-1.6476125095\N,0,-2.1633165983,1.2102291254,0.223842
 4556\H,0,-1.3641748159,0.7775807888,-0.2435026525\C,0,-1.8081280686,1.
 7561886477,1.5361897826\H,0,-2.4274112422,2.6412177357,1.7095255369\C,
 0,-0.3077541414,2.0884555283,1.3957595141\C,0,-2.0079241698,0.72196815
 99,2.6904489221\H,0,-1.1686956795,0.0165065249,2.6309205562\O,0,0.3891
 540215,1.3790133729,0.6649796849\C,0,-3.314106544,-0.0774393213,2.5157
 923336\H,0,-3.2899233202,-0.5836404884,1.5428588061\H,0,-4.1636846691,
 0.619350021,2.4854856657\C,0,-1.962598943,1.4241475176,4.0559049683\H,
 0,-2.8673554697,2.0252667773,4.2127340263\H,0,-1.8800144016,0.68871824
 73,4.8574392475\H,0,-1.0965506761,2.0837371167,4.1578522046\C,0,-3.532
 2712445,-1.1304064193,3.6088723741\H,0,-4.390962885,-1.7656533061,3.36
 6856299\H,0,-2.6528368176,-1.7772133264,3.7127338632\H,0,-3.7253281305
 ,-0.6745668942,4.5843877718\N,0,0.1887020455,3.0682648211,2.176096083\
 H,0,-0.4524972554,3.6682806501,2.6775642468\C,0,1.6304133717,3.3733378
 839,2.2403297931\H,0,1.9547402602,3.7728771312,1.2707840693\C,0,2.4484
 122622,2.1031070281,2.5068972028\C,0,1.882918571,4.4178282037,3.329889
 3718\H,0,2.954158232,4.6287576238,3.3817938359\H,0,1.3673346469,5.3551
 163152,3.0915818301\H,0,1.5523197301,4.0651555916,4.3140375916\O,0,3.5
 658966168,1.9559367845,2.0181040562\N,0,1.8832479172,1.2064866505,3.35
 95240896\H,0,0.9094068929,1.3026799469,3.6147732107\C,0,2.4310006516,-
 0.1237867516,3.5722542403\H,0,3.5122089841,-0.0291633567,3.7124932075\
 C,0,2.1514521042,-0.9993728371,2.3297253063\C,0,1.777376457,-0.7446543
 647,4.8253027106\H,0,2.1613939191,-1.7713400404,4.9192875165\O,0,1.193
 1041229,-1.7882528663,2.2752139421\C,0,2.0847253397,0.0303849022,6.097
 5050111\H,0,3.1622240076,0.0496974939,6.2913796427\H,0,1.5820833625,-0
 .4451620356,6.9442026254\H,0,1.7289204723,1.0623930451,6.0198141493\O,
 0,0.3576189898,-0.7696574319,4.6544430022\H,0,0.2280602563,-1.34928398
 42,3.8754192627\N,0,3.0258303183,-0.8486188988,1.319054368\H,0,3.70928
 88825,-0.0931821449,1.3433671261\C,0,2.946604829,-1.6551024931,0.12292
 8599\H,0,2.6803606096,-2.6773908509,0.4189192065\C,0,4.3216295771,-1.6
 23536515,-0.5422027658\C,0,1.8609559976,-1.1820654414,-0.8837907353\H,
 0,0.9642555487,-0.9527879577,-0.305017243\H,0,1.6309836248,-2.01379076
 37,-1.570445877\O,0,5.163153588,-0.7793538477,-0.2576903281\O,0,2.2030
 191022,-0.0095562027,-1.6015488852\H,0,2.8742464652,-0.2172455837,-2.2
 89629011\N,0,4.53609499,-2.5392165442,-1.5344263188\H,0,3.7506710732,-
 3.0769993392,-1.8743821895\C,0,5.604122144,-2.2434947876,-2.4759908048
 \H,0,6.5634414881,-2.2559113823,-1.952338118\H,0,5.6176632504,-3.01905
 8085,-3.2465398294\C,0,5.32919221,-0.8835507093,-3.1425167098\O,0,4.18
 70788743,-0.6127337449,-3.537775946\N,0,6.3840645819,-0.0605882222,-3.
 2588160131\H,0,7.2532849898,-0.3130838969,-2.8074218233\C,0,6.30593755
 45,1.2756509203,-3.8431769262\H,0,5.535077014,1.247201284,-4.617518956
 5\C,0,7.610265081,1.6571625729,-4.5300421934\C,0,5.9369595766,2.380626
 9687,-2.8198251096\H,0,6.6822734794,2.3906460124,-2.0138259307\H,0,6.0
 195181601,3.3375453873,-3.3499195601\O,0,7.6979614576,2.5270990129,-5.
 3619650245\C,0,4.521801223,2.2104920347,-2.2571597812\H,0,3.8485616633
 ,1.9934518204,-3.0970390731\H,0,4.4850506344,1.339314186,-1.5976267357
 \C,0,3.9887261413,3.4341787287,-1.4996948835\H,0,4.2632771932,4.356101
 7509,-2.0361216489\H,0,4.4296400843,3.4971021301,-0.4976813398\C,0,2.4
 657534697,3.3609108073,-1.378866908\H,0,2.0417717911,3.2243476562,-2.3
 911901071\H,0,2.1944867187,2.4731691711,-0.7985041128\N,0,1.9068504152
 ,4.5349819241,-0.6946716144\H,0,0.8932132128,4.4957240623,-0.791424949
 \H,0,2.2095647371,5.3843268456,-1.1715930779\O,0,8.6755517785,0.964976
 9096,-4.0530958503\H,0,9.4667106643,1.3100101997,-4.5090219208\\Versio
 n=ES64L-G16RevC.01\HF=-2418.5921389\RMSD=5.080e-10\Dipole=-6.5000369,-
 1.2684854,-3.6177269\Quadrupole=44.6728964,-32.1394743,-12.5334221,-23
 .2984755,17.3455767,10.6104629\PG=C01 [X(C28H52N9O11)]\\@
 The archive entry for this job was punched.


 IF IT'S NOT TRUE, IT'S WELL INVENTED -- DANTE
 Job cpu time:       0 days  0 hours  6 minutes 25.2 seconds.
 Elapsed time:       0 days  0 hours  1 minutes 37.4 seconds.
 File lengths (MBytes):  RWF=    472 Int=      0 D2E=      0 Chk=     72 Scr=     16
 Normal termination of Gaussian 16 at Mon Jun  6 03:06:51 2022.
