 Entering Gaussian System, Link 0=/opt/software/Gaussian/g16-AVX2-C.01/g16/g16
 Input=charge-conf-217.com
 Output=charge-conf-217.log
 Initial command:
 /opt/software/Gaussian/g16-AVX2-C.01/g16/l1.exe "/mnt/gs18/scratch/users/kengmith/Gau-6723.inp" -scrdir="/mnt/gs18/scratch/users/kengmith/"
 Entering Link 1 = /opt/software/Gaussian/g16-AVX2-C.01/g16/l1.exe PID=      6733.
  
 Copyright (c) 1988-2019, Gaussian, Inc.  All Rights Reserved.
  
 This is part of the Gaussian(R) 16 program.  It is based on
 the Gaussian(R) 09 system (copyright 2009, Gaussian, Inc.),
 the Gaussian(R) 03 system (copyright 2003, Gaussian, Inc.),
 the Gaussian(R) 98 system (copyright 1998, Gaussian, Inc.),
 the Gaussian(R) 94 system (copyright 1995, Gaussian, Inc.),
 the Gaussian 92(TM) system (copyright 1992, Gaussian, Inc.),
 the Gaussian 90(TM) system (copyright 1990, Gaussian, Inc.),
 the Gaussian 88(TM) system (copyright 1988, Gaussian, Inc.),
 the Gaussian 86(TM) system (copyright 1986, Carnegie Mellon
 University), and the Gaussian 82(TM) system (copyright 1983,
 Carnegie Mellon University). Gaussian is a federally registered
 trademark of Gaussian, Inc.
  
 This software contains proprietary and confidential information,
 including trade secrets, belonging to Gaussian, Inc.
  
 This software is provided under written license and may be
 used, copied, transmitted, or stored only in accord with that
 written license.
  
 The following legend is applicable only to US Government
 contracts under FAR:
  
                    RESTRICTED RIGHTS LEGEND
  
 Use, reproduction and disclosure by the US Government is
 subject to restrictions as set forth in subparagraphs (a)
 and (c) of the Commercial Computer Software - Restricted
 Rights clause in FAR 52.227-19.
  
 Gaussian, Inc.
 340 Quinnipiac St., Bldg. 40, Wallingford CT 06492
  
  
 ---------------------------------------------------------------
 Warning -- This program may not be used in any manner that
 competes with the business of Gaussian, Inc. or will provide
 assistance to any competitor of Gaussian, Inc.  The licensee
 of this program is prohibited from giving any competitor of
 Gaussian, Inc. access to this program.  By using this program,
 the user acknowledges that Gaussian, Inc. is engaged in the
 business of creating and licensing software in the field of
 computational chemistry and represents and warrants to the
 licensee that it is not a competitor of Gaussian, Inc. and that
 it will not use this program in any manner prohibited above.
 ---------------------------------------------------------------
  

 Cite this work as:
 Gaussian 16, Revision C.01,
 M. J. Frisch, G. W. Trucks, H. B. Schlegel, G. E. Scuseria, 
 M. A. Robb, J. R. Cheeseman, G. Scalmani, V. Barone, 
 G. A. Petersson, H. Nakatsuji, X. Li, M. Caricato, A. V. Marenich, 
 J. Bloino, B. G. Janesko, R. Gomperts, B. Mennucci, H. P. Hratchian, 
 J. V. Ortiz, A. F. Izmaylov, J. L. Sonnenberg, D. Williams-Young, 
 F. Ding, F. Lipparini, F. Egidi, J. Goings, B. Peng, A. Petrone, 
 T. Henderson, D. Ranasinghe, V. G. Zakrzewski, J. Gao, N. Rega, 
 G. Zheng, W. Liang, M. Hada, M. Ehara, K. Toyota, R. Fukuda, 
 J. Hasegawa, M. Ishida, T. Nakajima, Y. Honda, O. Kitao, H. Nakai, 
 T. Vreven, K. Throssell, J. A. Montgomery, Jr., J. E. Peralta, 
 F. Ogliaro, M. J. Bearpark, J. J. Heyd, E. N. Brothers, K. N. Kudin, 
 V. N. Staroverov, T. A. Keith, R. Kobayashi, J. Normand, 
 K. Raghavachari, A. P. Rendell, J. C. Burant, S. S. Iyengar, 
 J. Tomasi, M. Cossi, J. M. Millam, M. Klene, C. Adamo, R. Cammi, 
 J. W. Ochterski, R. L. Martin, K. Morokuma, O. Farkas, 
 J. B. Foresman, and D. J. Fox, Gaussian, Inc., Wallingford CT, 2019.
 
 ******************************************
 Gaussian 16:  ES64L-G16RevC.01  3-Jul-2019
                 6-Jun-2022 
 ******************************************
 %mem=8gb
 %nproc=4
 Will use up to    4 processors via shared memory.
 %chk=conf-217.chk
 ----------------------------------------------------------------------
 # B3LYP/6-31G* empiricaldispersion=gd3 guess=read geom=check nosymm in
 tegral(ultrafinegrid)
 ----------------------------------------------------------------------
 1/29=2,38=1,172=1/1;
 2/12=2,15=1,40=1/2;
 3/5=1,6=6,7=1,11=2,14=-4,25=1,30=1,74=-5,75=-5,116=-2,124=31/1,2,3;
 4/5=1/1;
 5/5=2,38=6/2;
 6/7=2,8=2,9=2,10=2,28=1/1;
 99/5=1,9=1/99;
 ------------------------------------------------------
 Candidate Structure: Conf:217 Charge calc in gas phase
 ------------------------------------------------------
 Structure from the checkpoint file:  "conf-217.chk"
 Charge =  1 Multiplicity = 1
 Redundant internal coordinates found in file.  (old form).
 N,0,-4.635586566,-0.9384437269,4.6855580956
 H,0,-4.8461960847,-1.941561609,4.6942705352
 H,0,-5.4335307441,-0.4291229076,5.0754099542
 H,0,-3.7499367406,-0.7810014349,5.2560853374
 C,0,-4.1927367462,-0.4371659152,3.3249357679
 H,0,-4.6201135954,-1.0806886974,2.5538633701
 C,0,-2.644789208,-0.5678367986,3.4176104717
 C,0,-4.6344334807,1.0338572554,3.1517671984
 H,0,-5.7099858102,1.0735455107,2.9417398972
 H,0,-4.4240638972,1.5905057756,4.0696736062
 O,0,-2.1602857545,-0.5658597832,4.5583477128
 C,0,-3.7814855196,1.6944961691,2.0517974904
 N,0,-4.1717925205,1.4262837882,0.7770305478
 H,0,-3.5530826901,1.7281662534,0.0328525494
 H,0,-5.1154539058,1.158219316,0.5364550654
 O,0,-2.7500684404,2.2720246941,2.347527576
 N,0,-1.9938284824,-0.6561490025,2.2663298844
 H,0,-2.4982639925,-0.5417920306,1.3858781814
 C,0,-0.5588113203,-0.3879920802,2.1064335283
 H,0,-0.205131858,0.089060762,3.0247916186
 C,0,-0.4971589196,0.6027886378,0.9273233779
 C,0,0.2408945122,-1.6922384666,1.8262063547
 H,0,-0.1774843406,-2.1140434897,0.9053626034
 O,0,-1.3896451596,0.5985107968,0.0665925958
 C,0,0.0523324809,-2.7256455174,2.9588923073
 H,0,0.4887175444,-3.668003149,2.6040706621
 H,0,-1.0192651803,-2.9254109084,3.0913781205
 C,0,1.7268812783,-1.3985490284,1.5639632816
 H,0,2.180178627,-0.8069594884,2.3703306027
 H,0,2.2852021427,-2.3379383894,1.5023476879
 H,0,1.8854402699,-0.8848160343,0.6149028421
 C,0,0.6744504829,-2.3604769908,4.3124896134
 H,0,0.5040692742,-3.1651593691,5.0360499575
 H,0,1.757193243,-2.2177444946,4.2346079031
 H,0,0.2342019425,-1.4500951648,4.731724575
 N,0,0.5545726331,1.4380539947,0.8944390014
 H,0,1.292420747,1.3276751564,1.5781148041
 C,0,0.8081061087,2.3508686615,-0.2307050305
 H,0,-0.1696968004,2.7186312847,-0.5554118488
 C,0,1.4504360541,1.5348438144,-1.3735119321
 C,0,1.6960237258,3.5053479833,0.213095723
 H,0,1.8471524644,4.1985409388,-0.6182824457
 H,0,1.2298516695,4.0439023616,1.0431757521
 H,0,2.6822103924,3.1403642813,0.5150483216
 O,0,2.6749998822,1.592466281,-1.5787912166
 N,0,0.5987911886,0.7742094411,-2.0721049084
 H,0,-0.3569695791,0.7333662674,-1.7288538084
 C,0,1.0027167811,-0.2787323288,-3.0124425331
 H,0,2.0265737102,-0.5590357071,-2.7718600733
 C,0,1.0669101195,0.2575411651,-4.4579549069
 C,0,0.1265079783,-1.5193848751,-2.7327099179
 H,0,-0.9298317282,-1.2278879237,-2.7999384105
 O,0,0.4795453975,-0.2487364805,-5.4086034005
 C,0,0.3821243853,-2.719506587,-3.6348377679
 H,0,0.1776674253,-2.4753441741,-4.6777079741
 H,0,-0.2679692,-3.5380794357,-3.3096685042
 H,0,1.4244002831,-3.0369517638,-3.5574917472
 O,0,0.3325647395,-1.8697123872,-1.3553947107
 H,0,1.267987404,-2.1367294537,-1.2760152597
 N,0,1.9031575565,1.3274365502,-4.575252347
 H,0,2.4559018032,1.5989674546,-3.7675735639
 C,0,2.3478270032,1.8352573157,-5.8718370067
 H,0,1.574478779,1.5728966929,-6.5977163046
 C,0,3.6758112733,1.1147665207,-6.1755162404
 C,0,2.5413966078,3.3452709513,-5.8438842143
 H,0,2.9303186715,3.657163055,-6.8245559355
 H,0,3.3080802938,3.5995015107,-5.0970196448
 O,0,4.7614959114,1.6379354269,-5.9588504359
 O,0,1.2838825286,3.9375472386,-5.548023184
 H,0,1.3885283758,4.8976724272,-5.624578637
 N,0,3.5301794531,-0.1834291858,-6.6012786578
 H,0,2.5935910968,-0.5726164491,-6.5245032684
 C,0,4.6027899396,-1.1253174853,-6.3206364166
 H,0,4.5924529001,-1.9336239468,-7.0598803918
 H,0,5.5538627715,-0.5948499841,-6.3967832771
 C,0,4.37475267,-1.7304997812,-4.9301374431
 O,0,3.231290862,-1.9734347851,-4.5458837174
 N,0,5.453284095,-1.9932957548,-4.1474893466
 H,0,6.3362131081,-1.5499990754,-4.3666299301
 C,0,5.2255024407,-2.431812746,-2.7710768145
 H,0,4.7261157641,-3.4045358879,-2.7897560923
 C,0,4.2663660476,-1.4817414361,-2.0438429089
 C,0,6.5581452411,-2.5307631818,-2.0095766625
 H,0,7.2474816936,-3.1432809298,-2.6053183939
 H,0,6.9968443607,-1.5263327325,-1.9364703943
 O,0,3.3843648678,-1.856994604,-1.2850701637
 C,0,6.4069417029,-3.1375188166,-0.6092866767
 H,0,5.6527281478,-2.5743432818,-0.0470477442
 H,0,6.0259941605,-4.1653229928,-0.7028781337
 C,0,7.7236597191,-3.1383198545,0.175219189
 H,0,8.0517337243,-2.1024343777,0.330101699
 H,0,8.5035202084,-3.6433231622,-0.4120908506
 C,0,7.6134978992,-3.8274257409,1.5394070534
 H,0,7.4078055557,-4.9029136158,1.3834205085
 H,0,8.5846550401,-3.7648844167,2.043780025
 N,0,6.6230993346,-3.1569400817,2.3962611337
 H,0,6.7165140285,-3.4955546313,3.3522462082
 H,0,5.6835212059,-3.4192542834,2.1025421831
 O,0,4.5466544217,-0.2079654442,-2.3037672486
 H,0,3.8715564827,0.3937058543,-1.8918963921
 Recover connectivity data from disk.
                           ----------------------------
                           !    Current Parameters    !
                           ! (Angstroms and Degrees)  !
 --------------------------                            --------------------------
 ! Name  Definition              Value                                          !
 --------------------------------------------------------------------------------
 ! R1    R(1,2)                  1.025                                          !
 ! R2    R(1,3)                  1.0238                                         !
 ! R3    R(1,4)                  1.0652                                         !
 ! R4    R(1,5)                  1.5161                                         !
 ! R5    R(5,6)                  1.0915                                         !
 ! R6    R(5,7)                  1.5562                                         !
 ! R7    R(5,8)                  1.5456                                         !
 ! R8    R(7,11)                 1.2394                                         !
 ! R9    R(7,17)                 1.3255                                         !
 ! R10   R(8,9)                  1.0966                                         !
 ! R11   R(8,10)                 1.0939                                         !
 ! R12   R(8,12)                 1.5407                                         !
 ! R13   R(12,13)                1.3599                                         !
 ! R14   R(12,16)                1.2185                                         !
 ! R15   R(13,14)                1.0138                                         !
 ! R16   R(13,15)                1.0101                                         !
 ! R17   R(17,18)                1.0211                                         !
 ! R18   R(17,19)                1.4686                                         !
 ! R19   R(19,20)                1.0936                                         !
 ! R20   R(19,21)                1.5413                                         !
 ! R21   R(19,22)                1.5554                                         !
 ! R22   R(21,24)                1.2399                                         !
 ! R23   R(21,36)                1.3435                                         !
 ! R24   R(22,23)                1.0959                                         !
 ! R25   R(22,25)                1.5448                                         !
 ! R26   R(22,28)                1.5373                                         !
 ! R27   R(25,26)                1.0974                                         !
 ! R28   R(25,27)                1.0981                                         !
 ! R29   R(25,32)                1.5338                                         !
 ! R30   R(28,29)                1.098                                          !
 ! R31   R(28,30)                1.0945                                         !
 ! R32   R(28,31)                1.0908                                         !
 ! R33   R(32,33)                1.0955                                         !
 ! R34   R(32,34)                1.0949                                         !
 ! R35   R(32,35)                1.0947                                         !
 ! R36   R(36,37)                1.0119                                         !
 ! R37   R(36,38)                1.4709                                         !
 ! R38   R(38,39)                1.094                                          !
 ! R39   R(38,40)                1.5442                                         !
 ! R40   R(38,41)                1.5226                                         !
 ! R41   R(40,45)                1.243                                          !
 ! R42   R(40,46)                1.3386                                         !
 ! R43   R(41,42)                1.093                                          !
 ! R44   R(41,43)                1.0938                                         !
 ! R45   R(41,44)                1.0941                                         !
 ! R46   R(46,47)                1.0164                                         !
 ! R47   R(46,48)                1.4684                                         !
 ! R48   R(48,49)                1.0885                                         !
 ! R49   R(48,50)                1.5431                                         !
 ! R50   R(48,51)                1.5444                                         !
 ! R51   R(50,53)                1.2268                                         !
 ! R52   R(50,60)                1.363                                          !
 ! R53   R(51,52)                1.0979                                         !
 ! R54   R(51,54)                1.523                                          !
 ! R55   R(51,58)                1.436                                          !
 ! R56   R(54,55)                1.0904                                         !
 ! R57   R(54,56)                1.0947                                         !
 ! R58   R(54,57)                1.0923                                         !
 ! R59   R(58,59)                0.976                                          !
 ! R60   R(60,61)                1.0157                                         !
 ! R61   R(60,62)                1.4618                                         !
 ! R62   R(62,63)                1.0926                                         !
 ! R63   R(62,64)                1.5411                                         !
 ! R64   R(62,65)                1.5226                                         !
 ! R65   R(64,68)                1.2245                                         !
 ! R66   R(64,71)                1.374                                          !
 ! R67   R(65,66)                1.1001                                         !
 ! R68   R(65,67)                1.1001                                         !
 ! R69   R(65,69)                1.4211                                         !
 ! R70   R(69,70)                0.9688                                         !
 ! R71   R(71,72)                1.0171                                         !
 ! R72   R(71,73)                1.4548                                         !
 ! R73   R(73,74)                1.0954                                         !
 ! R74   R(73,75)                1.0917                                         !
 ! R75   R(73,76)                1.5335                                         !
 ! R76   R(76,77)                1.2305                                         !
 ! R77   R(76,78)                1.3582                                         !
 ! R78   R(78,79)                1.012                                          !
 ! R79   R(78,80)                1.4624                                         !
 ! R80   R(80,81)                1.0936                                         !
 ! R81   R(80,82)                1.5334                                         !
 ! R82   R(80,83)                1.5381                                         !
 ! R83   R(82,86)                1.2225                                         !
 ! R84   R(82,99)                1.3299                                         !
 ! R85   R(83,84)                1.0978                                         !
 ! R86   R(83,85)                1.0985                                         !
 ! R87   R(83,87)                1.5336                                         !
 ! R88   R(87,88)                1.0964                                         !
 ! R89   R(87,89)                1.1001                                         !
 ! R90   R(87,90)                1.5327                                         !
 ! R91   R(90,91)                1.0976                                         !
 ! R92   R(90,92)                1.0992                                         !
 ! R93   R(90,93)                1.5323                                         !
 ! R94   R(93,94)                1.106                                          !
 ! R95   R(93,95)                1.0961                                         !
 ! R96   R(93,96)                1.4713                                         !
 ! R97   R(96,97)                1.0185                                         !
 ! R98   R(96,98)                1.0188                                         !
 ! R99   R(99,100)               0.9937                                         !
 ! A1    A(2,1,3)              108.8735                                         !
 ! A2    A(2,1,4)              108.115                                          !
 ! A3    A(2,1,5)              113.0294                                         !
 ! A4    A(3,1,4)              111.7492                                         !
 ! A5    A(3,1,5)              113.8857                                         !
 ! A6    A(4,1,5)              100.891                                          !
 ! A7    A(1,5,6)              108.9461                                         !
 ! A8    A(1,5,7)              102.0833                                         !
 ! A9    A(1,5,8)              109.3745                                         !
 ! A10   A(6,5,7)              112.4602                                         !
 ! A11   A(6,5,8)              111.7207                                         !
 ! A12   A(7,5,8)              111.7673                                         !
 ! A13   A(5,7,11)             116.3293                                         !
 ! A14   A(5,7,17)             116.2546                                         !
 ! A15   A(11,7,17)            127.4128                                         !
 ! A16   A(5,8,9)              109.6451                                         !
 ! A17   A(5,8,10)             109.5924                                         !
 ! A18   A(5,8,12)             109.2606                                         !
 ! A19   A(9,8,10)             109.3242                                         !
 ! A20   A(9,8,12)             112.9994                                         !
 ! A21   A(10,8,12)            105.9263                                         !
 ! A22   A(8,12,13)            115.1996                                         !
 ! A23   A(8,12,16)            119.9037                                         !
 ! A24   A(13,12,16)           124.3274                                         !
 ! A25   A(12,13,14)           117.0148                                         !
 ! A26   A(12,13,15)           122.9397                                         !
 ! A27   A(14,13,15)           118.3184                                         !
 ! A28   A(7,17,18)            119.9223                                         !
 ! A29   A(7,17,19)            124.2132                                         !
 ! A30   A(18,17,19)           111.6154                                         !
 ! A31   A(17,19,20)           107.7116                                         !
 ! A32   A(17,19,21)           103.8716                                         !
 ! A33   A(17,19,22)           111.6485                                         !
 ! A34   A(20,19,21)           110.4292                                         !
 ! A35   A(20,19,22)           110.5361                                         !
 ! A36   A(21,19,22)           112.3728                                         !
 ! A37   A(19,21,24)           120.0021                                         !
 ! A38   A(19,21,36)           116.7235                                         !
 ! A39   A(24,21,36)           123.274                                          !
 ! A40   A(19,22,23)           106.1327                                         !
 ! A41   A(19,22,25)           111.4746                                         !
 ! A42   A(19,22,28)           111.5643                                         !
 ! A43   A(23,22,25)           108.1817                                         !
 ! A44   A(23,22,28)           107.4117                                         !
 ! A45   A(25,22,28)           111.7693                                         !
 ! A46   A(22,25,26)           106.7874                                         !
 ! A47   A(22,25,27)           109.225                                          !
 ! A48   A(22,25,32)           115.9951                                         !
 ! A49   A(26,25,27)           105.7145                                         !
 ! A50   A(26,25,32)           109.1766                                         !
 ! A51   A(27,25,32)           109.43                                           !
 ! A52   A(22,28,29)           112.1299                                         !
 ! A53   A(22,28,30)           109.7992                                         !
 ! A54   A(22,28,31)           112.267                                          !
 ! A55   A(29,28,30)           107.0475                                         !
 ! A56   A(29,28,31)           108.9779                                         !
 ! A57   A(30,28,31)           106.3256                                         !
 ! A58   A(25,32,33)           110.1772                                         !
 ! A59   A(25,32,34)           111.6765                                         !
 ! A60   A(25,32,35)           111.8911                                         !
 ! A61   A(33,32,34)           107.2503                                         !
 ! A62   A(33,32,35)           107.1798                                         !
 ! A63   A(34,32,35)           108.4533                                         !
 ! A64   A(21,36,37)           119.1081                                         !
 ! A65   A(21,36,38)           122.6499                                         !
 ! A66   A(37,36,38)           117.311                                          !
 ! A67   A(36,38,39)           106.3562                                         !
 ! A68   A(36,38,40)           108.0512                                         !
 ! A69   A(36,38,41)           110.3722                                         !
 ! A70   A(39,38,40)           109.2555                                         !
 ! A71   A(39,38,41)           110.6624                                         !
 ! A72   A(40,38,41)           111.9524                                         !
 ! A73   A(38,40,45)           120.4993                                         !
 ! A74   A(38,40,46)           114.9522                                         !
 ! A75   A(45,40,46)           124.5369                                         !
 ! A76   A(38,41,42)           109.8663                                         !
 ! A77   A(38,41,43)           110.2429                                         !
 ! A78   A(38,41,44)           110.6812                                         !
 ! A79   A(42,41,43)           108.9004                                         !
 ! A80   A(42,41,44)           107.2706                                         !
 ! A81   A(43,41,44)           109.8149                                         !
 ! A82   A(40,46,47)           116.4148                                         !
 ! A83   A(40,46,48)           124.5179                                         !
 ! A84   A(47,46,48)           116.4971                                         !
 ! A85   A(46,48,49)           107.5705                                         !
 ! A86   A(46,48,50)           111.2311                                         !
 ! A87   A(46,48,51)           107.6973                                         !
 ! A88   A(49,48,50)           104.9168                                         !
 ! A89   A(49,48,51)           106.6642                                         !
 ! A90   A(50,48,51)           118.193                                          !
 ! A91   A(48,50,53)           124.2323                                         !
 ! A92   A(48,50,60)           112.2676                                         !
 ! A93   A(53,50,60)           123.4356                                         !
 ! A94   A(48,51,52)           108.7534                                         !
 ! A95   A(48,51,54)           115.4999                                         !
 ! A96   A(48,51,58)           106.7553                                         !
 ! A97   A(52,51,54)           109.5385                                         !
 ! A98   A(52,51,58)           105.1629                                         !
 ! A99   A(54,51,58)           110.5976                                         !
 ! A100  A(51,54,55)           111.0142                                         !
 ! A101  A(51,54,56)           108.2771                                         !
 ! A102  A(51,54,57)           110.3177                                         !
 ! A103  A(55,54,56)           109.8871                                         !
 ! A104  A(55,54,57)           108.1629                                         !
 ! A105  A(56,54,57)           109.1661                                         !
 ! A106  A(51,58,59)           106.3956                                         !
 ! A107  A(50,60,61)           118.3796                                         !
 ! A108  A(50,60,62)           122.3895                                         !
 ! A109  A(61,60,62)           116.5469                                         !
 ! A110  A(60,62,63)           106.8909                                         !
 ! A111  A(60,62,64)           105.9328                                         !
 ! A112  A(60,62,65)           111.5255                                         !
 ! A113  A(63,62,64)           111.5155                                         !
 ! A114  A(63,62,65)           109.8958                                         !
 ! A115  A(64,62,65)           110.9604                                         !
 ! A116  A(62,64,68)           121.9669                                         !
 ! A117  A(62,64,71)           114.2972                                         !
 ! A118  A(68,64,71)           123.5389                                         !
 ! A119  A(62,65,66)           108.0435                                         !
 ! A120  A(62,65,67)           109.2835                                         !
 ! A121  A(62,65,69)           107.7364                                         !
 ! A122  A(66,65,67)           107.0551                                         !
 ! A123  A(66,65,69)           112.3491                                         !
 ! A124  A(67,65,69)           112.2732                                         !
 ! A125  A(65,69,70)           107.5168                                         !
 ! A126  A(64,71,72)           115.8324                                         !
 ! A127  A(64,71,73)           118.2817                                         !
 ! A128  A(72,71,73)           114.6214                                         !
 ! A129  A(71,73,74)           109.9135                                         !
 ! A130  A(71,73,75)           108.3173                                         !
 ! A131  A(71,73,76)           108.7101                                         !
 ! A132  A(74,73,75)           108.6454                                         !
 ! A133  A(74,73,76)           108.6208                                         !
 ! A134  A(75,73,76)           112.6163                                         !
 ! A135  A(73,76,77)           119.9493                                         !
 ! A136  A(73,76,78)           118.7345                                         !
 ! A137  A(77,76,78)           121.3155                                         !
 ! A138  A(76,78,79)           118.8991                                         !
 ! A139  A(76,78,80)           118.4679                                         !
 ! A140  A(79,78,80)           118.1029                                         !
 ! A141  A(78,80,81)           108.7698                                         !
 ! A142  A(78,80,82)           110.9772                                         !
 ! A143  A(78,80,83)           110.5071                                         !
 ! A144  A(81,80,82)           105.8767                                         !
 ! A145  A(81,80,83)           110.2976                                         !
 ! A146  A(82,80,83)           110.304                                          !
 ! A147  A(80,82,86)           123.7414                                         !
 ! A148  A(80,82,99)           111.6481                                         !
 ! A149  A(86,82,99)           124.5673                                         !
 ! A150  A(80,83,84)           108.1356                                         !
 ! A151  A(80,83,85)           108.6722                                         !
 ! A152  A(80,83,87)           113.0855                                         !
 ! A153  A(84,83,85)           107.1879                                         !
 ! A154  A(84,83,87)           109.6729                                         !
 ! A155  A(85,83,87)           109.9                                            !
 ! A156  A(83,87,88)           109.4407                                         !
 ! A157  A(83,87,89)           109.0325                                         !
 ! A158  A(83,87,90)           112.5113                                         !
 ! A159  A(88,87,89)           106.5775                                         !
 ! A160  A(88,87,90)           109.1929                                         !
 ! A161  A(89,87,90)           109.9096                                         !
 ! A162  A(87,90,91)           109.1789                                         !
 ! A163  A(87,90,92)           109.6499                                         !
 ! A164  A(87,90,93)           113.2133                                         !
 ! A165  A(91,90,92)           107.2742                                         !
 ! A166  A(91,90,93)           108.6808                                         !
 ! A167  A(92,90,93)           108.6682                                         !
 ! A168  A(90,93,94)           108.972                                          !
 ! A169  A(90,93,95)           108.6813                                         !
 ! A170  A(90,93,96)           111.2193                                         !
 ! A171  A(94,93,95)           106.5678                                         !
 ! A172  A(94,93,96)           113.5831                                         !
 ! A173  A(95,93,96)           107.6038                                         !
 ! A174  A(93,96,97)           109.4753                                         !
 ! A175  A(93,96,98)           109.6082                                         !
 ! A176  A(97,96,98)           105.6407                                         !
 ! A177  A(82,99,100)          110.8392                                         !
 ! D1    D(2,1,5,6)             26.5798                                         !
 ! D2    D(2,1,5,7)            -92.5352                                         !
 ! D3    D(2,1,5,8)            148.9565                                         !
 ! D4    D(3,1,5,6)            -98.356                                          !
 ! D5    D(3,1,5,7)            142.529                                          !
 ! D6    D(3,1,5,8)             24.0207                                         !
 ! D7    D(4,1,5,6)            141.7834                                         !
 ! D8    D(4,1,5,7)             22.6684                                         !
 ! D9    D(4,1,5,8)            -95.8399                                         !
 ! D10   D(1,5,7,11)           -23.4302                                         !
 ! D11   D(1,5,7,17)           157.1717                                         !
 ! D12   D(6,5,7,11)          -140.0321                                         !
 ! D13   D(6,5,7,17)            40.5698                                         !
 ! D14   D(8,5,7,11)            93.3639                                         !
 ! D15   D(8,5,7,17)           -86.0342                                         !
 ! D16   D(1,5,8,9)            -76.0512                                         !
 ! D17   D(1,5,8,10)            43.9499                                         !
 ! D18   D(1,5,8,12)           159.602                                          !
 ! D19   D(6,5,8,9)             44.65                                           !
 ! D20   D(6,5,8,10)           164.6511                                         !
 ! D21   D(6,5,8,12)           -79.6968                                         !
 ! D22   D(7,5,8,9)            171.6551                                         !
 ! D23   D(7,5,8,10)           -68.3438                                         !
 ! D24   D(7,5,8,12)            47.3082                                         !
 ! D25   D(5,7,17,18)            6.1762                                         !
 ! D26   D(5,7,17,19)          161.0407                                         !
 ! D27   D(11,7,17,18)        -173.1446                                         !
 ! D28   D(11,7,17,19)         -18.2801                                         !
 ! D29   D(5,8,12,13)           80.491                                          !
 ! D30   D(5,8,12,16)          -91.2285                                         !
 ! D31   D(9,8,12,13)          -41.8662                                         !
 ! D32   D(9,8,12,16)          146.4144                                         !
 ! D33   D(10,8,12,13)        -161.5334                                         !
 ! D34   D(10,8,12,16)          26.7472                                         !
 ! D35   D(8,12,13,14)        -171.016                                          !
 ! D36   D(8,12,13,15)          24.2307                                         !
 ! D37   D(16,12,13,14)          0.2889                                         !
 ! D38   D(16,12,13,15)       -164.4645                                         !
 ! D39   D(7,17,19,20)         -11.9627                                         !
 ! D40   D(7,17,19,21)        -129.1108                                         !
 ! D41   D(7,17,19,22)         109.5681                                         !
 ! D42   D(18,17,19,20)        144.7097                                         !
 ! D43   D(18,17,19,21)         27.5617                                         !
 ! D44   D(18,17,19,22)        -93.7595                                         !
 ! D45   D(17,19,21,24)        -27.1267                                         !
 ! D46   D(17,19,21,36)        153.1035                                         !
 ! D47   D(20,19,21,24)       -142.3647                                         !
 ! D48   D(20,19,21,36)         37.8655                                         !
 ! D49   D(22,19,21,24)         93.7087                                         !
 ! D50   D(22,19,21,36)        -86.0611                                         !
 ! D51   D(17,19,22,23)         59.4112                                         !
 ! D52   D(17,19,22,25)        -58.1597                                         !
 ! D53   D(17,19,22,28)        176.1075                                         !
 ! D54   D(20,19,22,23)        179.2927                                         !
 ! D55   D(20,19,22,25)         61.7218                                         !
 ! D56   D(20,19,22,28)        -64.011                                          !
 ! D57   D(21,19,22,23)        -56.8402                                         !
 ! D58   D(21,19,22,25)       -174.4111                                         !
 ! D59   D(21,19,22,28)         59.8561                                         !
 ! D60   D(19,21,36,37)          5.6888                                         !
 ! D61   D(19,21,36,38)        174.3428                                         !
 ! D62   D(24,21,36,37)       -174.0728                                         !
 ! D63   D(24,21,36,38)         -5.4188                                         !
 ! D64   D(19,22,25,26)        169.8683                                         !
 ! D65   D(19,22,25,27)         55.9889                                         !
 ! D66   D(19,22,25,32)        -68.2055                                         !
 ! D67   D(23,22,25,26)         53.5417                                         !
 ! D68   D(23,22,25,27)        -60.3376                                         !
 ! D69   D(23,22,25,32)        175.468                                          !
 ! D70   D(28,22,25,26)        -64.5124                                         !
 ! D71   D(28,22,25,27)       -178.3917                                         !
 ! D72   D(28,22,25,32)         57.4139                                         !
 ! D73   D(19,22,28,29)         53.6768                                         !
 ! D74   D(19,22,28,30)        172.543                                          !
 ! D75   D(19,22,28,31)        -69.4072                                         !
 ! D76   D(23,22,28,29)        169.5933                                         !
 ! D77   D(23,22,28,30)        -71.5404                                         !
 ! D78   D(23,22,28,31)         46.5094                                         !
 ! D79   D(25,22,28,29)        -71.8932                                         !
 ! D80   D(25,22,28,30)         46.973                                          !
 ! D81   D(25,22,28,31)        165.0228                                         !
 ! D82   D(22,25,32,33)       -178.7374                                         !
 ! D83   D(22,25,32,34)        -59.6569                                         !
 ! D84   D(22,25,32,35)         62.1325                                         !
 ! D85   D(26,25,32,33)        -58.0873                                         !
 ! D86   D(26,25,32,34)         60.9933                                         !
 ! D87   D(26,25,32,35)       -177.2173                                         !
 ! D88   D(27,25,32,33)         57.1742                                         !
 ! D89   D(27,25,32,34)        176.2548                                         !
 ! D90   D(27,25,32,35)        -61.9558                                         !
 ! D91   D(21,36,38,39)         38.1453                                         !
 ! D92   D(21,36,38,40)        -79.0569                                         !
 ! D93   D(21,36,38,41)        158.229                                          !
 ! D94   D(37,36,38,39)       -153.0089                                         !
 ! D95   D(37,36,38,40)         89.7888                                         !
 ! D96   D(37,36,38,41)        -32.9252                                         !
 ! D97   D(36,38,40,45)       -101.8087                                         !
 ! D98   D(36,38,40,46)         77.0071                                         !
 ! D99   D(39,38,40,45)        142.8769                                         !
 ! D100  D(39,38,40,46)        -38.3073                                         !
 ! D101  D(41,38,40,45)         19.935                                          !
 ! D102  D(41,38,40,46)       -161.2492                                         !
 ! D103  D(36,38,41,42)       -177.8092                                         !
 ! D104  D(36,38,41,43)        -57.7863                                         !
 ! D105  D(36,38,41,44)         63.9087                                         !
 ! D106  D(39,38,41,42)        -60.3517                                         !
 ! D107  D(39,38,41,43)         59.6712                                         !
 ! D108  D(39,38,41,44)       -178.6338                                         !
 ! D109  D(40,38,41,42)         61.7895                                         !
 ! D110  D(40,38,41,43)       -178.1877                                         !
 ! D111  D(40,38,41,44)        -56.4927                                         !
 ! D112  D(38,40,46,47)         -6.0021                                         !
 ! D113  D(38,40,46,48)       -167.126                                          !
 ! D114  D(45,40,46,47)        172.7593                                         !
 ! D115  D(45,40,46,48)         11.6354                                         !
 ! D116  D(40,46,48,49)         19.9143                                         !
 ! D117  D(40,46,48,50)        -94.4598                                         !
 ! D118  D(40,46,48,51)        134.5456                                         !
 ! D119  D(47,46,48,49)       -141.1956                                         !
 ! D120  D(47,46,48,50)        104.4302                                         !
 ! D121  D(47,46,48,51)        -26.5643                                         !
 ! D122  D(46,48,50,53)       -126.3478                                         !
 ! D123  D(46,48,50,60)         56.491                                          !
 ! D124  D(49,48,50,53)        117.6345                                         !
 ! D125  D(49,48,50,60)        -59.5267                                         !
 ! D126  D(51,48,50,53)         -1.0187                                         !
 ! D127  D(51,48,50,60)       -178.1799                                         !
 ! D128  D(46,48,51,52)         55.2969                                         !
 ! D129  D(46,48,51,54)        178.8873                                         !
 ! D130  D(46,48,51,58)        -57.7008                                         !
 ! D131  D(49,48,51,52)        170.5287                                         !
 ! D132  D(49,48,51,54)        -65.8809                                         !
 ! D133  D(49,48,51,58)         57.531                                          !
 ! D134  D(50,48,51,52)        -71.74                                           !
 ! D135  D(50,48,51,54)         51.8504                                         !
 ! D136  D(50,48,51,58)        175.2622                                         !
 ! D137  D(48,50,60,61)          6.1771                                         !
 ! D138  D(48,50,60,62)        166.9595                                         !
 ! D139  D(53,50,60,61)       -171.0105                                         !
 ! D140  D(53,50,60,62)        -10.2281                                         !
 ! D141  D(48,51,54,55)        -61.5717                                         !
 ! D142  D(48,51,54,56)        177.7219                                         !
 ! D143  D(48,51,54,57)         58.3171                                         !
 ! D144  D(52,51,54,55)         61.6051                                         !
 ! D145  D(52,51,54,56)        -59.1013                                         !
 ! D146  D(52,51,54,57)       -178.5062                                         !
 ! D147  D(58,51,54,55)        177.0645                                         !
 ! D148  D(58,51,54,56)         56.3581                                         !
 ! D149  D(58,51,54,57)        -63.0467                                         !
 ! D150  D(48,51,58,59)        -64.835                                          !
 ! D151  D(52,51,58,59)        179.7324                                         !
 ! D152  D(54,51,58,59)         61.5672                                         !
 ! D153  D(50,60,62,63)         26.799                                          !
 ! D154  D(50,60,62,64)        -92.2321                                         !
 ! D155  D(50,60,62,65)        146.9371                                         !
 ! D156  D(61,60,62,63)       -172.0896                                         !
 ! D157  D(61,60,62,64)         68.8793                                         !
 ! D158  D(61,60,62,65)        -51.9515                                         !
 ! D159  D(60,62,64,68)        -98.1655                                         !
 ! D160  D(60,62,64,71)         76.9041                                         !
 ! D161  D(63,62,64,68)        145.9008                                         !
 ! D162  D(63,62,64,71)        -39.0296                                         !
 ! D163  D(65,62,64,68)         23.0307                                         !
 ! D164  D(65,62,64,71)       -161.8997                                         !
 ! D165  D(60,62,65,66)        176.7511                                         !
 ! D166  D(60,62,65,67)         60.5981                                         !
 ! D167  D(60,62,65,69)        -61.6437                                         !
 ! D168  D(63,62,65,66)        -64.8957                                         !
 ! D169  D(63,62,65,67)        178.9513                                         !
 ! D170  D(63,62,65,69)         56.7095                                         !
 ! D171  D(64,62,65,66)         58.9052                                         !
 ! D172  D(64,62,65,67)        -57.2478                                         !
 ! D173  D(64,62,65,69)       -179.4895                                         !
 ! D174  D(62,64,71,72)         -9.6365                                         !
 ! D175  D(62,64,71,73)       -151.4578                                         !
 ! D176  D(68,64,71,72)        165.3451                                         !
 ! D177  D(68,64,71,73)         23.5238                                         !
 ! D178  D(62,65,69,70)       -174.0358                                         !
 ! D179  D(66,65,69,70)        -55.1475                                         !
 ! D180  D(67,65,69,70)         65.5878                                         !
 ! D181  D(64,71,73,74)       -154.2798                                         !
 ! D182  D(64,71,73,75)        -35.7172                                         !
 ! D183  D(64,71,73,76)         86.9532                                         !
 ! D184  D(72,71,73,74)         63.4538                                         !
 ! D185  D(72,71,73,75)       -177.9836                                         !
 ! D186  D(72,71,73,76)        -55.3132                                         !
 ! D187  D(71,73,76,77)         36.791                                          !
 ! D188  D(71,73,76,78)       -143.5061                                         !
 ! D189  D(74,73,76,77)        -82.7854                                         !
 ! D190  D(74,73,76,78)         96.9175                                         !
 ! D191  D(75,73,76,77)        156.8273                                         !
 ! D192  D(75,73,76,78)        -23.4699                                         !
 ! D193  D(73,76,78,79)         17.7088                                         !
 ! D194  D(73,76,78,80)        173.4062                                         !
 ! D195  D(77,76,78,79)       -162.5926                                         !
 ! D196  D(77,76,78,80)         -6.8952                                         !
 ! D197  D(76,78,80,81)         64.8504                                         !
 ! D198  D(76,78,80,82)        -51.2369                                         !
 ! D199  D(76,78,80,83)       -173.9328                                         !
 ! D200  D(79,78,80,81)       -139.2579                                         !
 ! D201  D(79,78,80,82)        104.6548                                         !
 ! D202  D(79,78,80,83)        -18.0411                                         !
 ! D203  D(78,80,82,86)        139.4244                                         !
 ! D204  D(78,80,82,99)        -42.871                                          !
 ! D205  D(81,80,82,86)         21.5638                                         !
 ! D206  D(81,80,82,99)       -160.7315                                         !
 ! D207  D(83,80,82,86)        -97.7623                                         !
 ! D208  D(83,80,82,99)         79.9423                                         !
 ! D209  D(78,80,83,84)        -51.814                                          !
 ! D210  D(78,80,83,85)         64.2208                                         !
 ! D211  D(78,80,83,87)       -173.4617                                         !
 ! D212  D(81,80,83,84)         68.4921                                         !
 ! D213  D(81,80,83,85)       -175.4731                                         !
 ! D214  D(81,80,83,87)        -53.1556                                         !
 ! D215  D(82,80,83,84)       -174.902                                          !
 ! D216  D(82,80,83,85)        -58.8672                                         !
 ! D217  D(82,80,83,87)         63.4503                                         !
 ! D218  D(80,82,99,100)       175.0513                                         !
 ! D219  D(86,82,99,100)        -7.2666                                         !
 ! D220  D(80,83,87,88)        -54.3426                                         !
 ! D221  D(80,83,87,89)         61.8771                                         !
 ! D222  D(80,83,87,90)       -175.9207                                         !
 ! D223  D(84,83,87,88)       -175.1214                                         !
 ! D224  D(84,83,87,89)        -58.9017                                         !
 ! D225  D(84,83,87,90)         63.3004                                         !
 ! D226  D(85,83,87,88)         67.2866                                         !
 ! D227  D(85,83,87,89)       -176.4937                                         !
 ! D228  D(85,83,87,90)        -54.2916                                         !
 ! D229  D(83,87,90,91)         62.7277                                         !
 ! D230  D(83,87,90,92)        -54.5325                                         !
 ! D231  D(83,87,90,93)       -176.0633                                         !
 ! D232  D(88,87,90,91)        -58.9913                                         !
 ! D233  D(88,87,90,92)       -176.2515                                         !
 ! D234  D(88,87,90,93)         62.2177                                         !
 ! D235  D(89,87,90,91)       -175.5673                                         !
 ! D236  D(89,87,90,92)         67.1725                                         !
 ! D237  D(89,87,90,93)        -54.3583                                         !
 ! D238  D(87,90,93,94)         65.5603                                         !
 ! D239  D(87,90,93,95)       -178.6838                                         !
 ! D240  D(87,90,93,96)        -60.4057                                         !
 ! D241  D(91,90,93,94)       -172.9502                                         !
 ! D242  D(91,90,93,95)        -57.1943                                         !
 ! D243  D(91,90,93,96)         61.0837                                         !
 ! D244  D(92,90,93,94)        -56.5204                                         !
 ! D245  D(92,90,93,95)         59.2355                                         !
 ! D246  D(92,90,93,96)        177.5135                                         !
 ! D247  D(90,93,96,97)       -167.4606                                         !
 ! D248  D(90,93,96,98)         77.1005                                         !
 ! D249  D(94,93,96,97)         69.1708                                         !
 ! D250  D(94,93,96,98)        -46.2681                                         !
 ! D251  D(95,93,96,97)        -48.535                                          !
 ! D252  D(95,93,96,98)       -163.974                                          !
 --------------------------------------------------------------------------------
 Symmetry turned off by external request.
 Stoichiometry    C28H52N9O11(1+)
 Framework group  C1[X(C28H52N9O11)]
 Deg. of freedom   294
 Full point group                 C1      NOp   1
                          Input orientation:                          
 ---------------------------------------------------------------------
 Center     Atomic      Atomic             Coordinates (Angstroms)
 Number     Number       Type             X           Y           Z
 ---------------------------------------------------------------------
      1          7           0       -4.635587   -0.938444    4.685558
      2          1           0       -4.846196   -1.941562    4.694271
      3          1           0       -5.433531   -0.429123    5.075410
      4          1           0       -3.749937   -0.781001    5.256085
      5          6           0       -4.192737   -0.437166    3.324936
      6          1           0       -4.620114   -1.080689    2.553863
      7          6           0       -2.644789   -0.567837    3.417610
      8          6           0       -4.634433    1.033857    3.151767
      9          1           0       -5.709986    1.073546    2.941740
     10          1           0       -4.424064    1.590506    4.069674
     11          8           0       -2.160286   -0.565860    4.558348
     12          6           0       -3.781486    1.694496    2.051797
     13          7           0       -4.171793    1.426284    0.777031
     14          1           0       -3.553083    1.728166    0.032853
     15          1           0       -5.115454    1.158219    0.536455
     16          8           0       -2.750068    2.272025    2.347528
     17          7           0       -1.993828   -0.656149    2.266330
     18          1           0       -2.498264   -0.541792    1.385878
     19          6           0       -0.558811   -0.387992    2.106434
     20          1           0       -0.205132    0.089061    3.024792
     21          6           0       -0.497159    0.602789    0.927323
     22          6           0        0.240895   -1.692238    1.826206
     23          1           0       -0.177484   -2.114043    0.905363
     24          8           0       -1.389645    0.598511    0.066593
     25          6           0        0.052332   -2.725646    2.958892
     26          1           0        0.488718   -3.668003    2.604071
     27          1           0       -1.019265   -2.925411    3.091378
     28          6           0        1.726881   -1.398549    1.563963
     29          1           0        2.180179   -0.806959    2.370331
     30          1           0        2.285202   -2.337938    1.502348
     31          1           0        1.885440   -0.884816    0.614903
     32          6           0        0.674450   -2.360477    4.312490
     33          1           0        0.504069   -3.165159    5.036050
     34          1           0        1.757193   -2.217744    4.234608
     35          1           0        0.234202   -1.450095    4.731725
     36          7           0        0.554573    1.438054    0.894439
     37          1           0        1.292421    1.327675    1.578115
     38          6           0        0.808106    2.350869   -0.230705
     39          1           0       -0.169697    2.718631   -0.555412
     40          6           0        1.450436    1.534844   -1.373512
     41          6           0        1.696024    3.505348    0.213096
     42          1           0        1.847152    4.198541   -0.618282
     43          1           0        1.229852    4.043902    1.043176
     44          1           0        2.682210    3.140364    0.515048
     45          8           0        2.675000    1.592466   -1.578791
     46          7           0        0.598791    0.774209   -2.072105
     47          1           0       -0.356970    0.733366   -1.728854
     48          6           0        1.002717   -0.278732   -3.012443
     49          1           0        2.026574   -0.559036   -2.771860
     50          6           0        1.066910    0.257541   -4.457955
     51          6           0        0.126508   -1.519385   -2.732710
     52          1           0       -0.929832   -1.227888   -2.799938
     53          8           0        0.479545   -0.248736   -5.408603
     54          6           0        0.382124   -2.719507   -3.634838
     55          1           0        0.177667   -2.475344   -4.677708
     56          1           0       -0.267969   -3.538079   -3.309669
     57          1           0        1.424400   -3.036952   -3.557492
     58          8           0        0.332565   -1.869712   -1.355395
     59          1           0        1.267987   -2.136729   -1.276015
     60          7           0        1.903158    1.327437   -4.575252
     61          1           0        2.455902    1.598967   -3.767574
     62          6           0        2.347827    1.835257   -5.871837
     63          1           0        1.574479    1.572897   -6.597716
     64          6           0        3.675811    1.114767   -6.175516
     65          6           0        2.541397    3.345271   -5.843884
     66          1           0        2.930319    3.657163   -6.824556
     67          1           0        3.308080    3.599502   -5.097020
     68          8           0        4.761496    1.637935   -5.958850
     69          8           0        1.283883    3.937547   -5.548023
     70          1           0        1.388528    4.897672   -5.624579
     71          7           0        3.530179   -0.183429   -6.601279
     72          1           0        2.593591   -0.572616   -6.524503
     73          6           0        4.602790   -1.125317   -6.320636
     74          1           0        4.592453   -1.933624   -7.059880
     75          1           0        5.553863   -0.594850   -6.396783
     76          6           0        4.374753   -1.730500   -4.930137
     77          8           0        3.231291   -1.973435   -4.545884
     78          7           0        5.453284   -1.993296   -4.147489
     79          1           0        6.336213   -1.549999   -4.366630
     80          6           0        5.225502   -2.431813   -2.771077
     81          1           0        4.726116   -3.404536   -2.789756
     82          6           0        4.266366   -1.481741   -2.043843
     83          6           0        6.558145   -2.530763   -2.009577
     84          1           0        7.247482   -3.143281   -2.605318
     85          1           0        6.996844   -1.526333   -1.936470
     86          8           0        3.384365   -1.856995   -1.285070
     87          6           0        6.406942   -3.137519   -0.609287
     88          1           0        5.652728   -2.574343   -0.047048
     89          1           0        6.025994   -4.165323   -0.702878
     90          6           0        7.723660   -3.138320    0.175219
     91          1           0        8.051734   -2.102434    0.330102
     92          1           0        8.503520   -3.643323   -0.412091
     93          6           0        7.613498   -3.827426    1.539407
     94          1           0        7.407806   -4.902914    1.383421
     95          1           0        8.584655   -3.764884    2.043780
     96          7           0        6.623099   -3.156940    2.396261
     97          1           0        6.716514   -3.495555    3.352246
     98          1           0        5.683521   -3.419254    2.102542
     99          8           0        4.546654   -0.207965   -2.303767
    100          1           0        3.871556    0.393706   -1.891896
 ---------------------------------------------------------------------
 Rotational constants (GHZ):           0.0787816           0.0400182           0.0305481
 Standard basis: 6-31G(d) (6D, 7F)
   824 basis functions,  1552 primitive gaussians,   824 cartesian basis functions
   185 alpha electrons      185 beta electrons
       nuclear repulsion energy      7124.5575974606 Hartrees.
 NAtoms=  100 NActive=  100 NUniq=  100 SFac= 1.00D+00 NAtFMM=   60 NAOKFM=T Big=T
 Integral buffers will be    131072 words long.
 Raffenetti 2 integral format.
 Two-electron integral symmetry is turned off.
 Nuclear repulsion after empirical dispersion term =     7124.4072226093 Hartrees.
 One-electron integrals computed using PRISM.
 NBasis=   824 RedAO= T EigKep=  1.78D-03  NBF=   824
 NBsUse=   824 1.00D-06 EigRej= -1.00D+00 NBFU=   824
 Initial guess from the checkpoint file:  "conf-217.chk"
 B after Tr=     0.000000    0.000000    0.000000
         Rot=    1.000000    0.000000    0.000000    0.000000 Ang=   0.00 deg.
 Requested convergence on RMS density matrix=1.00D-08 within 128 cycles.
 Requested convergence on MAX density matrix=1.00D-06.
 Requested convergence on             energy=1.00D-06.
 No special actions if energy rises.
 SCF Done:  E(RB3LYP) =  -2418.56788516     A.U. after    1 cycles
            NFock=  1  Conv=0.42D-08     -V/T= 2.0092

 **********************************************************************

            Population analysis using the SCF Density.

 **********************************************************************

 Alpha  occ. eigenvalues --  -19.27515 -19.24641 -19.24047 -19.23172 -19.21450
 Alpha  occ. eigenvalues --  -19.20410 -19.20312 -19.19648 -19.18533 -19.17603
 Alpha  occ. eigenvalues --  -19.17201 -14.61728 -14.49790 -14.48258 -14.47228
 Alpha  occ. eigenvalues --  -14.44527 -14.43137 -14.41564 -14.40961 -14.36285
 Alpha  occ. eigenvalues --  -10.44240 -10.42721 -10.42271 -10.40068 -10.38430
 Alpha  occ. eigenvalues --  -10.37940 -10.35900 -10.35416 -10.34842 -10.34379
 Alpha  occ. eigenvalues --  -10.34023 -10.33021 -10.30163 -10.30142 -10.29531
 Alpha  occ. eigenvalues --  -10.28789 -10.28520 -10.28431 -10.28127 -10.26551
 Alpha  occ. eigenvalues --  -10.26521 -10.25753 -10.25635 -10.25333 -10.24927
 Alpha  occ. eigenvalues --  -10.24122 -10.23092 -10.21298  -1.20193  -1.16386
 Alpha  occ. eigenvalues --   -1.16156  -1.15398  -1.14845  -1.12727  -1.10733
 Alpha  occ. eigenvalues --   -1.09585  -1.08758  -1.07836  -1.07291  -1.06940
 Alpha  occ. eigenvalues --   -1.06723  -1.03540  -1.03134  -1.00935  -0.99376
 Alpha  occ. eigenvalues --   -0.98260  -0.97125  -0.94965  -0.92914  -0.90665
 Alpha  occ. eigenvalues --   -0.87091  -0.86602  -0.84835  -0.83967  -0.82219
 Alpha  occ. eigenvalues --   -0.81977  -0.81054  -0.79411  -0.77855  -0.76952
 Alpha  occ. eigenvalues --   -0.75642  -0.75334  -0.74525  -0.73820  -0.72786
 Alpha  occ. eigenvalues --   -0.71883  -0.71385  -0.70189  -0.69982  -0.69398
 Alpha  occ. eigenvalues --   -0.67951  -0.67705  -0.66613  -0.66244  -0.65742
 Alpha  occ. eigenvalues --   -0.65330  -0.64632  -0.64487  -0.64457  -0.62826
 Alpha  occ. eigenvalues --   -0.62516  -0.62397  -0.60763  -0.60449  -0.59734
 Alpha  occ. eigenvalues --   -0.59469  -0.58875  -0.58427  -0.57803  -0.57191
 Alpha  occ. eigenvalues --   -0.56730  -0.56039  -0.55903  -0.55743  -0.55120
 Alpha  occ. eigenvalues --   -0.54515  -0.54315  -0.53855  -0.53770  -0.53411
 Alpha  occ. eigenvalues --   -0.53295  -0.53073  -0.53035  -0.51939  -0.51920
 Alpha  occ. eigenvalues --   -0.51685  -0.51480  -0.51321  -0.50638  -0.50269
 Alpha  occ. eigenvalues --   -0.50093  -0.49536  -0.49358  -0.48572  -0.48458
 Alpha  occ. eigenvalues --   -0.48320  -0.48130  -0.47881  -0.47467  -0.47062
 Alpha  occ. eigenvalues --   -0.46786  -0.46659  -0.46491  -0.45900  -0.45678
 Alpha  occ. eigenvalues --   -0.45442  -0.45073  -0.45008  -0.44844  -0.44679
 Alpha  occ. eigenvalues --   -0.44198  -0.43261  -0.43039  -0.42725  -0.42574
 Alpha  occ. eigenvalues --   -0.42371  -0.42018  -0.41652  -0.41419  -0.41364
 Alpha  occ. eigenvalues --   -0.40817  -0.40464  -0.39758  -0.39354  -0.39138
 Alpha  occ. eigenvalues --   -0.39079  -0.38871  -0.38262  -0.38184  -0.37899
 Alpha  occ. eigenvalues --   -0.37646  -0.37175  -0.36829  -0.35546  -0.35165
 Alpha  occ. eigenvalues --   -0.34270  -0.33315  -0.33067  -0.33006  -0.32368
 Alpha  occ. eigenvalues --   -0.32049  -0.30759  -0.30436  -0.29110  -0.28545
 Alpha virt. eigenvalues --   -0.13536  -0.12303  -0.11577  -0.09223  -0.07400
 Alpha virt. eigenvalues --   -0.07003  -0.06390  -0.05185  -0.05018  -0.04253
 Alpha virt. eigenvalues --   -0.03436  -0.02749  -0.02106  -0.01477  -0.00773
 Alpha virt. eigenvalues --    0.00056   0.01187   0.01632   0.01895   0.02304
 Alpha virt. eigenvalues --    0.02514   0.02540   0.02641   0.03408   0.04213
 Alpha virt. eigenvalues --    0.04586   0.04904   0.05061   0.05211   0.05597
 Alpha virt. eigenvalues --    0.06022   0.06387   0.06445   0.06821   0.07071
 Alpha virt. eigenvalues --    0.07404   0.07763   0.07911   0.08325   0.08464
 Alpha virt. eigenvalues --    0.08637   0.08976   0.09165   0.09443   0.09783
 Alpha virt. eigenvalues --    0.09895   0.10067   0.10177   0.10460   0.11105
 Alpha virt. eigenvalues --    0.11318   0.11536   0.11862   0.11940   0.12064
 Alpha virt. eigenvalues --    0.12356   0.12397   0.12656   0.13188   0.13394
 Alpha virt. eigenvalues --    0.13543   0.13746   0.14006   0.14120   0.14301
 Alpha virt. eigenvalues --    0.14743   0.14780   0.15104   0.15692   0.15808
 Alpha virt. eigenvalues --    0.16127   0.16244   0.16826   0.17215   0.17272
 Alpha virt. eigenvalues --    0.17578   0.18111   0.18263   0.18775   0.19025
 Alpha virt. eigenvalues --    0.19478   0.19843   0.20061   0.20348   0.20648
 Alpha virt. eigenvalues --    0.20967   0.21240   0.22294   0.22531   0.22659
 Alpha virt. eigenvalues --    0.22905   0.23144   0.24334   0.25124   0.26505
 Alpha virt. eigenvalues --    0.27980   0.28301   0.29366   0.29397   0.29842
 Alpha virt. eigenvalues --    0.30916   0.32818   0.33852   0.34304   0.34797
 Alpha virt. eigenvalues --    0.36114   0.36323   0.37087   0.37360   0.38075
 Alpha virt. eigenvalues --    0.39457   0.40983   0.41220   0.42271   0.42604
 Alpha virt. eigenvalues --    0.43345   0.43787   0.44021   0.44401   0.44705
 Alpha virt. eigenvalues --    0.45510   0.45840   0.46125   0.46513   0.46659
 Alpha virt. eigenvalues --    0.47233   0.47591   0.47941   0.48242   0.48652
 Alpha virt. eigenvalues --    0.48784   0.48968   0.49478   0.49776   0.50342
 Alpha virt. eigenvalues --    0.50688   0.51329   0.51439   0.52014   0.52301
 Alpha virt. eigenvalues --    0.52748   0.53081   0.53183   0.53328   0.53537
 Alpha virt. eigenvalues --    0.53803   0.54375   0.54583   0.54921   0.55160
 Alpha virt. eigenvalues --    0.55328   0.55770   0.56470   0.56706   0.57477
 Alpha virt. eigenvalues --    0.57949   0.58030   0.58515   0.58867   0.59500
 Alpha virt. eigenvalues --    0.59567   0.59890   0.60062   0.60517   0.60781
 Alpha virt. eigenvalues --    0.61153   0.61426   0.61982   0.62364   0.62632
 Alpha virt. eigenvalues --    0.62744   0.63166   0.63594   0.63854   0.64562
 Alpha virt. eigenvalues --    0.64960   0.65162   0.65304   0.65906   0.66410
 Alpha virt. eigenvalues --    0.67126   0.67601   0.68111   0.68545   0.68917
 Alpha virt. eigenvalues --    0.69531   0.70043   0.70392   0.70599   0.70848
 Alpha virt. eigenvalues --    0.71356   0.71460   0.71599   0.72200   0.72563
 Alpha virt. eigenvalues --    0.72773   0.73192   0.73680   0.74078   0.74331
 Alpha virt. eigenvalues --    0.74673   0.75101   0.75513   0.75671   0.76458
 Alpha virt. eigenvalues --    0.76625   0.76886   0.77129   0.77357   0.77668
 Alpha virt. eigenvalues --    0.77913   0.78158   0.78312   0.78844   0.78932
 Alpha virt. eigenvalues --    0.79328   0.79506   0.79760   0.79878   0.80650
 Alpha virt. eigenvalues --    0.80962   0.81173   0.81396   0.81831   0.81916
 Alpha virt. eigenvalues --    0.82570   0.82922   0.83097   0.83457   0.83910
 Alpha virt. eigenvalues --    0.84311   0.84596   0.84962   0.85094   0.85330
 Alpha virt. eigenvalues --    0.85441   0.85810   0.86109   0.86234   0.86390
 Alpha virt. eigenvalues --    0.86803   0.87432   0.87685   0.87760   0.88184
 Alpha virt. eigenvalues --    0.88485   0.89166   0.89435   0.89645   0.89860
 Alpha virt. eigenvalues --    0.90160   0.90451   0.90757   0.91144   0.91845
 Alpha virt. eigenvalues --    0.92086   0.92271   0.92451   0.92702   0.93091
 Alpha virt. eigenvalues --    0.93656   0.94180   0.94752   0.94832   0.95127
 Alpha virt. eigenvalues --    0.95498   0.96500   0.96951   0.97156   0.98094
 Alpha virt. eigenvalues --    0.98913   0.99133   0.99471   1.00138   1.00331
 Alpha virt. eigenvalues --    1.00638   1.01597   1.02024   1.02744   1.03053
 Alpha virt. eigenvalues --    1.04182   1.05160   1.05418   1.06541   1.06585
 Alpha virt. eigenvalues --    1.07063   1.08248   1.08548   1.09194   1.09490
 Alpha virt. eigenvalues --    1.10145   1.10702   1.11454   1.11832   1.12256
 Alpha virt. eigenvalues --    1.13507   1.13855   1.14753   1.14884   1.15415
 Alpha virt. eigenvalues --    1.16914   1.17479   1.17807   1.18133   1.19042
 Alpha virt. eigenvalues --    1.19985   1.20292   1.21152   1.21573   1.22189
 Alpha virt. eigenvalues --    1.22263   1.23725   1.23828   1.24438   1.26080
 Alpha virt. eigenvalues --    1.26420   1.27024   1.27423   1.27865   1.28681
 Alpha virt. eigenvalues --    1.29568   1.30740   1.30825   1.31322   1.32267
 Alpha virt. eigenvalues --    1.33239   1.33531   1.34236   1.34976   1.35814
 Alpha virt. eigenvalues --    1.36090   1.36391   1.37438   1.37714   1.38199
 Alpha virt. eigenvalues --    1.39781   1.40001   1.40498   1.41263   1.41884
 Alpha virt. eigenvalues --    1.42327   1.42619   1.43288   1.43523   1.45077
 Alpha virt. eigenvalues --    1.45727   1.46176   1.46547   1.47591   1.48848
 Alpha virt. eigenvalues --    1.49535   1.49828   1.51291   1.52103   1.52485
 Alpha virt. eigenvalues --    1.53317   1.53687   1.54179   1.55181   1.55312
 Alpha virt. eigenvalues --    1.55961   1.57012   1.57423   1.58430   1.58963
 Alpha virt. eigenvalues --    1.59663   1.60186   1.60737   1.61078   1.61684
 Alpha virt. eigenvalues --    1.62095   1.62298   1.62498   1.63906   1.64734
 Alpha virt. eigenvalues --    1.64900   1.65638   1.66169   1.66395   1.66802
 Alpha virt. eigenvalues --    1.67509   1.68162   1.68404   1.69116   1.69263
 Alpha virt. eigenvalues --    1.69909   1.70347   1.70827   1.71192   1.71980
 Alpha virt. eigenvalues --    1.72263   1.72630   1.73101   1.73514   1.73886
 Alpha virt. eigenvalues --    1.74336   1.75093   1.75384   1.76091   1.76448
 Alpha virt. eigenvalues --    1.76786   1.77075   1.77777   1.78160   1.78646
 Alpha virt. eigenvalues --    1.79257   1.80126   1.80375   1.81102   1.81245
 Alpha virt. eigenvalues --    1.81289   1.82060   1.82259   1.82671   1.83447
 Alpha virt. eigenvalues --    1.83761   1.84398   1.84622   1.85145   1.85455
 Alpha virt. eigenvalues --    1.86014   1.86341   1.87192   1.87476   1.87587
 Alpha virt. eigenvalues --    1.88268   1.88454   1.88673   1.88919   1.89825
 Alpha virt. eigenvalues --    1.90036   1.90425   1.90931   1.91024   1.91247
 Alpha virt. eigenvalues --    1.91856   1.92092   1.92609   1.92846   1.93354
 Alpha virt. eigenvalues --    1.94413   1.95300   1.95395   1.96225   1.96571
 Alpha virt. eigenvalues --    1.97064   1.98107   1.98170   1.99164   1.99391
 Alpha virt. eigenvalues --    1.99755   2.00387   2.01008   2.01290   2.01412
 Alpha virt. eigenvalues --    2.02201   2.02504   2.02622   2.02741   2.03039
 Alpha virt. eigenvalues --    2.03925   2.04859   2.05061   2.05184   2.05945
 Alpha virt. eigenvalues --    2.06259   2.06949   2.07436   2.07974   2.08815
 Alpha virt. eigenvalues --    2.09633   2.10510   2.10561   2.11342   2.11514
 Alpha virt. eigenvalues --    2.12840   2.12973   2.14289   2.15315   2.16072
 Alpha virt. eigenvalues --    2.16229   2.16882   2.17208   2.17606   2.18667
 Alpha virt. eigenvalues --    2.19212   2.19881   2.20768   2.21301   2.22680
 Alpha virt. eigenvalues --    2.23283   2.23839   2.25084   2.25228   2.26420
 Alpha virt. eigenvalues --    2.26651   2.27169   2.27312   2.27733   2.28268
 Alpha virt. eigenvalues --    2.28833   2.29843   2.30147   2.30694   2.31202
 Alpha virt. eigenvalues --    2.31784   2.32423   2.32935   2.33919   2.34351
 Alpha virt. eigenvalues --    2.34512   2.35165   2.36572   2.37019   2.37815
 Alpha virt. eigenvalues --    2.39464   2.39569   2.39967   2.40417   2.41161
 Alpha virt. eigenvalues --    2.41776   2.42298   2.43670   2.44237   2.44643
 Alpha virt. eigenvalues --    2.44879   2.45892   2.46118   2.46920   2.47422
 Alpha virt. eigenvalues --    2.47723   2.49030   2.50188   2.51341   2.52714
 Alpha virt. eigenvalues --    2.53202   2.54445   2.55173   2.55483   2.55796
 Alpha virt. eigenvalues --    2.56204   2.56673   2.57558   2.58644   2.58965
 Alpha virt. eigenvalues --    2.59348   2.61080   2.61124   2.61944   2.62807
 Alpha virt. eigenvalues --    2.63638   2.63960   2.65327   2.66265   2.67454
 Alpha virt. eigenvalues --    2.67935   2.68623   2.69092   2.70306   2.71849
 Alpha virt. eigenvalues --    2.72120   2.74367   2.76672   2.77758   2.78591
 Alpha virt. eigenvalues --    2.79496   2.80393   2.82094   2.83223   2.83776
 Alpha virt. eigenvalues --    2.85264   2.85863   2.87839   2.88761   2.89444
 Alpha virt. eigenvalues --    2.89952   2.93135   2.94095   2.95449   2.95972
 Alpha virt. eigenvalues --    2.96920   3.00045   3.01001   3.01896   3.02811
 Alpha virt. eigenvalues --    3.05570   3.06925   3.09159   3.10444   3.10581
 Alpha virt. eigenvalues --    3.11812   3.61558   3.71419   3.72370   3.72798
 Alpha virt. eigenvalues --    3.82237   3.90001   3.91791   3.92407   3.96081
 Alpha virt. eigenvalues --    3.98195   4.00150   4.00982   4.02213   4.03536
 Alpha virt. eigenvalues --    4.06888   4.08283   4.10511   4.14862   4.15361
 Alpha virt. eigenvalues --    4.16229   4.16753   4.19038   4.19879   4.20799
 Alpha virt. eigenvalues --    4.21799   4.24782   4.25711   4.27286   4.28691
 Alpha virt. eigenvalues --    4.31179   4.31516   4.32622   4.34486   4.36467
 Alpha virt. eigenvalues --    4.39782   4.41289   4.42625   4.43418   4.44847
 Alpha virt. eigenvalues --    4.49511   4.51706   4.52328   4.55857   4.56459
 Alpha virt. eigenvalues --    4.57479   4.63119   4.64293   4.69530
          Condensed to atoms (all electrons):
 Mulliken charges:
               1
     1  N   -0.750446
     2  H    0.420666
     3  H    0.417301
     4  H    0.435389
     5  C   -0.121223
     6  H    0.218739
     7  C    0.655688
     8  C   -0.375056
     9  H    0.185713
    10  H    0.211636
    11  O   -0.536306
    12  C    0.576518
    13  N   -0.733615
    14  H    0.384592
    15  H    0.350731
    16  O   -0.466183
    17  N   -0.580322
    18  H    0.376789
    19  C   -0.088872
    20  H    0.190994
    21  C    0.688246
    22  C   -0.078120
    23  H    0.184239
    24  O   -0.589603
    25  C   -0.258000
    26  H    0.154360
    27  H    0.113582
    28  C   -0.499539
    29  H    0.136444
    30  H    0.172058
    31  H    0.181957
    32  C   -0.467957
    33  H    0.152202
    34  H    0.156994
    35  H    0.162597
    36  N   -0.589263
    37  H    0.352587
    38  C   -0.067799
    39  H    0.187016
    40  C    0.647365
    41  C   -0.467034
    42  H    0.185473
    43  H    0.168549
    44  H    0.177971
    45  O   -0.581067
    46  N   -0.575573
    47  H    0.375861
    48  C   -0.114968
    49  H    0.195463
    50  C    0.657853
    51  C    0.110426
    52  H    0.135068
    53  O   -0.535914
    54  C   -0.472251
    55  H    0.189169
    56  H    0.138835
    57  H    0.174826
    58  O   -0.662845
    59  H    0.430258
    60  N   -0.598679
    61  H    0.356535
    62  C   -0.082860
    63  H    0.197807
    64  C    0.608007
    65  C   -0.035647
    66  H    0.146989
    67  H    0.145090
    68  O   -0.516008
    69  O   -0.621344
    70  H    0.399330
    71  N   -0.578216
    72  H    0.362203
    73  C   -0.253091
    74  H    0.192712
    75  H    0.194951
    76  C    0.626968
    77  O   -0.527765
    78  N   -0.609236
    79  H    0.345389
    80  C    0.009339
    81  H    0.182540
    82  C    0.629514
    83  C   -0.320108
    84  H    0.158469
    85  H    0.163156
    86  O   -0.529668
    87  C   -0.280329
    88  H    0.159780
    89  H    0.134890
    90  C   -0.237666
    91  H    0.147667
    92  H    0.131401
    93  C   -0.148959
    94  H    0.117493
    95  H    0.147665
    96  N   -0.718878
    97  H    0.300457
    98  H    0.293176
    99  O   -0.594983
   100  H    0.459704
 Sum of Mulliken charges =   1.00000
 Mulliken charges with hydrogens summed into heavy atoms:
               1
     1  N    0.522910
     5  C    0.097516
     7  C    0.655688
     8  C    0.022293
    11  O   -0.536306
    12  C    0.576518
    13  N    0.001709
    16  O   -0.466183
    17  N   -0.203533
    19  C    0.102121
    21  C    0.688246
    22  C    0.106119
    24  O   -0.589603
    25  C    0.009942
    28  C   -0.009080
    32  C    0.003837
    36  N   -0.236676
    38  C    0.119218
    40  C    0.647365
    41  C    0.064959
    45  O   -0.581067
    46  N   -0.199713
    48  C    0.080495
    50  C    0.657853
    51  C    0.245494
    53  O   -0.535914
    54  C    0.030579
    58  O   -0.232587
    60  N   -0.242145
    62  C    0.114947
    64  C    0.608007
    65  C    0.256432
    68  O   -0.516008
    69  O   -0.222014
    71  N   -0.216013
    73  C    0.134573
    76  C    0.626968
    77  O   -0.527765
    78  N   -0.263847
    80  C    0.191879
    82  C    0.629514
    83  C    0.001517
    86  O   -0.529668
    87  C    0.014342
    90  C    0.041402
    93  C    0.116199
    96  N   -0.125244
    99  O   -0.135279
 Electronic spatial extent (au):  <R**2>=          39705.8644
 Charge=              1.0000 electrons
 Dipole moment (field-independent basis, Debye):
    X=            -13.8915    Y=             -3.3222    Z=             13.7975  Tot=             19.8591
 Quadrupole moment (field-independent basis, Debye-Ang):
   XX=           -138.1426   YY=           -250.1868   ZZ=           -213.3739
   XY=            -12.1315   XZ=            -88.3972   YZ=            -21.7441
 Traceless Quadrupole moment (field-independent basis, Debye-Ang):
   XX=             62.4252   YY=            -49.6191   ZZ=            -12.8061
   XY=            -12.1315   XZ=            -88.3972   YZ=            -21.7441
 Octapole moment (field-independent basis, Debye-Ang**2):
  XXX=          -1628.1492  YYY=            353.0715  ZZZ=           1101.5196  XYY=           -342.7202
  XXY=           -145.7658  XXZ=            604.3955  XZZ=           -648.5291  YZZ=             17.4661
  YYZ=            247.4767  XYZ=            108.2651
 Hexadecapole moment (field-independent basis, Debye-Ang**3):
 XXXX=         -17812.2995 YYYY=          -6498.4289 ZZZZ=         -19248.8243 XXXY=           1414.1974
 XXXZ=           3234.4574 YYYX=           2625.3732 YYYZ=            203.4778 ZZZX=           3612.4892
 ZZZY=            458.1755 XXYY=          -4255.9249 XXZZ=          -4954.0732 YYZZ=          -4053.4028
 XXYZ=            321.9773 YYXZ=           1769.2140 ZZXY=            808.9303
 N-N= 7.124407222609D+03 E-N=-1.986192906559D+04  KE= 2.396425276656D+03
 Unable to Open any file for archive entry.
 1\1\GINC-AMR-135\SP\RB3LYP\6-31G(d)\C28H52N9O11(1+)\KENGMITH\06-Jun-20
 22\0\\# B3LYP/6-31G* empiricaldispersion=gd3 guess=read geom=check nos
 ymm integral(ultrafinegrid)\\Candidate Structure: Conf:217 Charge calc
  in gas phase\\1,1\N,0,-4.635586566,-0.9384437269,4.6855580956\H,0,-4.
 8461960847,-1.941561609,4.6942705352\H,0,-5.4335307441,-0.4291229076,5
 .0754099542\H,0,-3.7499367406,-0.7810014349,5.2560853374\C,0,-4.192736
 7462,-0.4371659152,3.3249357679\H,0,-4.6201135954,-1.0806886974,2.5538
 633701\C,0,-2.644789208,-0.5678367986,3.4176104717\C,0,-4.6344334807,1
 .0338572554,3.1517671984\H,0,-5.7099858102,1.0735455107,2.9417398972\H
 ,0,-4.4240638972,1.5905057756,4.0696736062\O,0,-2.1602857545,-0.565859
 7832,4.5583477128\C,0,-3.7814855196,1.6944961691,2.0517974904\N,0,-4.1
 717925205,1.4262837882,0.7770305478\H,0,-3.5530826901,1.7281662534,0.0
 328525494\H,0,-5.1154539058,1.158219316,0.5364550654\O,0,-2.7500684404
 ,2.2720246941,2.347527576\N,0,-1.9938284824,-0.6561490025,2.2663298844
 \H,0,-2.4982639925,-0.5417920306,1.3858781814\C,0,-0.5588113203,-0.387
 9920802,2.1064335283\H,0,-0.205131858,0.089060762,3.0247916186\C,0,-0.
 4971589196,0.6027886378,0.9273233779\C,0,0.2408945122,-1.6922384666,1.
 8262063547\H,0,-0.1774843406,-2.1140434897,0.9053626034\O,0,-1.3896451
 596,0.5985107968,0.0665925958\C,0,0.0523324809,-2.7256455174,2.9588923
 073\H,0,0.4887175444,-3.668003149,2.6040706621\H,0,-1.0192651803,-2.92
 54109084,3.0913781205\C,0,1.7268812783,-1.3985490284,1.5639632816\H,0,
 2.180178627,-0.8069594884,2.3703306027\H,0,2.2852021427,-2.3379383894,
 1.5023476879\H,0,1.8854402699,-0.8848160343,0.6149028421\C,0,0.6744504
 829,-2.3604769908,4.3124896134\H,0,0.5040692742,-3.1651593691,5.036049
 9575\H,0,1.757193243,-2.2177444946,4.2346079031\H,0,0.2342019425,-1.45
 00951648,4.731724575\N,0,0.5545726331,1.4380539947,0.8944390014\H,0,1.
 292420747,1.3276751564,1.5781148041\C,0,0.8081061087,2.3508686615,-0.2
 307050305\H,0,-0.1696968004,2.7186312847,-0.5554118488\C,0,1.450436054
 1,1.5348438144,-1.3735119321\C,0,1.6960237258,3.5053479833,0.213095723
 \H,0,1.8471524644,4.1985409388,-0.6182824457\H,0,1.2298516695,4.043902
 3616,1.0431757521\H,0,2.6822103924,3.1403642813,0.5150483216\O,0,2.674
 9998822,1.592466281,-1.5787912166\N,0,0.5987911886,0.7742094411,-2.072
 1049084\H,0,-0.3569695791,0.7333662674,-1.7288538084\C,0,1.0027167811,
 -0.2787323288,-3.0124425331\H,0,2.0265737102,-0.5590357071,-2.77186007
 33\C,0,1.0669101195,0.2575411651,-4.4579549069\C,0,0.1265079783,-1.519
 3848751,-2.7327099179\H,0,-0.9298317282,-1.2278879237,-2.7999384105\O,
 0,0.4795453975,-0.2487364805,-5.4086034005\C,0,0.3821243853,-2.7195065
 87,-3.6348377679\H,0,0.1776674253,-2.4753441741,-4.6777079741\H,0,-0.2
 679692,-3.5380794357,-3.3096685042\H,0,1.4244002831,-3.0369517638,-3.5
 574917472\O,0,0.3325647395,-1.8697123872,-1.3553947107\H,0,1.267987404
 ,-2.1367294537,-1.2760152597\N,0,1.9031575565,1.3274365502,-4.57525234
 7\H,0,2.4559018032,1.5989674546,-3.7675735639\C,0,2.3478270032,1.83525
 73157,-5.8718370067\H,0,1.574478779,1.5728966929,-6.5977163046\C,0,3.6
 758112733,1.1147665207,-6.1755162404\C,0,2.5413966078,3.3452709513,-5.
 8438842143\H,0,2.9303186715,3.657163055,-6.8245559355\H,0,3.3080802938
 ,3.5995015107,-5.0970196448\O,0,4.7614959114,1.6379354269,-5.958850435
 9\O,0,1.2838825286,3.9375472386,-5.548023184\H,0,1.3885283758,4.897672
 4272,-5.624578637\N,0,3.5301794531,-0.1834291858,-6.6012786578\H,0,2.5
 935910968,-0.5726164491,-6.5245032684\C,0,4.6027899396,-1.1253174853,-
 6.3206364166\H,0,4.5924529001,-1.9336239468,-7.0598803918\H,0,5.553862
 7715,-0.5948499841,-6.3967832771\C,0,4.37475267,-1.7304997812,-4.93013
 74431\O,0,3.231290862,-1.9734347851,-4.5458837174\N,0,5.453284095,-1.9
 932957548,-4.1474893466\H,0,6.3362131081,-1.5499990754,-4.3666299301\C
 ,0,5.2255024407,-2.431812746,-2.7710768145\H,0,4.7261157641,-3.4045358
 879,-2.7897560923\C,0,4.2663660476,-1.4817414361,-2.0438429089\C,0,6.5
 581452411,-2.5307631818,-2.0095766625\H,0,7.2474816936,-3.1432809298,-
 2.6053183939\H,0,6.9968443607,-1.5263327325,-1.9364703943\O,0,3.384364
 8678,-1.856994604,-1.2850701637\C,0,6.4069417029,-3.1375188166,-0.6092
 866767\H,0,5.6527281478,-2.5743432818,-0.0470477442\H,0,6.0259941605,-
 4.1653229928,-0.7028781337\C,0,7.7236597191,-3.1383198545,0.175219189\
 H,0,8.0517337243,-2.1024343777,0.330101699\H,0,8.5035202084,-3.6433231
 622,-0.4120908506\C,0,7.6134978992,-3.8274257409,1.5394070534\H,0,7.40
 78055557,-4.9029136158,1.3834205085\H,0,8.5846550401,-3.7648844167,2.0
 43780025\N,0,6.6230993346,-3.1569400817,2.3962611337\H,0,6.7165140285,
 -3.4955546313,3.3522462082\H,0,5.6835212059,-3.4192542834,2.1025421831
 \O,0,4.5466544217,-0.2079654442,-2.3037672486\H,0,3.8715564827,0.39370
 58543,-1.8918963921\\Version=ES64L-G16RevC.01\HF=-2418.5678852\RMSD=4.
 169e-09\Dipole=-8.2572887,-0.6698593,7.3453566\Quadrupole=46.4116055,-
 36.8905502,-9.5210553,-9.0194419,-65.7211309,-16.166233\PG=C01 [X(C28H
 52N9O11)]\\@
 The archive entry for this job was punched.


 KEEP CLOSE TO NATURES HEART, YOURSELF;
 AND BREAK CLEAR AWAY, ONCE IN A WHILE, AND
 CLIMB A MOUNTAIN OR SPEND A WEEK IN THE
 WOODS.  WASH YOUR SPIRIT CLEAN...
                                         -- JOHN MUIR
 Job cpu time:       0 days  0 hours  2 minutes 40.4 seconds.
 Elapsed time:       0 days  0 hours  0 minutes 40.8 seconds.
 File lengths (MBytes):  RWF=    464 Int=      0 D2E=      0 Chk=     72 Scr=     16
 Normal termination of Gaussian 16 at Mon Jun  6 03:05:54 2022.
