 Entering Gaussian System, Link 0=/opt/software/Gaussian/g16-AVX2-C.01/g16/g16
 Input=charge-conf-110.com
 Output=charge-conf-110.log
 Initial command:
 /opt/software/Gaussian/g16-AVX2-C.01/g16/l1.exe "/mnt/gs18/scratch/users/kengmith/Gau-72267.inp" -scrdir="/mnt/gs18/scratch/users/kengmith/"
 Entering Link 1 = /opt/software/Gaussian/g16-AVX2-C.01/g16/l1.exe PID=     72277.
  
 Copyright (c) 1988-2019, Gaussian, Inc.  All Rights Reserved.
  
 This is part of the Gaussian(R) 16 program.  It is based on
 the Gaussian(R) 09 system (copyright 2009, Gaussian, Inc.),
 the Gaussian(R) 03 system (copyright 2003, Gaussian, Inc.),
 the Gaussian(R) 98 system (copyright 1998, Gaussian, Inc.),
 the Gaussian(R) 94 system (copyright 1995, Gaussian, Inc.),
 the Gaussian 92(TM) system (copyright 1992, Gaussian, Inc.),
 the Gaussian 90(TM) system (copyright 1990, Gaussian, Inc.),
 the Gaussian 88(TM) system (copyright 1988, Gaussian, Inc.),
 the Gaussian 86(TM) system (copyright 1986, Carnegie Mellon
 University), and the Gaussian 82(TM) system (copyright 1983,
 Carnegie Mellon University). Gaussian is a federally registered
 trademark of Gaussian, Inc.
  
 This software contains proprietary and confidential information,
 including trade secrets, belonging to Gaussian, Inc.
  
 This software is provided under written license and may be
 used, copied, transmitted, or stored only in accord with that
 written license.
  
 The following legend is applicable only to US Government
 contracts under FAR:
  
                    RESTRICTED RIGHTS LEGEND
  
 Use, reproduction and disclosure by the US Government is
 subject to restrictions as set forth in subparagraphs (a)
 and (c) of the Commercial Computer Software - Restricted
 Rights clause in FAR 52.227-19.
  
 Gaussian, Inc.
 340 Quinnipiac St., Bldg. 40, Wallingford CT 06492
  
  
 ---------------------------------------------------------------
 Warning -- This program may not be used in any manner that
 competes with the business of Gaussian, Inc. or will provide
 assistance to any competitor of Gaussian, Inc.  The licensee
 of this program is prohibited from giving any competitor of
 Gaussian, Inc. access to this program.  By using this program,
 the user acknowledges that Gaussian, Inc. is engaged in the
 business of creating and licensing software in the field of
 computational chemistry and represents and warrants to the
 licensee that it is not a competitor of Gaussian, Inc. and that
 it will not use this program in any manner prohibited above.
 ---------------------------------------------------------------
  

 Cite this work as:
 Gaussian 16, Revision C.01,
 M. J. Frisch, G. W. Trucks, H. B. Schlegel, G. E. Scuseria, 
 M. A. Robb, J. R. Cheeseman, G. Scalmani, V. Barone, 
 G. A. Petersson, H. Nakatsuji, X. Li, M. Caricato, A. V. Marenich, 
 J. Bloino, B. G. Janesko, R. Gomperts, B. Mennucci, H. P. Hratchian, 
 J. V. Ortiz, A. F. Izmaylov, J. L. Sonnenberg, D. Williams-Young, 
 F. Ding, F. Lipparini, F. Egidi, J. Goings, B. Peng, A. Petrone, 
 T. Henderson, D. Ranasinghe, V. G. Zakrzewski, J. Gao, N. Rega, 
 G. Zheng, W. Liang, M. Hada, M. Ehara, K. Toyota, R. Fukuda, 
 J. Hasegawa, M. Ishida, T. Nakajima, Y. Honda, O. Kitao, H. Nakai, 
 T. Vreven, K. Throssell, J. A. Montgomery, Jr., J. E. Peralta, 
 F. Ogliaro, M. J. Bearpark, J. J. Heyd, E. N. Brothers, K. N. Kudin, 
 V. N. Staroverov, T. A. Keith, R. Kobayashi, J. Normand, 
 K. Raghavachari, A. P. Rendell, J. C. Burant, S. S. Iyengar, 
 J. Tomasi, M. Cossi, J. M. Millam, M. Klene, C. Adamo, R. Cammi, 
 J. W. Ochterski, R. L. Martin, K. Morokuma, O. Farkas, 
 J. B. Foresman, and D. J. Fox, Gaussian, Inc., Wallingford CT, 2019.
 
 ******************************************
 Gaussian 16:  ES64L-G16RevC.01  3-Jul-2019
                 6-Jun-2022 
 ******************************************
 %mem=8gb
 %nproc=4
 Will use up to    4 processors via shared memory.
 %chk=conf-110.chk
 ----------------------------------------------------------------------
 # B3LYP/6-31G* empiricaldispersion=gd3 guess=read geom=check nosymm in
 tegral(ultrafinegrid)
 ----------------------------------------------------------------------
 1/29=2,38=1,172=1/1;
 2/12=2,15=1,40=1/2;
 3/5=1,6=6,7=1,11=2,14=-4,25=1,30=1,74=-5,75=-5,116=-2,124=31/1,2,3;
 4/5=1/1;
 5/5=2,38=6/2;
 6/7=2,8=2,9=2,10=2,28=1/1;
 99/5=1,9=1/99;
 ------------------------------------------------------
 Candidate Structure: Conf:110 Charge calc in gas phase
 ------------------------------------------------------
 Structure from the checkpoint file:  "conf-110.chk"
 Charge =  1 Multiplicity = 1
 Redundant internal coordinates found in file.  (old form).
 N,0,-5.3537564426,-1.9856892753,2.698346946
 H,0,-5.8444704624,-1.9090890885,3.5930242826
 H,0,-5.1252555904,-3.0114236662,2.4676088964
 H,0,-5.930600112,-1.5155792807,1.9810282753
 C,0,-4.0207917073,-1.2852547151,2.7054295663
 H,0,-3.5718410009,-1.4365873836,3.6914010016
 C,0,-4.3007343311,0.1928985061,2.3922968801
 C,0,-3.1416458638,-1.9006359853,1.5993346538
 H,0,-3.6239691332,-1.7225105768,0.6295148269
 H,0,-2.1795106296,-1.3876979583,1.553230138
 O,0,-5.3126704513,0.4708926506,1.754709384
 C,0,-2.9926616578,-3.4116947708,1.7921802786
 N,0,-1.786171343,-3.9295915044,1.5706514137
 H,0,-1.6799709132,-4.9350135641,1.6347350073
 H,0,-0.9918252441,-3.3388690524,1.2942543429
 O,0,-3.9820379438,-4.093613574,2.1344078166
 N,0,-3.3758249981,1.0727525685,2.8280821325
 H,0,-2.5533742889,0.6955501493,3.2846356571
 C,0,-3.224974346,2.3917262055,2.2004038701
 H,0,-4.1309516745,2.5258983423,1.6016384135
 C,0,-2.0726949763,2.2074004393,1.1743310223
 C,0,-3.1261791668,3.5499725229,3.2241050188
 H,0,-2.099729245,3.5709235958,3.6232307286
 O,0,-2.0679292414,1.188914798,0.4724819637
 C,0,-4.0573629138,3.3349541282,4.4410326186
 H,0,-3.8879151706,4.1699161415,5.132192974
 H,0,-3.7394984102,2.4313896956,4.9748106206
 C,0,-3.4227530862,4.8996550981,2.5400778644
 H,0,-4.4476523408,4.9232206512,2.156483512
 H,0,-3.3150086486,5.7188993082,3.2576917436
 H,0,-2.7654416273,5.1118139127,1.6910056353
 C,0,-5.5554832167,3.2342446609,4.1239748765
 H,0,-6.1195909296,3.0412315734,5.0425011458
 H,0,-5.9460259684,4.1634154107,3.697209386
 H,0,-5.7776171801,2.4252950112,3.4195564743
 N,0,-1.1029837346,3.1413884926,1.1048072891
 H,0,-1.1061420916,3.919697554,1.7480628686
 C,0,-0.0020548168,3.0874785794,0.1314302427
 H,0,-0.4129537446,2.6505233065,-0.7854503959
 C,0,1.1248769926,2.1473307576,0.6118737261
 C,0,0.5360350873,4.4853744777,-0.1440071687
 H,0,1.3439894801,4.4148918773,-0.87441164
 H,0,-0.255755924,5.1301522956,-0.5369482874
 H,0,0.9580916903,4.931333813,0.7622266189
 O,0,2.2697747198,2.5466244048,0.8135581996
 N,0,0.7542504909,0.8480457301,0.7654847073
 H,0,-0.1726928304,0.5652792535,0.4504376015
 C,0,1.7431674598,-0.1938930077,1.0206547389
 H,0,2.5140953265,0.2281858052,1.673267579
 C,0,2.3687204746,-0.5888769254,-0.3347787519
 C,0,1.0919378484,-1.4094129125,1.7002600139
 H,0,1.8787652149,-2.159783258,1.8587916736
 O,0,2.0893629981,-1.6711837294,-0.8850603138
 C,0,0.4321065945,-1.0677393433,3.0275298178
 H,0,1.1707856135,-0.702586448,3.7474731482
 H,0,-0.0491292562,-1.957820809,3.4454732043
 H,0,-0.3214007034,-0.2849162147,2.882769292
 O,0,0.0824971325,-1.9498625723,0.8305753095
 H,0,0.5674917885,-2.1291102752,-0.0128209501
 N,0,3.151662285,0.341014828,-0.8978013568
 H,0,3.2781754153,1.2081014155,-0.3789919182
 C,0,3.4200285774,0.3759753624,-2.3410288206
 H,0,2.5583884285,-0.0787484267,-2.8557916956
 C,0,4.6623841448,-0.4231826014,-2.7707428098
 C,0,3.5134337239,1.8270132258,-2.7925407498
 H,0,3.7894152929,1.8389569757,-3.8503392088
 H,0,4.3007868653,2.3548513894,-2.2343004477
 O,0,5.4635304719,0.0305237505,-3.590059865
 O,0,2.2301319872,2.4326241441,-2.5662906862
 H,0,2.2599095378,3.3204519439,-2.9534346184
 N,0,4.7527753509,-1.6654683093,-2.2342825443
 H,0,3.9210838217,-2.0376310181,-1.7820660238
 C,0,5.7278629598,-2.6295186244,-2.7416898585
 H,0,6.6532066039,-2.0937577682,-2.9656772731
 H,0,5.9158111041,-3.3836438035,-1.9764330719
 C,0,5.1479885354,-3.3346498775,-3.9771069082
 O,0,4.5839646877,-4.418259875,-3.8865597717
 N,0,5.2268590686,-2.6050912233,-5.1260314341
 H,0,5.6584402408,-1.6891125785,-5.0824809299
 C,0,4.5043461746,-2.9949782723,-6.3205779587
 H,0,3.8150410579,-3.7865055265,-6.0031208725
 C,0,5.3758213842,-3.6315582426,-7.4034379148
 C,0,3.6864865155,-1.8333437642,-6.9227087337
 H,0,4.3586787701,-1.1329443854,-7.4375018889
 H,0,3.043442678,-2.2603165224,-7.6992966763
 O,0,4.9622794049,-3.8962689876,-8.5108410145
 C,0,2.8657525555,-1.0764418646,-5.8713750481
 H,0,2.4073153069,-1.7805118621,-5.1668168176
 H,0,3.5406650656,-0.451504877,-5.2751773212
 C,0,1.7784041886,-0.1899565063,-6.4915569188
 H,0,0.9635707048,-0.8214447143,-6.8747669133
 H,0,2.1803161786,0.3448209869,-7.3633970878
 C,0,1.2164896248,0.852076604,-5.5188015648
 H,0,2.0124959277,1.5601929439,-5.257707323
 H,0,0.432027198,1.4382523277,-6.0288378853
 N,0,0.7639772184,0.2419241276,-4.25908556
 H,0,-0.075817862,-0.3124399886,-4.4214967347
 H,0,0.5259690113,0.9770113513,-3.5962534886
 O,0,6.6414832763,-3.8779387184,-7.0043051033
 H,0,7.0843382126,-4.3044327655,-7.762771822
 Recover connectivity data from disk.
                           ----------------------------
                           !    Current Parameters    !
                           ! (Angstroms and Degrees)  !
 --------------------------                            --------------------------
 ! Name  Definition              Value                                          !
 --------------------------------------------------------------------------------
 ! R1    R(1,2)                  1.0233                                         !
 ! R2    R(1,3)                  1.0759                                         !
 ! R3    R(1,4)                  1.0336                                         !
 ! R4    R(1,5)                  1.5058                                         !
 ! R5    R(5,6)                  1.0939                                         !
 ! R6    R(5,7)                  1.5367                                         !
 ! R7    R(5,8)                  1.5411                                         !
 ! R8    R(7,11)                 1.2279                                         !
 ! R9    R(7,17)                 1.3489                                         !
 ! R10   R(8,9)                  1.0977                                         !
 ! R11   R(8,10)                 1.0913                                         !
 ! R12   R(8,12)                 1.5306                                         !
 ! R13   R(12,13)                1.3315                                         !
 ! R14   R(12,16)                1.2494                                         !
 ! R15   R(13,14)                1.013                                          !
 ! R16   R(13,15)                1.0278                                         !
 ! R17   R(17,18)                1.0135                                         !
 ! R18   R(17,19)                1.4685                                         !
 ! R19   R(19,20)                1.0942                                         !
 ! R20   R(19,21)                1.5539                                         !
 ! R21   R(19,22)                1.549                                          !
 ! R22   R(21,24)                1.2369                                         !
 ! R23   R(21,36)                1.3481                                         !
 ! R24   R(22,23)                1.1015                                         !
 ! R25   R(22,25)                1.5473                                         !
 ! R26   R(22,28)                1.5419                                         !
 ! R27   R(25,26)                1.0971                                         !
 ! R28   R(25,27)                1.0965                                         !
 ! R29   R(25,32)                1.5346                                         !
 ! R30   R(28,29)                1.0946                                         !
 ! R31   R(28,30)                1.0944                                         !
 ! R32   R(28,31)                1.0945                                         !
 ! R33   R(32,33)                1.0951                                         !
 ! R34   R(32,34)                1.0945                                         !
 ! R35   R(32,35)                1.0954                                         !
 ! R36   R(36,37)                1.0097                                         !
 ! R37   R(36,38)                1.4705                                         !
 ! R38   R(38,39)                1.0956                                         !
 ! R39   R(38,40)                1.5442                                         !
 ! R40   R(38,41)                1.523                                          !
 ! R41   R(40,45)                1.2292                                         !
 ! R42   R(40,46)                1.3598                                         !
 ! R43   R(41,42)                1.0914                                         !
 ! R44   R(41,43)                1.0941                                         !
 ! R45   R(41,44)                1.0947                                         !
 ! R46   R(46,47)                1.019                                          !
 ! R47   R(46,48)                1.459                                          !
 ! R48   R(48,49)                1.0947                                         !
 ! R49   R(48,50)                1.5442                                         !
 ! R50   R(48,51)                1.5374                                         !
 ! R51   R(50,53)                1.2459                                         !
 ! R52   R(50,60)                1.3397                                         !
 ! R53   R(51,52)                1.0988                                         !
 ! R54   R(51,54)                1.5211                                         !
 ! R55   R(51,58)                1.4378                                         !
 ! R56   R(54,55)                1.0942                                         !
 ! R57   R(54,56)                1.0948                                         !
 ! R58   R(54,57)                1.0961                                         !
 ! R59   R(58,59)                0.9893                                         !
 ! R60   R(60,61)                1.0183                                         !
 ! R61   R(60,62)                1.4684                                         !
 ! R62   R(62,63)                1.1019                                         !
 ! R63   R(62,64)                1.5384                                         !
 ! R64   R(62,65)                1.5225                                         !
 ! R65   R(64,68)                1.2325                                         !
 ! R66   R(64,71)                1.3562                                         !
 ! R67   R(65,66)                1.0933                                         !
 ! R68   R(65,67)                1.1001                                         !
 ! R69   R(65,69)                1.4369                                         !
 ! R70   R(69,70)                0.969                                          !
 ! R71   R(71,72)                1.0172                                         !
 ! R72   R(71,73)                1.4621                                         !
 ! R73   R(73,74)                1.0925                                         !
 ! R74   R(73,75)                1.0907                                         !
 ! R75   R(73,76)                1.5361                                         !
 ! R76   R(76,77)                1.225                                          !
 ! R77   R(76,78)                1.3633                                         !
 ! R78   R(78,79)                1.0135                                         !
 ! R79   R(78,80)                1.4495                                         !
 ! R80   R(80,81)                1.0966                                         !
 ! R81   R(80,82)                1.5288                                         !
 ! R82   R(80,83)                1.543                                          !
 ! R83   R(82,86)                1.2114                                         !
 ! R84   R(82,99)                1.3498                                         !
 ! R85   R(83,84)                1.0988                                         !
 ! R86   R(83,85)                1.0949                                         !
 ! R87   R(83,87)                1.5336                                         !
 ! R88   R(87,88)                1.0965                                         !
 ! R89   R(87,89)                1.0961                                         !
 ! R90   R(87,90)                1.5339                                         !
 ! R91   R(90,91)                1.0998                                         !
 ! R92   R(90,92)                1.0989                                         !
 ! R93   R(90,93)                1.5323                                         !
 ! R94   R(93,94)                1.0969                                         !
 ! R95   R(93,95)                1.1041                                         !
 ! R96   R(93,96)                1.471                                          !
 ! R97   R(96,97)                1.0193                                         !
 ! R98   R(96,98)                1.018                                          !
 ! R99   R(99,100)               0.9764                                         !
 ! A1    A(2,1,3)              111.1442                                         !
 ! A2    A(2,1,4)              107.7643                                         !
 ! A3    A(2,1,5)              112.6792                                         !
 ! A4    A(3,1,4)              113.7856                                         !
 ! A5    A(3,1,5)              104.8607                                         !
 ! A6    A(4,1,5)              106.6028                                         !
 ! A7    A(1,5,6)              107.6496                                         !
 ! A8    A(1,5,7)              106.572                                          !
 ! A9    A(1,5,8)              108.413                                          !
 ! A10   A(6,5,7)              113.0486                                         !
 ! A11   A(6,5,8)              110.9496                                         !
 ! A12   A(7,5,8)              109.985                                          !
 ! A13   A(5,7,11)             118.2753                                         !
 ! A14   A(5,7,17)             115.8931                                         !
 ! A15   A(11,7,17)            125.8134                                         !
 ! A16   A(5,8,9)              108.5819                                         !
 ! A17   A(5,8,10)             110.2171                                         !
 ! A18   A(5,8,12)             111.058                                          !
 ! A19   A(9,8,10)             105.8902                                         !
 ! A20   A(9,8,12)             108.3181                                         !
 ! A21   A(10,8,12)            112.5528                                         !
 ! A22   A(8,12,13)            116.8227                                         !
 ! A23   A(8,12,16)            119.7533                                         !
 ! A24   A(13,12,16)           123.4228                                         !
 ! A25   A(12,13,14)           118.0664                                         !
 ! A26   A(12,13,15)           121.4327                                         !
 ! A27   A(14,13,15)           120.4256                                         !
 ! A28   A(7,17,18)            117.3358                                         !
 ! A29   A(7,17,19)            121.2128                                         !
 ! A30   A(18,17,19)           116.3261                                         !
 ! A31   A(17,19,20)           105.0094                                         !
 ! A32   A(17,19,21)           104.5887                                         !
 ! A33   A(17,19,22)           113.3092                                         !
 ! A34   A(20,19,21)           105.4969                                         !
 ! A35   A(20,19,22)           108.8304                                         !
 ! A36   A(21,19,22)           118.5427                                         !
 ! A37   A(19,21,24)           118.3737                                         !
 ! A38   A(19,21,36)           119.0296                                         !
 ! A39   A(24,21,36)           122.5764                                         !
 ! A40   A(19,22,23)           108.2479                                         !
 ! A41   A(19,22,25)           112.1778                                         !
 ! A42   A(19,22,28)           110.4311                                         !
 ! A43   A(23,22,25)           106.1683                                         !
 ! A44   A(23,22,28)           108.8643                                         !
 ! A45   A(25,22,28)           110.7799                                         !
 ! A46   A(22,25,26)           107.2634                                         !
 ! A47   A(22,25,27)           108.8382                                         !
 ! A48   A(22,25,32)           115.7293                                         !
 ! A49   A(26,25,27)           106.0034                                         !
 ! A50   A(26,25,32)           109.3227                                         !
 ! A51   A(27,25,32)           109.2375                                         !
 ! A52   A(22,28,29)           110.7571                                         !
 ! A53   A(22,28,30)           110.2076                                         !
 ! A54   A(22,28,31)           113.4718                                         !
 ! A55   A(29,28,30)           107.8097                                         !
 ! A56   A(29,28,31)           106.6354                                         !
 ! A57   A(30,28,31)           107.7243                                         !
 ! A58   A(25,32,33)           109.9474                                         !
 ! A59   A(25,32,34)           111.9114                                         !
 ! A60   A(25,32,35)           112.2893                                         !
 ! A61   A(33,32,34)           107.0298                                         !
 ! A62   A(33,32,35)           107.744                                          !
 ! A63   A(34,32,35)           107.6874                                         !
 ! A64   A(21,36,37)           119.9278                                         !
 ! A65   A(21,36,38)           123.1784                                         !
 ! A66   A(37,36,38)           116.8905                                         !
 ! A67   A(36,38,39)           106.7249                                         !
 ! A68   A(36,38,40)           111.2681                                         !
 ! A69   A(36,38,41)           110.5225                                         !
 ! A70   A(39,38,40)           106.9323                                         !
 ! A71   A(39,38,41)           110.3167                                         !
 ! A72   A(40,38,41)           110.9305                                         !
 ! A73   A(38,40,45)           122.2085                                         !
 ! A74   A(38,40,46)           114.7053                                         !
 ! A75   A(45,40,46)           123.0735                                         !
 ! A76   A(38,41,42)           108.8624                                         !
 ! A77   A(38,41,43)           110.4981                                         !
 ! A78   A(38,41,44)           111.1268                                         !
 ! A79   A(42,41,43)           109.4772                                         !
 ! A80   A(42,41,44)           107.1522                                         !
 ! A81   A(43,41,44)           109.6493                                         !
 ! A82   A(40,46,47)           118.5635                                         !
 ! A83   A(40,46,48)           121.156                                          !
 ! A84   A(47,46,48)           118.1937                                         !
 ! A85   A(46,48,49)           107.8331                                         !
 ! A86   A(46,48,50)           107.6818                                         !
 ! A87   A(46,48,51)           110.7834                                         !
 ! A88   A(49,48,50)           109.6709                                         !
 ! A89   A(49,48,51)           109.8542                                         !
 ! A90   A(50,48,51)           110.9399                                         !
 ! A91   A(48,50,53)           121.2691                                         !
 ! A92   A(48,50,60)           115.3474                                         !
 ! A93   A(53,50,60)           123.2578                                         !
 ! A94   A(48,51,52)           107.4813                                         !
 ! A95   A(48,51,54)           113.0718                                         !
 ! A96   A(48,51,58)           109.0987                                         !
 ! A97   A(52,51,54)           109.7634                                         !
 ! A98   A(52,51,58)           109.4701                                         !
 ! A99   A(54,51,58)           107.9186                                         !
 ! A100  A(51,54,55)           110.869                                          !
 ! A101  A(51,54,56)           109.9484                                         !
 ! A102  A(51,54,57)           110.0824                                         !
 ! A103  A(55,54,56)           108.4747                                         !
 ! A104  A(55,54,57)           108.2175                                         !
 ! A105  A(56,54,57)           109.2008                                         !
 ! A106  A(51,58,59)           103.8619                                         !
 ! A107  A(50,60,61)           116.713                                          !
 ! A108  A(50,60,62)           122.4397                                         !
 ! A109  A(61,60,62)           117.2428                                         !
 ! A110  A(60,62,63)           107.8435                                         !
 ! A111  A(60,62,64)           114.1896                                         !
 ! A112  A(60,62,65)           108.9884                                         !
 ! A113  A(63,62,64)           106.6554                                         !
 ! A114  A(63,62,65)           107.6216                                         !
 ! A115  A(64,62,65)           111.2659                                         !
 ! A116  A(62,64,68)           121.2916                                         !
 ! A117  A(62,64,71)           114.7823                                         !
 ! A118  A(68,64,71)           123.8383                                         !
 ! A119  A(62,65,66)           108.2298                                         !
 ! A120  A(62,65,67)           110.5307                                         !
 ! A121  A(62,65,69)           107.4687                                         !
 ! A122  A(66,65,67)           107.7625                                         !
 ! A123  A(66,65,69)           111.9121                                         !
 ! A124  A(67,65,69)           110.9206                                         !
 ! A125  A(65,69,70)           107.2051                                         !
 ! A126  A(64,71,72)           117.1614                                         !
 ! A127  A(64,71,73)           120.7416                                         !
 ! A128  A(72,71,73)           117.2795                                         !
 ! A129  A(71,73,74)           108.2213                                         !
 ! A130  A(71,73,75)           109.1065                                         !
 ! A131  A(71,73,76)           109.2702                                         !
 ! A132  A(74,73,75)           109.6925                                         !
 ! A133  A(74,73,76)           112.3315                                         !
 ! A134  A(75,73,76)           108.1759                                         !
 ! A135  A(73,76,77)           121.3607                                         !
 ! A136  A(73,76,78)           114.2235                                         !
 ! A137  A(77,76,78)           124.2174                                         !
 ! A138  A(76,78,79)           118.1696                                         !
 ! A139  A(76,78,80)           121.4505                                         !
 ! A140  A(79,78,80)           119.3918                                         !
 ! A141  A(78,80,81)           105.5997                                         !
 ! A142  A(78,80,82)           114.3045                                         !
 ! A143  A(78,80,83)           112.5387                                         !
 ! A144  A(81,80,82)           105.2375                                         !
 ! A145  A(81,80,83)           108.857                                          !
 ! A146  A(82,80,83)           109.829                                          !
 ! A147  A(80,82,86)           122.9492                                         !
 ! A148  A(80,82,99)           113.6448                                         !
 ! A149  A(86,82,99)           123.4042                                         !
 ! A150  A(80,83,84)           109.7819                                         !
 ! A151  A(80,83,85)           107.127                                          !
 ! A152  A(80,83,87)           112.8125                                         !
 ! A153  A(84,83,85)           105.9943                                         !
 ! A154  A(84,83,87)           109.5099                                         !
 ! A155  A(85,83,87)           111.3698                                         !
 ! A156  A(83,87,88)           110.325                                          !
 ! A157  A(83,87,89)           108.9503                                         !
 ! A158  A(83,87,90)           112.7956                                         !
 ! A159  A(88,87,89)           105.9039                                         !
 ! A160  A(88,87,90)           109.5432                                         !
 ! A161  A(89,87,90)           109.0803                                         !
 ! A162  A(87,90,91)           109.5265                                         !
 ! A163  A(87,90,92)           110.0448                                         !
 ! A164  A(87,90,93)           113.3478                                         !
 ! A165  A(91,90,92)           105.8996                                         !
 ! A166  A(91,90,93)           109.8757                                         !
 ! A167  A(92,90,93)           107.869                                          !
 ! A168  A(90,93,94)           108.9052                                         !
 ! A169  A(90,93,95)           109.1673                                         !
 ! A170  A(90,93,96)           111.9864                                         !
 ! A171  A(94,93,95)           106.428                                          !
 ! A172  A(94,93,96)           106.6878                                         !
 ! A173  A(95,93,96)           113.4047                                         !
 ! A174  A(93,96,97)           110.0343                                         !
 ! A175  A(93,96,98)           109.2681                                         !
 ! A176  A(97,96,98)           107.6884                                         !
 ! A177  A(82,99,100)          105.9818                                         !
 ! D1    D(2,1,5,6)             37.4743                                         !
 ! D2    D(2,1,5,7)            -84.0822                                         !
 ! D3    D(2,1,5,8)            157.5654                                         !
 ! D4    D(3,1,5,6)            -83.547                                          !
 ! D5    D(3,1,5,7)            154.8965                                         !
 ! D6    D(3,1,5,8)             36.5441                                         !
 ! D7    D(4,1,5,6)            155.4861                                         !
 ! D8    D(4,1,5,7)             33.9296                                         !
 ! D9    D(4,1,5,8)            -84.4228                                         !
 ! D10   D(1,5,7,11)           -25.5191                                         !
 ! D11   D(1,5,7,17)           155.9438                                         !
 ! D12   D(6,5,7,11)          -143.5789                                         !
 ! D13   D(6,5,7,17)            37.884                                          !
 ! D14   D(8,5,7,11)            91.7965                                         !
 ! D15   D(8,5,7,17)           -86.7406                                         !
 ! D16   D(1,5,8,9)             62.2828                                         !
 ! D17   D(1,5,8,10)           177.8535                                         !
 ! D18   D(1,5,8,12)           -56.713                                          !
 ! D19   D(6,5,8,9)           -179.7069                                         !
 ! D20   D(6,5,8,10)           -64.1362                                         !
 ! D21   D(6,5,8,12)            61.2973                                         !
 ! D22   D(7,5,8,9)            -53.8811                                         !
 ! D23   D(7,5,8,10)            61.6895                                         !
 ! D24   D(7,5,8,12)          -172.877                                          !
 ! D25   D(5,7,17,18)            2.833                                          !
 ! D26   D(5,7,17,19)          156.5923                                         !
 ! D27   D(11,7,17,18)        -175.5782                                         !
 ! D28   D(11,7,17,19)         -21.8189                                         !
 ! D29   D(5,8,12,13)         -139.1009                                         !
 ! D30   D(5,8,12,16)           41.296                                          !
 ! D31   D(9,8,12,13)          101.7449                                         !
 ! D32   D(9,8,12,16)          -77.8582                                         !
 ! D33   D(10,8,12,13)         -14.9848                                         !
 ! D34   D(10,8,12,16)         165.4121                                         !
 ! D35   D(8,12,13,14)        -176.1532                                         !
 ! D36   D(8,12,13,15)           0.7044                                         !
 ! D37   D(16,12,13,14)          3.4339                                         !
 ! D38   D(16,12,13,15)       -179.7084                                         !
 ! D39   D(7,17,19,20)          14.7818                                         !
 ! D40   D(7,17,19,21)         -96.0498                                         !
 ! D41   D(7,17,19,22)         133.4274                                         !
 ! D42   D(18,17,19,20)        168.7915                                         !
 ! D43   D(18,17,19,21)         57.9598                                         !
 ! D44   D(18,17,19,22)        -72.5629                                         !
 ! D45   D(17,19,21,24)         43.6275                                         !
 ! D46   D(17,19,21,36)       -134.7732                                         !
 ! D47   D(20,19,21,24)        -66.8515                                         !
 ! D48   D(20,19,21,36)        114.7477                                         !
 ! D49   D(22,19,21,24)        171.0012                                         !
 ! D50   D(22,19,21,36)         -7.3996                                         !
 ! D51   D(17,19,22,23)         79.0302                                         !
 ! D52   D(17,19,22,25)        -37.7797                                         !
 ! D53   D(17,19,22,28)       -161.8836                                         !
 ! D54   D(20,19,22,23)       -164.5547                                         !
 ! D55   D(20,19,22,25)         78.6353                                         !
 ! D56   D(20,19,22,28)        -45.4685                                         !
 ! D57   D(21,19,22,23)        -44.1011                                         !
 ! D58   D(21,19,22,25)       -160.9111                                         !
 ! D59   D(21,19,22,28)         74.985                                          !
 ! D60   D(19,21,36,37)          3.295                                          !
 ! D61   D(19,21,36,38)       -177.38                                           !
 ! D62   D(24,21,36,37)       -175.0352                                         !
 ! D63   D(24,21,36,38)          4.2899                                         !
 ! D64   D(19,22,25,26)        177.2741                                         !
 ! D65   D(19,22,25,27)         63.0024                                         !
 ! D66   D(19,22,25,32)        -60.4234                                         !
 ! D67   D(23,22,25,26)         59.2232                                         !
 ! D68   D(23,22,25,27)        -55.0485                                         !
 ! D69   D(23,22,25,32)       -178.4743                                         !
 ! D70   D(28,22,25,26)        -58.8165                                         !
 ! D71   D(28,22,25,27)       -173.0881                                         !
 ! D72   D(28,22,25,32)         63.4861                                         !
 ! D73   D(19,22,28,29)         62.9169                                         !
 ! D74   D(19,22,28,30)       -177.8709                                         !
 ! D75   D(19,22,28,31)        -56.9737                                         !
 ! D76   D(23,22,28,29)       -178.3718                                         !
 ! D77   D(23,22,28,30)        -59.1595                                         !
 ! D78   D(23,22,28,31)         61.7377                                         !
 ! D79   D(25,22,28,29)        -61.9872                                         !
 ! D80   D(25,22,28,30)         57.2251                                         !
 ! D81   D(25,22,28,31)        178.1223                                         !
 ! D82   D(22,25,32,33)        177.6175                                         !
 ! D83   D(22,25,32,34)        -63.5794                                         !
 ! D84   D(22,25,32,35)         57.6726                                         !
 ! D85   D(26,25,32,33)        -61.1801                                         !
 ! D86   D(26,25,32,34)         57.6231                                         !
 ! D87   D(26,25,32,35)        178.8751                                         !
 ! D88   D(27,25,32,33)         54.4013                                         !
 ! D89   D(27,25,32,34)        173.2044                                         !
 ! D90   D(27,25,32,35)        -65.5436                                         !
 ! D91   D(21,36,38,39)         34.5267                                         !
 ! D92   D(21,36,38,40)        -81.7875                                         !
 ! D93   D(21,36,38,41)        154.5                                            !
 ! D94   D(37,36,38,39)       -146.1292                                         !
 ! D95   D(37,36,38,40)         97.5566                                         !
 ! D96   D(37,36,38,41)        -26.1559                                         !
 ! D97   D(36,38,40,45)       -119.1004                                         !
 ! D98   D(36,38,40,46)         62.1569                                         !
 ! D99   D(39,38,40,45)        124.7125                                         !
 ! D100  D(39,38,40,46)        -54.0302                                         !
 ! D101  D(41,38,40,45)          4.3796                                         !
 ! D102  D(41,38,40,46)       -174.363                                          !
 ! D103  D(36,38,41,42)       -179.5144                                         !
 ! D104  D(36,38,41,43)        -59.2563                                         !
 ! D105  D(36,38,41,44)         62.703                                          !
 ! D106  D(39,38,41,42)        -61.7228                                         !
 ! D107  D(39,38,41,43)         58.5353                                         !
 ! D108  D(39,38,41,44)       -179.5053                                         !
 ! D109  D(40,38,41,42)         56.5786                                         !
 ! D110  D(40,38,41,43)        176.8367                                         !
 ! D111  D(40,38,41,44)        -61.204                                          !
 ! D112  D(38,40,46,47)          7.5931                                         !
 ! D113  D(38,40,46,48)        170.8718                                         !
 ! D114  D(45,40,46,47)       -171.1374                                         !
 ! D115  D(45,40,46,48)         -7.8586                                         !
 ! D116  D(40,46,48,49)         36.9021                                         !
 ! D117  D(40,46,48,50)        -81.3724                                         !
 ! D118  D(40,46,48,51)        157.1471                                         !
 ! D119  D(47,46,48,49)       -159.7592                                         !
 ! D120  D(47,46,48,50)         81.9663                                         !
 ! D121  D(47,46,48,51)        -39.5142                                         !
 ! D122  D(46,48,50,53)       -106.662                                          !
 ! D123  D(46,48,50,60)         69.3887                                         !
 ! D124  D(49,48,50,53)        136.2529                                         !
 ! D125  D(49,48,50,60)        -47.6963                                         !
 ! D126  D(51,48,50,53)         14.7209                                         !
 ! D127  D(51,48,50,60)       -169.2283                                         !
 ! D128  D(46,48,51,52)        179.5372                                         !
 ! D129  D(46,48,51,54)        -59.1654                                         !
 ! D130  D(46,48,51,58)         60.9262                                         !
 ! D131  D(49,48,51,52)        -61.4302                                         !
 ! D132  D(49,48,51,54)         59.8672                                         !
 ! D133  D(49,48,51,58)        179.9588                                         !
 ! D134  D(50,48,51,52)         59.9943                                         !
 ! D135  D(50,48,51,54)       -178.7083                                         !
 ! D136  D(50,48,51,58)        -58.6168                                         !
 ! D137  D(48,50,60,61)          1.1805                                         !
 ! D138  D(48,50,60,62)       -156.8                                            !
 ! D139  D(53,50,60,61)        177.1437                                         !
 ! D140  D(53,50,60,62)         19.1631                                         !
 ! D141  D(48,51,54,55)        -62.3784                                         !
 ! D142  D(48,51,54,56)        177.6776                                         !
 ! D143  D(48,51,54,57)         57.3319                                         !
 ! D144  D(52,51,54,55)         57.6211                                         !
 ! D145  D(52,51,54,56)        -62.3229                                         !
 ! D146  D(52,51,54,57)        177.3314                                         !
 ! D147  D(58,51,54,55)        176.8574                                         !
 ! D148  D(58,51,54,56)         56.9134                                         !
 ! D149  D(58,51,54,57)        -63.4323                                         !
 ! D150  D(48,51,58,59)         55.4971                                         !
 ! D151  D(52,51,58,59)        -61.8634                                         !
 ! D152  D(54,51,58,59)        178.7143                                         !
 ! D153  D(50,60,62,63)         27.6704                                         !
 ! D154  D(50,60,62,64)        -90.6681                                         !
 ! D155  D(50,60,62,65)        144.228                                          !
 ! D156  D(61,60,62,63)       -130.2007                                         !
 ! D157  D(61,60,62,64)        111.4607                                         !
 ! D158  D(61,60,62,65)        -13.6432                                         !
 ! D159  D(60,62,64,68)       -136.7894                                         !
 ! D160  D(60,62,64,71)         46.4914                                         !
 ! D161  D(63,62,64,68)        104.1976                                         !
 ! D162  D(63,62,64,71)        -72.5217                                         !
 ! D163  D(65,62,64,68)        -12.9002                                         !
 ! D164  D(65,62,64,71)        170.3805                                         !
 ! D165  D(60,62,65,66)        175.69                                           !
 ! D166  D(60,62,65,67)         57.8942                                         !
 ! D167  D(60,62,65,69)        -63.2758                                         !
 ! D168  D(63,62,65,66)        -67.6109                                         !
 ! D169  D(63,62,65,67)        174.5933                                         !
 ! D170  D(63,62,65,69)         53.4232                                         !
 ! D171  D(64,62,65,66)         48.8971                                         !
 ! D172  D(64,62,65,67)        -68.8987                                         !
 ! D173  D(64,62,65,69)        169.9312                                         !
 ! D174  D(62,64,71,72)         13.416                                          !
 ! D175  D(62,64,71,73)        168.1734                                         !
 ! D176  D(68,64,71,72)       -163.2086                                         !
 ! D177  D(68,64,71,73)         -8.4512                                         !
 ! D178  D(62,65,69,70)       -173.1853                                         !
 ! D179  D(66,65,69,70)        -54.4949                                         !
 ! D180  D(67,65,69,70)         65.8897                                         !
 ! D181  D(64,71,73,74)         39.082                                          !
 ! D182  D(64,71,73,75)        158.3884                                         !
 ! D183  D(64,71,73,76)        -83.5239                                         !
 ! D184  D(72,71,73,74)       -166.1893                                         !
 ! D185  D(72,71,73,75)        -46.8829                                         !
 ! D186  D(72,71,73,76)         71.2048                                         !
 ! D187  D(71,73,76,77)        -95.6103                                         !
 ! D188  D(71,73,76,78)         79.4777                                         !
 ! D189  D(74,73,76,77)        144.2761                                         !
 ! D190  D(74,73,76,78)        -40.6359                                         !
 ! D191  D(75,73,76,77)         23.0586                                         !
 ! D192  D(75,73,76,78)       -161.8535                                         !
 ! D193  D(73,76,78,79)          0.7765                                         !
 ! D194  D(73,76,78,80)       -167.7793                                         !
 ! D195  D(77,76,78,79)        175.7037                                         !
 ! D196  D(77,76,78,80)          7.1479                                         !
 ! D197  D(76,78,80,81)         10.8599                                         !
 ! D198  D(76,78,80,82)       -104.3224                                         !
 ! D199  D(76,78,80,83)        129.4921                                         !
 ! D200  D(79,78,80,81)       -157.5592                                         !
 ! D201  D(79,78,80,82)         87.2586                                         !
 ! D202  D(79,78,80,83)        -38.9269                                         !
 ! D203  D(78,80,82,86)       -172.6381                                         !
 ! D204  D(78,80,82,99)          7.8337                                         !
 ! D205  D(81,80,82,86)         71.9683                                         !
 ! D206  D(81,80,82,99)       -107.56                                           !
 ! D207  D(83,80,82,86)        -45.053                                          !
 ! D208  D(83,80,82,99)        135.4188                                         !
 ! D209  D(78,80,83,84)         75.3363                                         !
 ! D210  D(78,80,83,85)       -170.003                                          !
 ! D211  D(78,80,83,87)        -47.0968                                         !
 ! D212  D(81,80,83,84)       -167.9582                                         !
 ! D213  D(81,80,83,85)        -53.2976                                         !
 ! D214  D(81,80,83,87)         69.6087                                         !
 ! D215  D(82,80,83,84)        -53.2254                                         !
 ! D216  D(82,80,83,85)         61.4353                                         !
 ! D217  D(82,80,83,87)       -175.6584                                         !
 ! D218  D(80,82,99,100)       178.2572                                         !
 ! D219  D(86,82,99,100)        -1.2686                                         !
 ! D220  D(80,83,87,88)        -41.5167                                         !
 ! D221  D(80,83,87,89)         74.3416                                         !
 ! D222  D(80,83,87,90)       -164.3791                                         !
 ! D223  D(84,83,87,88)       -164.1021                                         !
 ! D224  D(84,83,87,89)        -48.2439                                         !
 ! D225  D(84,83,87,90)         73.0355                                         !
 ! D226  D(85,83,87,88)         78.9907                                         !
 ! D227  D(85,83,87,89)       -165.151                                          !
 ! D228  D(85,83,87,90)        -43.8717                                         !
 ! D229  D(83,87,90,91)         72.916                                          !
 ! D230  D(83,87,90,92)        -43.1116                                         !
 ! D231  D(83,87,90,93)       -163.9922                                         !
 ! D232  D(88,87,90,91)        -50.3816                                         !
 ! D233  D(88,87,90,92)       -166.4093                                         !
 ! D234  D(88,87,90,93)         72.7101                                         !
 ! D235  D(89,87,90,91)       -165.8785                                         !
 ! D236  D(89,87,90,92)         78.0939                                         !
 ! D237  D(89,87,90,93)        -42.7867                                         !
 ! D238  D(87,90,93,94)         65.0802                                         !
 ! D239  D(87,90,93,95)       -179.1011                                         !
 ! D240  D(87,90,93,96)        -52.6697                                         !
 ! D241  D(91,90,93,94)       -172.0206                                         !
 ! D242  D(91,90,93,95)        -56.2019                                         !
 ! D243  D(91,90,93,96)         70.2296                                         !
 ! D244  D(92,90,93,94)        -57.0205                                         !
 ! D245  D(92,90,93,95)         58.7981                                         !
 ! D246  D(92,90,93,96)       -174.7704                                         !
 ! D247  D(90,93,96,97)        -70.0572                                         !
 ! D248  D(90,93,96,98)        171.9039                                         !
 ! D249  D(94,93,96,97)        170.8768                                         !
 ! D250  D(94,93,96,98)         52.8379                                         !
 ! D251  D(95,93,96,97)         54.0387                                         !
 ! D252  D(95,93,96,98)        -64.0002                                         !
 --------------------------------------------------------------------------------
 Symmetry turned off by external request.
 Stoichiometry    C28H52N9O11(1+)
 Framework group  C1[X(C28H52N9O11)]
 Deg. of freedom   294
 Full point group                 C1      NOp   1
                          Input orientation:                          
 ---------------------------------------------------------------------
 Center     Atomic      Atomic             Coordinates (Angstroms)
 Number     Number       Type             X           Y           Z
 ---------------------------------------------------------------------
      1          7           0       -5.353756   -1.985689    2.698347
      2          1           0       -5.844470   -1.909089    3.593024
      3          1           0       -5.125256   -3.011424    2.467609
      4          1           0       -5.930600   -1.515579    1.981028
      5          6           0       -4.020792   -1.285255    2.705430
      6          1           0       -3.571841   -1.436587    3.691401
      7          6           0       -4.300734    0.192899    2.392297
      8          6           0       -3.141646   -1.900636    1.599335
      9          1           0       -3.623969   -1.722511    0.629515
     10          1           0       -2.179511   -1.387698    1.553230
     11          8           0       -5.312670    0.470893    1.754709
     12          6           0       -2.992662   -3.411695    1.792180
     13          7           0       -1.786171   -3.929592    1.570651
     14          1           0       -1.679971   -4.935014    1.634735
     15          1           0       -0.991825   -3.338869    1.294254
     16          8           0       -3.982038   -4.093614    2.134408
     17          7           0       -3.375825    1.072753    2.828082
     18          1           0       -2.553374    0.695550    3.284636
     19          6           0       -3.224974    2.391726    2.200404
     20          1           0       -4.130952    2.525898    1.601638
     21          6           0       -2.072695    2.207400    1.174331
     22          6           0       -3.126179    3.549973    3.224105
     23          1           0       -2.099729    3.570924    3.623231
     24          8           0       -2.067929    1.188915    0.472482
     25          6           0       -4.057363    3.334954    4.441033
     26          1           0       -3.887915    4.169916    5.132193
     27          1           0       -3.739498    2.431390    4.974811
     28          6           0       -3.422753    4.899655    2.540078
     29          1           0       -4.447652    4.923221    2.156484
     30          1           0       -3.315009    5.718899    3.257692
     31          1           0       -2.765442    5.111814    1.691006
     32          6           0       -5.555483    3.234245    4.123975
     33          1           0       -6.119591    3.041232    5.042501
     34          1           0       -5.946026    4.163415    3.697209
     35          1           0       -5.777617    2.425295    3.419556
     36          7           0       -1.102984    3.141388    1.104807
     37          1           0       -1.106142    3.919698    1.748063
     38          6           0       -0.002055    3.087479    0.131430
     39          1           0       -0.412954    2.650523   -0.785450
     40          6           0        1.124877    2.147331    0.611874
     41          6           0        0.536035    4.485374   -0.144007
     42          1           0        1.343989    4.414892   -0.874412
     43          1           0       -0.255756    5.130152   -0.536948
     44          1           0        0.958092    4.931334    0.762227
     45          8           0        2.269775    2.546624    0.813558
     46          7           0        0.754250    0.848046    0.765485
     47          1           0       -0.172693    0.565279    0.450438
     48          6           0        1.743167   -0.193893    1.020655
     49          1           0        2.514095    0.228186    1.673268
     50          6           0        2.368720   -0.588877   -0.334779
     51          6           0        1.091938   -1.409413    1.700260
     52          1           0        1.878765   -2.159783    1.858792
     53          8           0        2.089363   -1.671184   -0.885060
     54          6           0        0.432107   -1.067739    3.027530
     55          1           0        1.170786   -0.702586    3.747473
     56          1           0       -0.049129   -1.957821    3.445473
     57          1           0       -0.321401   -0.284916    2.882769
     58          8           0        0.082497   -1.949863    0.830575
     59          1           0        0.567492   -2.129110   -0.012821
     60          7           0        3.151662    0.341015   -0.897801
     61          1           0        3.278175    1.208101   -0.378992
     62          6           0        3.420029    0.375975   -2.341029
     63          1           0        2.558388   -0.078748   -2.855792
     64          6           0        4.662384   -0.423183   -2.770743
     65          6           0        3.513434    1.827013   -2.792541
     66          1           0        3.789415    1.838957   -3.850339
     67          1           0        4.300787    2.354851   -2.234300
     68          8           0        5.463530    0.030524   -3.590060
     69          8           0        2.230132    2.432624   -2.566291
     70          1           0        2.259910    3.320452   -2.953435
     71          7           0        4.752775   -1.665468   -2.234283
     72          1           0        3.921084   -2.037631   -1.782066
     73          6           0        5.727863   -2.629519   -2.741690
     74          1           0        6.653207   -2.093758   -2.965677
     75          1           0        5.915811   -3.383644   -1.976433
     76          6           0        5.147989   -3.334650   -3.977107
     77          8           0        4.583965   -4.418260   -3.886560
     78          7           0        5.226859   -2.605091   -5.126031
     79          1           0        5.658440   -1.689113   -5.082481
     80          6           0        4.504346   -2.994978   -6.320578
     81          1           0        3.815041   -3.786506   -6.003121
     82          6           0        5.375821   -3.631558   -7.403438
     83          6           0        3.686487   -1.833344   -6.922709
     84          1           0        4.358679   -1.132944   -7.437502
     85          1           0        3.043443   -2.260317   -7.699297
     86          8           0        4.962279   -3.896269   -8.510841
     87          6           0        2.865753   -1.076442   -5.871375
     88          1           0        2.407315   -1.780512   -5.166817
     89          1           0        3.540665   -0.451505   -5.275177
     90          6           0        1.778404   -0.189957   -6.491557
     91          1           0        0.963571   -0.821445   -6.874767
     92          1           0        2.180316    0.344821   -7.363397
     93          6           0        1.216490    0.852077   -5.518802
     94          1           0        2.012496    1.560193   -5.257707
     95          1           0        0.432027    1.438252   -6.028838
     96          7           0        0.763977    0.241924   -4.259086
     97          1           0       -0.075818   -0.312440   -4.421497
     98          1           0        0.525969    0.977011   -3.596253
     99          8           0        6.641483   -3.877939   -7.004305
    100          1           0        7.084338   -4.304433   -7.762772
 ---------------------------------------------------------------------
 Rotational constants (GHZ):           0.1020718           0.0279120           0.0252918
 Standard basis: 6-31G(d) (6D, 7F)
   824 basis functions,  1552 primitive gaussians,   824 cartesian basis functions
   185 alpha electrons      185 beta electrons
       nuclear repulsion energy      6854.4097200600 Hartrees.
 NAtoms=  100 NActive=  100 NUniq=  100 SFac= 1.00D+00 NAtFMM=   60 NAOKFM=T Big=T
 Integral buffers will be    131072 words long.
 Raffenetti 2 integral format.
 Two-electron integral symmetry is turned off.
 Nuclear repulsion after empirical dispersion term =     6854.2644589004 Hartrees.
 One-electron integrals computed using PRISM.
 NBasis=   824 RedAO= T EigKep=  1.61D-03  NBF=   824
 NBsUse=   824 1.00D-06 EigRej= -1.00D+00 NBFU=   824
 Initial guess from the checkpoint file:  "conf-110.chk"
 B after Tr=     0.000000    0.000000    0.000000
         Rot=    1.000000    0.000000    0.000000    0.000000 Ang=   0.00 deg.
 Requested convergence on RMS density matrix=1.00D-08 within 128 cycles.
 Requested convergence on MAX density matrix=1.00D-06.
 Requested convergence on             energy=1.00D-06.
 No special actions if energy rises.
 SCF Done:  E(RB3LYP) =  -2418.59711232     A.U. after    3 cycles
            NFock=  3  Conv=0.99D-09     -V/T= 2.0093

 **********************************************************************

            Population analysis using the SCF Density.

 **********************************************************************

 Alpha  occ. eigenvalues --  -19.26467 -19.26308 -19.25521 -19.24216 -19.23974
 Alpha  occ. eigenvalues --  -19.23917 -19.22956 -19.22228 -19.18953 -19.17930
 Alpha  occ. eigenvalues --  -19.16188 -14.57451 -14.50343 -14.48713 -14.47576
 Alpha  occ. eigenvalues --  -14.46103 -14.45546 -14.42725 -14.40594 -14.37939
 Alpha  occ. eigenvalues --  -10.43594 -10.42712 -10.41217 -10.40707 -10.39185
 Alpha  occ. eigenvalues --  -10.39138 -10.36131 -10.35969 -10.35647 -10.35523
 Alpha  occ. eigenvalues --  -10.34287 -10.34121 -10.33946 -10.33503 -10.31706
 Alpha  occ. eigenvalues --  -10.31156 -10.30790 -10.29474 -10.28445 -10.28406
 Alpha  occ. eigenvalues --  -10.28295 -10.28216 -10.27893 -10.26868 -10.26550
 Alpha  occ. eigenvalues --  -10.23781 -10.23631 -10.23073  -1.18880  -1.17006
 Alpha  occ. eigenvalues --   -1.15929  -1.15202  -1.14770  -1.13838  -1.12670
 Alpha  occ. eigenvalues --   -1.12130  -1.11026  -1.10493  -1.08057  -1.06806
 Alpha  occ. eigenvalues --   -1.05652  -1.04701  -1.03180  -1.03060  -1.01728
 Alpha  occ. eigenvalues --   -0.98914  -0.97313  -0.94338  -0.93918  -0.91903
 Alpha  occ. eigenvalues --   -0.89377  -0.87517  -0.85719  -0.84939  -0.84828
 Alpha  occ. eigenvalues --   -0.82562  -0.81821  -0.81142  -0.80371  -0.78246
 Alpha  occ. eigenvalues --   -0.75671  -0.74640  -0.74555  -0.73682  -0.72914
 Alpha  occ. eigenvalues --   -0.72637  -0.72342  -0.71722  -0.70402  -0.69976
 Alpha  occ. eigenvalues --   -0.69265  -0.68405  -0.68073  -0.67318  -0.66097
 Alpha  occ. eigenvalues --   -0.65698  -0.65574  -0.64438  -0.64109  -0.63710
 Alpha  occ. eigenvalues --   -0.63213  -0.63132  -0.62517  -0.62200  -0.61569
 Alpha  occ. eigenvalues --   -0.61214  -0.60302  -0.59473  -0.58859  -0.58699
 Alpha  occ. eigenvalues --   -0.57548  -0.57370  -0.57273  -0.56528  -0.56117
 Alpha  occ. eigenvalues --   -0.55921  -0.55748  -0.55403  -0.54304  -0.53883
 Alpha  occ. eigenvalues --   -0.53693  -0.53379  -0.53255  -0.53090  -0.52903
 Alpha  occ. eigenvalues --   -0.52442  -0.52281  -0.51990  -0.51668  -0.51538
 Alpha  occ. eigenvalues --   -0.51398  -0.51264  -0.50261  -0.50066  -0.49910
 Alpha  occ. eigenvalues --   -0.49871  -0.49714  -0.49185  -0.48979  -0.48947
 Alpha  occ. eigenvalues --   -0.48797  -0.48464  -0.48318  -0.48171  -0.47944
 Alpha  occ. eigenvalues --   -0.47461  -0.47120  -0.46977  -0.46684  -0.46199
 Alpha  occ. eigenvalues --   -0.45957  -0.45145  -0.45110  -0.44663  -0.44277
 Alpha  occ. eigenvalues --   -0.44212  -0.43345  -0.43268  -0.42881  -0.42645
 Alpha  occ. eigenvalues --   -0.42130  -0.41662  -0.40890  -0.40475  -0.40143
 Alpha  occ. eigenvalues --   -0.39927  -0.39607  -0.39458  -0.38986  -0.38889
 Alpha  occ. eigenvalues --   -0.38453  -0.38313  -0.37757  -0.37381  -0.37099
 Alpha  occ. eigenvalues --   -0.36141  -0.35729  -0.35139  -0.34643  -0.33784
 Alpha  occ. eigenvalues --   -0.33184  -0.32033  -0.29966  -0.29234  -0.29143
 Alpha virt. eigenvalues --   -0.13278  -0.10821  -0.10360  -0.09827  -0.08713
 Alpha virt. eigenvalues --   -0.07361  -0.07050  -0.05734  -0.03605  -0.03205
 Alpha virt. eigenvalues --   -0.03094  -0.02786  -0.02216  -0.01984  -0.00680
 Alpha virt. eigenvalues --    0.00380   0.00653   0.00828   0.01384   0.01793
 Alpha virt. eigenvalues --    0.01930   0.02092   0.02488   0.02980   0.03271
 Alpha virt. eigenvalues --    0.03504   0.03819   0.03945   0.04198   0.04648
 Alpha virt. eigenvalues --    0.04862   0.05069   0.05610   0.05837   0.06058
 Alpha virt. eigenvalues --    0.06169   0.06209   0.06602   0.06628   0.07190
 Alpha virt. eigenvalues --    0.07549   0.07780   0.07840   0.08219   0.08441
 Alpha virt. eigenvalues --    0.08508   0.08893   0.09032   0.09384   0.09668
 Alpha virt. eigenvalues --    0.09703   0.10251   0.10405   0.10523   0.10886
 Alpha virt. eigenvalues --    0.11034   0.11193   0.11593   0.11712   0.11803
 Alpha virt. eigenvalues --    0.12157   0.12481   0.12736   0.12841   0.12995
 Alpha virt. eigenvalues --    0.13602   0.13787   0.13995   0.14220   0.14313
 Alpha virt. eigenvalues --    0.14837   0.15420   0.15598   0.15682   0.15837
 Alpha virt. eigenvalues --    0.16397   0.16863   0.17030   0.17239   0.17790
 Alpha virt. eigenvalues --    0.18051   0.18970   0.19095   0.19278   0.19439
 Alpha virt. eigenvalues --    0.20309   0.21000   0.21717   0.21938   0.22739
 Alpha virt. eigenvalues --    0.23080   0.23651   0.24941   0.25705   0.26134
 Alpha virt. eigenvalues --    0.27462   0.27952   0.28272   0.28488   0.28878
 Alpha virt. eigenvalues --    0.29300   0.30963   0.31950   0.33079   0.33682
 Alpha virt. eigenvalues --    0.34812   0.35681   0.36894   0.37726   0.37969
 Alpha virt. eigenvalues --    0.38808   0.38964   0.39830   0.40412   0.40750
 Alpha virt. eigenvalues --    0.41307   0.41743   0.42150   0.42975   0.43304
 Alpha virt. eigenvalues --    0.44294   0.44507   0.44899   0.45276   0.45629
 Alpha virt. eigenvalues --    0.45748   0.46026   0.46319   0.46834   0.47256
 Alpha virt. eigenvalues --    0.47779   0.48269   0.48718   0.48942   0.49254
 Alpha virt. eigenvalues --    0.49292   0.49840   0.50088   0.50168   0.50671
 Alpha virt. eigenvalues --    0.51127   0.51490   0.51673   0.52286   0.52725
 Alpha virt. eigenvalues --    0.52803   0.53082   0.53435   0.54013   0.54174
 Alpha virt. eigenvalues --    0.54537   0.54818   0.55149   0.55791   0.55895
 Alpha virt. eigenvalues --    0.56618   0.56947   0.57123   0.57407   0.58133
 Alpha virt. eigenvalues --    0.58345   0.58632   0.58805   0.59594   0.59903
 Alpha virt. eigenvalues --    0.60093   0.60303   0.61200   0.61547   0.61816
 Alpha virt. eigenvalues --    0.62525   0.62802   0.63250   0.63452   0.64101
 Alpha virt. eigenvalues --    0.64437   0.64592   0.65085   0.65399   0.65670
 Alpha virt. eigenvalues --    0.66229   0.66426   0.66891   0.67319   0.67665
 Alpha virt. eigenvalues --    0.67764   0.68227   0.68887   0.69300   0.69923
 Alpha virt. eigenvalues --    0.70071   0.70817   0.70994   0.71202   0.71968
 Alpha virt. eigenvalues --    0.72424   0.72555   0.73036   0.73411   0.73564
 Alpha virt. eigenvalues --    0.73918   0.74025   0.74284   0.74464   0.74982
 Alpha virt. eigenvalues --    0.75271   0.75875   0.76181   0.76440   0.76508
 Alpha virt. eigenvalues --    0.77146   0.77389   0.77442   0.77572   0.78049
 Alpha virt. eigenvalues --    0.78112   0.78248   0.78937   0.79116   0.79406
 Alpha virt. eigenvalues --    0.79946   0.80034   0.80441   0.80576   0.80915
 Alpha virt. eigenvalues --    0.81554   0.81928   0.82339   0.82778   0.83073
 Alpha virt. eigenvalues --    0.83194   0.83464   0.84012   0.84231   0.84516
 Alpha virt. eigenvalues --    0.84747   0.85283   0.85390   0.85575   0.85813
 Alpha virt. eigenvalues --    0.86210   0.86419   0.86826   0.87065   0.87265
 Alpha virt. eigenvalues --    0.87778   0.87924   0.88246   0.88458   0.88879
 Alpha virt. eigenvalues --    0.89173   0.89337   0.90082   0.90433   0.90646
 Alpha virt. eigenvalues --    0.90784   0.91421   0.91589   0.91712   0.92493
 Alpha virt. eigenvalues --    0.92842   0.93027   0.93413   0.93665   0.93905
 Alpha virt. eigenvalues --    0.94581   0.95014   0.95797   0.96301   0.97297
 Alpha virt. eigenvalues --    0.98089   0.98447   0.98935   0.99441   0.99870
 Alpha virt. eigenvalues --    1.00908   1.01427   1.01824   1.01997   1.02468
 Alpha virt. eigenvalues --    1.02956   1.03485   1.03655   1.04798   1.05438
 Alpha virt. eigenvalues --    1.05860   1.06420   1.07527   1.08285   1.08340
 Alpha virt. eigenvalues --    1.08776   1.09300   1.09956   1.10189   1.11380
 Alpha virt. eigenvalues --    1.12561   1.12656   1.14229   1.14681   1.14909
 Alpha virt. eigenvalues --    1.15861   1.16205   1.17018   1.18011   1.18500
 Alpha virt. eigenvalues --    1.18971   1.19717   1.20053   1.20517   1.21078
 Alpha virt. eigenvalues --    1.21344   1.22359   1.22797   1.23314   1.24236
 Alpha virt. eigenvalues --    1.24653   1.24949   1.25405   1.26456   1.26813
 Alpha virt. eigenvalues --    1.27876   1.27987   1.28585   1.29769   1.30272
 Alpha virt. eigenvalues --    1.31273   1.31454   1.31771   1.32801   1.33846
 Alpha virt. eigenvalues --    1.34810   1.35189   1.35507   1.36048   1.36264
 Alpha virt. eigenvalues --    1.37775   1.38534   1.39229   1.39945   1.40193
 Alpha virt. eigenvalues --    1.40671   1.41138   1.42067   1.42569   1.43664
 Alpha virt. eigenvalues --    1.44080   1.44704   1.45922   1.46441   1.47552
 Alpha virt. eigenvalues --    1.49159   1.49607   1.50635   1.50994   1.51552
 Alpha virt. eigenvalues --    1.51938   1.52605   1.53063   1.54128   1.54620
 Alpha virt. eigenvalues --    1.55088   1.55850   1.56532   1.56677   1.56941
 Alpha virt. eigenvalues --    1.57466   1.58099   1.59004   1.59296   1.59727
 Alpha virt. eigenvalues --    1.60537   1.60845   1.61701   1.62138   1.62504
 Alpha virt. eigenvalues --    1.63347   1.64414   1.64562   1.64985   1.66034
 Alpha virt. eigenvalues --    1.66469   1.67026   1.67337   1.67400   1.68014
 Alpha virt. eigenvalues --    1.68224   1.68734   1.69556   1.69842   1.70560
 Alpha virt. eigenvalues --    1.70658   1.71421   1.71964   1.72260   1.72733
 Alpha virt. eigenvalues --    1.73014   1.73473   1.73741   1.74128   1.74650
 Alpha virt. eigenvalues --    1.74960   1.75072   1.75534   1.75963   1.76469
 Alpha virt. eigenvalues --    1.77289   1.77765   1.78101   1.79551   1.79718
 Alpha virt. eigenvalues --    1.79896   1.80487   1.80706   1.81635   1.81996
 Alpha virt. eigenvalues --    1.82024   1.82183   1.83303   1.83405   1.83806
 Alpha virt. eigenvalues --    1.84199   1.84637   1.85414   1.85766   1.85900
 Alpha virt. eigenvalues --    1.86593   1.86647   1.87025   1.87637   1.88057
 Alpha virt. eigenvalues --    1.88247   1.88377   1.89024   1.89855   1.90316
 Alpha virt. eigenvalues --    1.90425   1.90810   1.91356   1.91495   1.91718
 Alpha virt. eigenvalues --    1.92198   1.93061   1.93290   1.93569   1.94007
 Alpha virt. eigenvalues --    1.94711   1.95232   1.95560   1.95827   1.96643
 Alpha virt. eigenvalues --    1.96963   1.97253   1.97845   1.97956   1.98612
 Alpha virt. eigenvalues --    1.99665   1.99820   2.00252   2.00765   2.00968
 Alpha virt. eigenvalues --    2.01403   2.02656   2.03616   2.03717   2.03869
 Alpha virt. eigenvalues --    2.04489   2.04847   2.05043   2.05724   2.06468
 Alpha virt. eigenvalues --    2.06823   2.07918   2.09353   2.10388   2.11121
 Alpha virt. eigenvalues --    2.11212   2.12433   2.13535   2.14322   2.14739
 Alpha virt. eigenvalues --    2.16000   2.17470   2.18263   2.18401   2.19398
 Alpha virt. eigenvalues --    2.19698   2.20200   2.20458   2.21116   2.21567
 Alpha virt. eigenvalues --    2.21906   2.22738   2.22779   2.24233   2.24574
 Alpha virt. eigenvalues --    2.25023   2.25809   2.26593   2.27142   2.27382
 Alpha virt. eigenvalues --    2.28440   2.29191   2.29355   2.30456   2.30889
 Alpha virt. eigenvalues --    2.31020   2.31317   2.32711   2.32906   2.33403
 Alpha virt. eigenvalues --    2.34204   2.34678   2.35716   2.36122   2.36321
 Alpha virt. eigenvalues --    2.37261   2.37630   2.38447   2.38682   2.38804
 Alpha virt. eigenvalues --    2.39419   2.40440   2.41621   2.42390   2.43024
 Alpha virt. eigenvalues --    2.43500   2.44300   2.45748   2.45947   2.47279
 Alpha virt. eigenvalues --    2.47417   2.47676   2.48624   2.49959   2.51252
 Alpha virt. eigenvalues --    2.51506   2.52181   2.52520   2.53494   2.53821
 Alpha virt. eigenvalues --    2.54803   2.55194   2.55876   2.56923   2.58098
 Alpha virt. eigenvalues --    2.58724   2.59097   2.59582   2.59895   2.60987
 Alpha virt. eigenvalues --    2.61759   2.62282   2.63494   2.64231   2.64963
 Alpha virt. eigenvalues --    2.65736   2.68030   2.68335   2.68763   2.69827
 Alpha virt. eigenvalues --    2.70635   2.70935   2.73749   2.74190   2.74880
 Alpha virt. eigenvalues --    2.77271   2.77780   2.79757   2.80518   2.81431
 Alpha virt. eigenvalues --    2.83424   2.84505   2.86259   2.88160   2.89367
 Alpha virt. eigenvalues --    2.89751   2.90408   2.93223   2.93316   2.94145
 Alpha virt. eigenvalues --    2.94513   2.96430   2.96988   2.97845   3.00794
 Alpha virt. eigenvalues --    3.04795   3.06707   3.07499   3.07747   3.08296
 Alpha virt. eigenvalues --    3.10748   3.68961   3.72317   3.76605   3.77246
 Alpha virt. eigenvalues --    3.79858   3.84989   3.89251   3.92042   3.94774
 Alpha virt. eigenvalues --    3.97808   3.98859   4.00340   4.02418   4.03351
 Alpha virt. eigenvalues --    4.03863   4.05603   4.08300   4.09428   4.10600
 Alpha virt. eigenvalues --    4.11314   4.12711   4.14122   4.16974   4.18311
 Alpha virt. eigenvalues --    4.18584   4.21457   4.22297   4.23108   4.24970
 Alpha virt. eigenvalues --    4.29244   4.31155   4.31379   4.35046   4.36388
 Alpha virt. eigenvalues --    4.37247   4.39379   4.41691   4.45329   4.47048
 Alpha virt. eigenvalues --    4.47972   4.49432   4.50061   4.52001   4.52038
 Alpha virt. eigenvalues --    4.56720   4.61198   4.62050   4.62798
          Condensed to atoms (all electrons):
 Mulliken charges:
               1
     1  N   -0.751007
     2  H    0.404962
     3  H    0.447790
     4  H    0.413086
     5  C   -0.143861
     6  H    0.203920
     7  C    0.670130
     8  C   -0.403704
     9  H    0.224500
    10  H    0.234189
    11  O   -0.516560
    12  C    0.635888
    13  N   -0.762423
    14  H    0.366556
    15  H    0.417698
    16  O   -0.559860
    17  N   -0.591283
    18  H    0.347700
    19  C   -0.067601
    20  H    0.225964
    21  C    0.620428
    22  C   -0.128892
    23  H    0.127636
    24  O   -0.547347
    25  C   -0.247247
    26  H    0.158153
    27  H    0.127237
    28  C   -0.474416
    29  H    0.174792
    30  H    0.176977
    31  H    0.145991
    32  C   -0.476884
    33  H    0.161376
    34  H    0.165021
    35  H    0.160778
    36  N   -0.602417
    37  H    0.356638
    38  C   -0.065169
    39  H    0.199403
    40  C    0.644129
    41  C   -0.470603
    42  H    0.182759
    43  H    0.163685
    44  H    0.173314
    45  O   -0.531550
    46  N   -0.625313
    47  H    0.382404
    48  C   -0.085370
    49  H    0.197423
    50  C    0.645090
    51  C    0.120586
    52  H    0.163274
    53  O   -0.577377
    54  C   -0.474236
    55  H    0.178991
    56  H    0.159613
    57  H    0.135568
    58  O   -0.678442
    59  H    0.445024
    60  N   -0.595716
    61  H    0.386387
    62  C   -0.121236
    63  H    0.262443
    64  C    0.641671
    65  C   -0.074768
    66  H    0.183005
    67  H    0.155845
    68  O   -0.547843
    69  O   -0.638707
    70  H    0.409805
    71  N   -0.600373
    72  H    0.374784
    73  C   -0.235256
    74  H    0.192270
    75  H    0.181803
    76  C    0.592110
    77  O   -0.509657
    78  N   -0.590072
    79  H    0.356332
    80  C   -0.058581
    81  H    0.210107
    82  C    0.594446
    83  C   -0.287854
    84  H    0.144060
    85  H    0.174353
    86  O   -0.462935
    87  C   -0.260122
    88  H    0.150039
    89  H    0.140382
    90  C   -0.264834
    91  H    0.136054
    92  H    0.142305
    93  C   -0.148003
    94  H    0.132291
    95  H    0.122844
    96  N   -0.726038
    97  H    0.297730
    98  H    0.307990
    99  O   -0.558740
   100  H    0.414567
 Sum of Mulliken charges =   1.00000
 Mulliken charges with hydrogens summed into heavy atoms:
               1
     1  N    0.514831
     5  C    0.060059
     7  C    0.670130
     8  C    0.054986
    11  O   -0.516560
    12  C    0.635888
    13  N    0.021831
    16  O   -0.559860
    17  N   -0.243583
    19  C    0.158363
    21  C    0.620428
    22  C   -0.001256
    24  O   -0.547347
    25  C    0.038144
    28  C    0.023343
    32  C    0.010292
    36  N   -0.245779
    38  C    0.134234
    40  C    0.644129
    41  C    0.049154
    45  O   -0.531550
    46  N   -0.242909
    48  C    0.112053
    50  C    0.645090
    51  C    0.283860
    53  O   -0.577377
    54  C   -0.000065
    58  O   -0.233418
    60  N   -0.209329
    62  C    0.141207
    64  C    0.641671
    65  C    0.264081
    68  O   -0.547843
    69  O   -0.228902
    71  N   -0.225589
    73  C    0.138817
    76  C    0.592110
    77  O   -0.509657
    78  N   -0.233741
    80  C    0.151526
    82  C    0.594446
    83  C    0.030559
    86  O   -0.462935
    87  C    0.030300
    90  C    0.013525
    93  C    0.107132
    96  N   -0.120318
    99  O   -0.144172
 Electronic spatial extent (au):  <R**2>=          43988.8928
 Charge=              1.0000 electrons
 Dipole moment (field-independent basis, Debye):
    X=            -12.2018    Y=              3.9019    Z=             12.2800  Tot=             17.7457
 Quadrupole moment (field-independent basis, Debye-Ang):
   XX=           -210.3282   YY=           -250.2335   ZZ=           -241.9691
   XY=             13.7429   XZ=            -46.5436   YZ=            -26.2976
 Traceless Quadrupole moment (field-independent basis, Debye-Ang):
   XX=             23.8488   YY=            -16.0566   ZZ=             -7.7922
   XY=             13.7429   XZ=            -46.5436   YZ=            -26.2976
 Octapole moment (field-independent basis, Debye-Ang**2):
  XXX=           -735.6559  YYY=            332.1588  ZZZ=           1009.0363  XYY=           -282.7455
  XXY=            -83.0073  XXZ=            398.3058  XZZ=           -325.0011  YZZ=            164.6978
  YYZ=            378.6057  XYZ=            -22.8716
 Hexadecapole moment (field-independent basis, Debye-Ang**3):
 XXXX=         -18968.5405 YYYY=         -10806.9429 ZZZZ=         -23825.7438 XXXY=           2940.2599
 XXXZ=           6809.8451 YYYX=           3048.4668 YYYZ=          -3680.6854 ZZZX=           8457.0088
 ZZZY=          -4341.3394 XXYY=          -5149.0748 XXZZ=          -5865.2328 YYZZ=          -5747.5219
 XXYZ=           -975.2756 YYXZ=           2783.3839 ZZXY=           1132.5898
 N-N= 6.854264458900D+03 E-N=-1.931752971811D+04  KE= 2.396360854262D+03
 Unable to Open any file for archive entry.
 1\1\GINC-AMR-070\SP\RB3LYP\6-31G(d)\C28H52N9O11(1+)\KENGMITH\06-Jun-20
 22\0\\# B3LYP/6-31G* empiricaldispersion=gd3 guess=read geom=check nos
 ymm integral(ultrafinegrid)\\Candidate Structure: Conf:110 Charge calc
  in gas phase\\1,1\N,0,-5.3537564426,-1.9856892753,2.698346946\H,0,-5.
 8444704624,-1.9090890885,3.5930242826\H,0,-5.1252555904,-3.0114236662,
 2.4676088964\H,0,-5.930600112,-1.5155792807,1.9810282753\C,0,-4.020791
 7073,-1.2852547151,2.7054295663\H,0,-3.5718410009,-1.4365873836,3.6914
 010016\C,0,-4.3007343311,0.1928985061,2.3922968801\C,0,-3.1416458638,-
 1.9006359853,1.5993346538\H,0,-3.6239691332,-1.7225105768,0.6295148269
 \H,0,-2.1795106296,-1.3876979583,1.553230138\O,0,-5.3126704513,0.47089
 26506,1.754709384\C,0,-2.9926616578,-3.4116947708,1.7921802786\N,0,-1.
 786171343,-3.9295915044,1.5706514137\H,0,-1.6799709132,-4.9350135641,1
 .6347350073\H,0,-0.9918252441,-3.3388690524,1.2942543429\O,0,-3.982037
 9438,-4.093613574,2.1344078166\N,0,-3.3758249981,1.0727525685,2.828082
 1325\H,0,-2.5533742889,0.6955501493,3.2846356571\C,0,-3.224974346,2.39
 17262055,2.2004038701\H,0,-4.1309516745,2.5258983423,1.6016384135\C,0,
 -2.0726949763,2.2074004393,1.1743310223\C,0,-3.1261791668,3.5499725229
 ,3.2241050188\H,0,-2.099729245,3.5709235958,3.6232307286\O,0,-2.067929
 2414,1.188914798,0.4724819637\C,0,-4.0573629138,3.3349541282,4.4410326
 186\H,0,-3.8879151706,4.1699161415,5.132192974\H,0,-3.7394984102,2.431
 3896956,4.9748106206\C,0,-3.4227530862,4.8996550981,2.5400778644\H,0,-
 4.4476523408,4.9232206512,2.156483512\H,0,-3.3150086486,5.7188993082,3
 .2576917436\H,0,-2.7654416273,5.1118139127,1.6910056353\C,0,-5.5554832
 167,3.2342446609,4.1239748765\H,0,-6.1195909296,3.0412315734,5.0425011
 458\H,0,-5.9460259684,4.1634154107,3.697209386\H,0,-5.7776171801,2.425
 2950112,3.4195564743\N,0,-1.1029837346,3.1413884926,1.1048072891\H,0,-
 1.1061420916,3.919697554,1.7480628686\C,0,-0.0020548168,3.0874785794,0
 .1314302427\H,0,-0.4129537446,2.6505233065,-0.7854503959\C,0,1.1248769
 926,2.1473307576,0.6118737261\C,0,0.5360350873,4.4853744777,-0.1440071
 687\H,0,1.3439894801,4.4148918773,-0.87441164\H,0,-0.255755924,5.13015
 22956,-0.5369482874\H,0,0.9580916903,4.931333813,0.7622266189\O,0,2.26
 97747198,2.5466244048,0.8135581996\N,0,0.7542504909,0.8480457301,0.765
 4847073\H,0,-0.1726928304,0.5652792535,0.4504376015\C,0,1.7431674598,-
 0.1938930077,1.0206547389\H,0,2.5140953265,0.2281858052,1.673267579\C,
 0,2.3687204746,-0.5888769254,-0.3347787519\C,0,1.0919378484,-1.4094129
 125,1.7002600139\H,0,1.8787652149,-2.159783258,1.8587916736\O,0,2.0893
 629981,-1.6711837294,-0.8850603138\C,0,0.4321065945,-1.0677393433,3.02
 75298178\H,0,1.1707856135,-0.702586448,3.7474731482\H,0,-0.0491292562,
 -1.957820809,3.4454732043\H,0,-0.3214007034,-0.2849162147,2.882769292\
 O,0,0.0824971325,-1.9498625723,0.8305753095\H,0,0.5674917885,-2.129110
 2752,-0.0128209501\N,0,3.151662285,0.341014828,-0.8978013568\H,0,3.278
 1754153,1.2081014155,-0.3789919182\C,0,3.4200285774,0.3759753624,-2.34
 10288206\H,0,2.5583884285,-0.0787484267,-2.8557916956\C,0,4.6623841448
 ,-0.4231826014,-2.7707428098\C,0,3.5134337239,1.8270132258,-2.79254074
 98\H,0,3.7894152929,1.8389569757,-3.8503392088\H,0,4.3007868653,2.3548
 513894,-2.2343004477\O,0,5.4635304719,0.0305237505,-3.590059865\O,0,2.
 2301319872,2.4326241441,-2.5662906862\H,0,2.2599095378,3.3204519439,-2
 .9534346184\N,0,4.7527753509,-1.6654683093,-2.2342825443\H,0,3.9210838
 217,-2.0376310181,-1.7820660238\C,0,5.7278629598,-2.6295186244,-2.7416
 898585\H,0,6.6532066039,-2.0937577682,-2.9656772731\H,0,5.9158111041,-
 3.3836438035,-1.9764330719\C,0,5.1479885354,-3.3346498775,-3.977106908
 2\O,0,4.5839646877,-4.418259875,-3.8865597717\N,0,5.2268590686,-2.6050
 912233,-5.1260314341\H,0,5.6584402408,-1.6891125785,-5.0824809299\C,0,
 4.5043461746,-2.9949782723,-6.3205779587\H,0,3.8150410579,-3.786505526
 5,-6.0031208725\C,0,5.3758213842,-3.6315582426,-7.4034379148\C,0,3.686
 4865155,-1.8333437642,-6.9227087337\H,0,4.3586787701,-1.1329443854,-7.
 4375018889\H,0,3.043442678,-2.2603165224,-7.6992966763\O,0,4.962279404
 9,-3.8962689876,-8.5108410145\C,0,2.8657525555,-1.0764418646,-5.871375
 0481\H,0,2.4073153069,-1.7805118621,-5.1668168176\H,0,3.5406650656,-0.
 451504877,-5.2751773212\C,0,1.7784041886,-0.1899565063,-6.4915569188\H
 ,0,0.9635707048,-0.8214447143,-6.8747669133\H,0,2.1803161786,0.3448209
 869,-7.3633970878\C,0,1.2164896248,0.852076604,-5.5188015648\H,0,2.012
 4959277,1.5601929439,-5.257707323\H,0,0.432027198,1.4382523277,-6.0288
 378853\N,0,0.7639772184,0.2419241276,-4.25908556\H,0,-0.075817862,-0.3
 124399886,-4.4214967347\H,0,0.5259690113,0.9770113513,-3.5962534886\O,
 0,6.6414832763,-3.8779387184,-7.0043051033\H,0,7.0843382126,-4.3044327
 655,-7.762771822\\Version=ES64L-G16RevC.01\HF=-2418.5971123\RMSD=9.931
 e-10\Dipole=-6.0107027,1.9169351,6.5728409\Quadrupole=17.730987,-11.93
 76887,-5.7932983,10.2174743,-34.6039949,-19.5516346\PG=C01 [X(C28H52N9
 O11)]\\@
 The archive entry for this job was punched.


 THERE IS SOMETHING FASCINATING ABOUT SCIENCE.
 ONE GETS SUCH WHOLESALE CONJECTURE OUT OF SUCH TRIFLING INVESTMENTS.

                                                       -- MARK TWAIN
 Job cpu time:       0 days  0 hours  5 minutes 16.7 seconds.
 Elapsed time:       0 days  0 hours  1 minutes 20.0 seconds.
 File lengths (MBytes):  RWF=    472 Int=      0 D2E=      0 Chk=     72 Scr=     16
 Normal termination of Gaussian 16 at Mon Jun  6 03:06:33 2022.
