 Entering Gaussian System, Link 0=/opt/software/Gaussian/g16-AVX2-C.01/g16/g16
 Input=charge-conf-883.com
 Output=charge-conf-883.log
 Initial command:
 /opt/software/Gaussian/g16-AVX2-C.01/g16/l1.exe "/mnt/gs18/scratch/users/kengmith/Gau-17130.inp" -scrdir="/mnt/gs18/scratch/users/kengmith/"
 Entering Link 1 = /opt/software/Gaussian/g16-AVX2-C.01/g16/l1.exe PID=     17219.
  
 Copyright (c) 1988-2019, Gaussian, Inc.  All Rights Reserved.
  
 This is part of the Gaussian(R) 16 program.  It is based on
 the Gaussian(R) 09 system (copyright 2009, Gaussian, Inc.),
 the Gaussian(R) 03 system (copyright 2003, Gaussian, Inc.),
 the Gaussian(R) 98 system (copyright 1998, Gaussian, Inc.),
 the Gaussian(R) 94 system (copyright 1995, Gaussian, Inc.),
 the Gaussian 92(TM) system (copyright 1992, Gaussian, Inc.),
 the Gaussian 90(TM) system (copyright 1990, Gaussian, Inc.),
 the Gaussian 88(TM) system (copyright 1988, Gaussian, Inc.),
 the Gaussian 86(TM) system (copyright 1986, Carnegie Mellon
 University), and the Gaussian 82(TM) system (copyright 1983,
 Carnegie Mellon University). Gaussian is a federally registered
 trademark of Gaussian, Inc.
  
 This software contains proprietary and confidential information,
 including trade secrets, belonging to Gaussian, Inc.
  
 This software is provided under written license and may be
 used, copied, transmitted, or stored only in accord with that
 written license.
  
 The following legend is applicable only to US Government
 contracts under FAR:
  
                    RESTRICTED RIGHTS LEGEND
  
 Use, reproduction and disclosure by the US Government is
 subject to restrictions as set forth in subparagraphs (a)
 and (c) of the Commercial Computer Software - Restricted
 Rights clause in FAR 52.227-19.
  
 Gaussian, Inc.
 340 Quinnipiac St., Bldg. 40, Wallingford CT 06492
  
  
 ---------------------------------------------------------------
 Warning -- This program may not be used in any manner that
 competes with the business of Gaussian, Inc. or will provide
 assistance to any competitor of Gaussian, Inc.  The licensee
 of this program is prohibited from giving any competitor of
 Gaussian, Inc. access to this program.  By using this program,
 the user acknowledges that Gaussian, Inc. is engaged in the
 business of creating and licensing software in the field of
 computational chemistry and represents and warrants to the
 licensee that it is not a competitor of Gaussian, Inc. and that
 it will not use this program in any manner prohibited above.
 ---------------------------------------------------------------
  

 Cite this work as:
 Gaussian 16, Revision C.01,
 M. J. Frisch, G. W. Trucks, H. B. Schlegel, G. E. Scuseria, 
 M. A. Robb, J. R. Cheeseman, G. Scalmani, V. Barone, 
 G. A. Petersson, H. Nakatsuji, X. Li, M. Caricato, A. V. Marenich, 
 J. Bloino, B. G. Janesko, R. Gomperts, B. Mennucci, H. P. Hratchian, 
 J. V. Ortiz, A. F. Izmaylov, J. L. Sonnenberg, D. Williams-Young, 
 F. Ding, F. Lipparini, F. Egidi, J. Goings, B. Peng, A. Petrone, 
 T. Henderson, D. Ranasinghe, V. G. Zakrzewski, J. Gao, N. Rega, 
 G. Zheng, W. Liang, M. Hada, M. Ehara, K. Toyota, R. Fukuda, 
 J. Hasegawa, M. Ishida, T. Nakajima, Y. Honda, O. Kitao, H. Nakai, 
 T. Vreven, K. Throssell, J. A. Montgomery, Jr., J. E. Peralta, 
 F. Ogliaro, M. J. Bearpark, J. J. Heyd, E. N. Brothers, K. N. Kudin, 
 V. N. Staroverov, T. A. Keith, R. Kobayashi, J. Normand, 
 K. Raghavachari, A. P. Rendell, J. C. Burant, S. S. Iyengar, 
 J. Tomasi, M. Cossi, J. M. Millam, M. Klene, C. Adamo, R. Cammi, 
 J. W. Ochterski, R. L. Martin, K. Morokuma, O. Farkas, 
 J. B. Foresman, and D. J. Fox, Gaussian, Inc., Wallingford CT, 2019.
 
 ******************************************
 Gaussian 16:  ES64L-G16RevC.01  3-Jul-2019
                 6-Jun-2022 
 ******************************************
 %mem=8gb
 %nproc=4
 Will use up to    4 processors via shared memory.
 %chk=conf-883.chk
 ----------------------------------------------------------------------
 # B3LYP/6-31G* empiricaldispersion=gd3 guess=read geom=check nosymm in
 tegral(ultrafinegrid)
 ----------------------------------------------------------------------
 1/29=2,38=1,172=1/1;
 2/12=2,15=1,40=1/2;
 3/5=1,6=6,7=1,11=2,14=-4,25=1,30=1,74=-5,75=-5,116=-2,124=31/1,2,3;
 4/5=1/1;
 5/5=2,38=6/2;
 6/7=2,8=2,9=2,10=2,28=1/1;
 99/5=1,9=1/99;
 ------------------------------------------------------
 Candidate Structure: Conf:883 Charge calc in gas phase
 ------------------------------------------------------
 Structure from the checkpoint file:  "conf-883.chk"
 Charge =  1 Multiplicity = 1
 Redundant internal coordinates found in file.  (old form).
 N,0,-7.0533096397,2.4910906132,5.7385374653
 H,0,-7.3131952183,1.7929759416,6.4423737787
 H,0,-7.7823438807,3.2086326971,5.6990571096
 H,0,-6.1074776869,2.9031668576,6.0118507011
 C,0,-6.7171381579,1.8820547649,4.3918140844
 H,0,-7.2273819046,0.9215395107,4.2997375455
 C,0,-5.1707873338,1.7239771781,4.4837470977
 C,0,-7.1316859719,2.8592329789,3.2664018782
 H,0,-8.2185992187,2.819093249,3.1263905678
 H,0,-6.8401041069,3.8777698281,3.5387598943
 O,0,-4.5881982363,2.4473269019,5.3039403382
 C,0,-6.3509083175,2.5290187045,1.9792731694
 N,0,-6.812771345,1.4622281444,1.2755697579
 H,0,-6.220277768,1.1054215674,0.5326556917
 H,0,-7.7589199991,1.1175964197,1.3511398687
 O,0,-5.309205304,3.1134894028,1.7341481672
 N,0,-4.6210952771,0.8438454098,3.657722934
 H,0,-5.1987277074,0.3736182899,2.9601288145
 C,0,-3.2062215434,0.8723623901,3.2618204214
 H,0,-2.7869030749,1.8096631765,3.6333428738
 C,0,-3.2443819725,0.8582089583,1.7215306869
 C,0,-2.4127150945,-0.3290185144,3.85057409
 H,0,-2.4823309703,-0.2041388005,4.9411052078
 O,0,-4.13392914,0.2301089199,1.1311986042
 C,0,-0.9211579285,-0.2992230709,3.4591791847
 H,0,-0.8066117077,-0.4132424078,2.3753590862
 H,0,-0.4571234602,-1.1914690265,3.8969860684
 C,0,-3.0465200251,-1.6758591354,3.4722323433
 H,0,-3.0172622918,-1.8409486424,2.3905240597
 H,0,-2.5016653003,-2.4924009283,3.9562339224
 H,0,-4.0922347564,-1.7409896865,3.7934792813
 C,0,-0.1322280338,0.9282379342,3.9271553848
 H,0,0.9217820626,0.8100222615,3.6601427474
 H,0,-0.473334957,1.8638951872,3.4654593226
 H,0,-0.2004581654,1.0601485773,5.0136526846
 N,0,-2.2528098234,1.5187484716,1.1148538142
 H,0,-1.5659305891,2.034553982,1.6527933111
 C,0,-2.0277987166,1.5122974535,-0.3298408509
 H,0,-2.503149135,0.6109552975,-0.7260078716
 C,0,-0.5008561006,1.4629343725,-0.4644150645
 C,0,-2.6133209244,2.767361272,-0.9866405154
 H,0,-2.5082751625,2.7187812162,-2.0757418583
 H,0,-3.6722990432,2.855272548,-0.7274473397
 H,0,-2.0864295377,3.6543469951,-0.6229503669
 O,0,0.1812794928,2.2951128464,0.1476029053
 N,0,0.0169485224,0.4788252192,-1.2171733104
 H,0,-0.5648295386,-0.2190781424,-1.6681862218
 C,0,1.449553548,0.2555395267,-1.3224591584
 H,0,1.9427405136,1.232326838,-1.380866409
 C,0,1.670693937,-0.5604126095,-2.6013327291
 C,0,2.0063841287,-0.5152645852,-0.0743812132
 H,0,1.6569012536,-1.552855194,-0.1437147534
 O,0,0.8059860705,-1.3344457526,-3.0090051584
 C,0,3.5338532283,-0.48210884,-0.005360438
 H,0,4.012323445,-0.9952966553,-0.8441672801
 H,0,3.8553787992,-0.9700930857,0.9186723033
 H,0,3.8981994442,0.5530040933,0.0183544034
 O,0,1.4333406445,-0.0126113198,1.1261221267
 H,0,1.4346475525,0.9607950492,1.0793307594
 N,0,2.8676711821,-0.3900899171,-3.2118392249
 H,0,3.6070479551,0.122415639,-2.7392186727
 C,0,3.3505022813,-1.3340078742,-4.2031703301
 H,0,2.9316170069,-2.3263052808,-3.9891656968
 C,0,4.8819076307,-1.3968470395,-4.0404966471
 C,0,2.8793396728,-0.9500090214,-5.6136608912
 H,0,3.3529943144,-0.0072052716,-5.9239857305
 H,0,1.7926853421,-0.8072030243,-5.5738724925
 O,0,5.4328024741,-0.8225932393,-3.0990424044
 O,0,3.2271824245,-2.0310415472,-6.4819761203
 H,0,2.9723016224,-1.8008580079,-7.3879255086
 N,0,5.5552443073,-2.1375914616,-4.9489726451
 H,0,5.0428729274,-2.4480109603,-5.7703304245
 C,0,7.0069208023,-2.2409479788,-4.8691460871
 H,0,7.3762208288,-2.6560283746,-5.8110752897
 H,0,7.4551133767,-1.2546259798,-4.7268464057
 C,0,7.5252799415,-3.1158040677,-3.7141151464
 O,0,8.6577083449,-2.9457823203,-3.2801295698
 N,0,6.6652203472,-4.0702488434,-3.2727720187
 H,0,5.74821672,-4.1282183612,-3.6929931516
 C,0,6.9604937411,-4.9407039369,-2.1484863019
 H,0,8.0334361111,-4.8669929552,-1.963849946
 C,0,6.6605014289,-6.4011484613,-2.4506129734
 C,0,6.1801978212,-4.540912104,-0.8672430658
 H,0,5.1108407946,-4.7250156061,-1.0467525697
 H,0,6.4907950003,-5.2223451622,-0.0663877959
 O,0,7.1093085497,-7.3283485547,-1.8199732374
 C,0,6.3888443626,-3.0773869351,-0.4575925015
 H,0,6.1069986936,-2.4358455882,-1.300035375
 H,0,5.6841150409,-2.8432534874,0.3524818469
 C,0,7.8112504463,-2.7286978021,-0.0012389177
 H,0,8.5461549148,-3.1332101829,-0.7075543006
 H,0,8.0087572283,-3.2019013312,0.9717693829
 C,0,8.0522565526,-1.2075432951,0.0954019749
 H,0,7.2926086438,-0.7527183527,0.7477688877
 H,0,9.0191120566,-1.0366176574,0.5860341798
 N,0,8.0570442249,-0.4735459422,-1.1724919159
 H,0,7.1403237552,-0.5106221538,-1.6131670341
 H,0,8.6860122962,-0.9404737101,-1.8262073797
 O,0,5.7622340542,-6.5546440487,-3.4594953898
 H,0,5.6042108144,-7.5143198496,-3.5410304484
 Recover connectivity data from disk.
                           ----------------------------
                           !    Current Parameters    !
                           ! (Angstroms and Degrees)  !
 --------------------------                            --------------------------
 ! Name  Definition              Value                                          !
 --------------------------------------------------------------------------------
 ! R1    R(1,2)                  1.0248                                         !
 ! R2    R(1,3)                  1.0237                                         !
 ! R3    R(1,4)                  1.0673                                         !
 ! R4    R(1,5)                  1.5158                                         !
 ! R5    R(5,6)                  1.0915                                         !
 ! R6    R(5,7)                  1.5571                                         !
 ! R7    R(5,8)                  1.547                                          !
 ! R8    R(7,11)                 1.2391                                         !
 ! R9    R(7,17)                 1.3263                                         !
 ! R10   R(8,9)                  1.0966                                         !
 ! R11   R(8,10)                 1.0939                                         !
 ! R12   R(8,12)                 1.5412                                         !
 ! R13   R(12,13)                1.3589                                         !
 ! R14   R(12,16)                1.2194                                         !
 ! R15   R(13,14)                1.015                                          !
 ! R16   R(13,15)                1.0098                                         !
 ! R17   R(17,18)                1.0205                                         !
 ! R18   R(17,19)                1.4695                                         !
 ! R19   R(19,20)                1.092                                          !
 ! R20   R(19,21)                1.5408                                         !
 ! R21   R(19,22)                1.5555                                         !
 ! R22   R(21,24)                1.2387                                         !
 ! R23   R(21,36)                1.337                                          !
 ! R24   R(22,23)                1.0999                                         !
 ! R25   R(22,25)                1.5423                                         !
 ! R26   R(22,28)                1.5358                                         !
 ! R27   R(25,26)                1.0958                                         !
 ! R28   R(25,27)                1.0969                                         !
 ! R29   R(25,32)                1.5323                                         !
 ! R30   R(28,29)                1.0946                                         !
 ! R31   R(28,30)                1.0945                                         !
 ! R32   R(28,31)                1.0959                                         !
 ! R33   R(32,33)                1.0937                                         !
 ! R34   R(32,34)                1.0977                                         !
 ! R35   R(32,35)                1.0966                                         !
 ! R36   R(36,37)                1.0135                                         !
 ! R37   R(36,38)                1.4621                                         !
 ! R38   R(38,39)                1.0933                                         !
 ! R39   R(38,40)                1.5337                                         !
 ! R40   R(38,41)                1.5328                                         !
 ! R41   R(40,45)                1.2379                                         !
 ! R42   R(40,46)                1.3428                                         !
 ! R43   R(41,42)                1.0952                                         !
 ! R44   R(41,43)                1.0938                                         !
 ! R45   R(41,44)                1.0939                                         !
 ! R46   R(46,47)                1.0144                                         !
 ! R47   R(46,48)                1.4537                                         !
 ! R48   R(48,49)                1.0958                                         !
 ! R49   R(48,50)                1.533                                          !
 ! R50   R(48,51)                1.569                                          !
 ! R51   R(50,53)                1.2301                                         !
 ! R52   R(50,60)                1.3544                                         !
 ! R53   R(51,52)                1.0971                                         !
 ! R54   R(51,54)                1.5294                                         !
 ! R55   R(51,58)                1.4221                                         !
 ! R56   R(54,55)                1.0936                                         !
 ! R57   R(54,56)                1.0933                                         !
 ! R58   R(54,57)                1.0976                                         !
 ! R59   R(58,59)                0.9745                                         !
 ! R60   R(60,61)                1.0162                                         !
 ! R61   R(60,62)                1.4515                                         !
 ! R62   R(62,63)                1.0981                                         !
 ! R63   R(62,64)                1.5413                                         !
 ! R64   R(62,65)                1.5359                                         !
 ! R65   R(64,68)                1.2327                                         !
 ! R66   R(64,71)                1.3518                                         !
 ! R67   R(65,66)                1.0998                                         !
 ! R68   R(65,67)                1.0967                                         !
 ! R69   R(65,69)                1.4295                                         !
 ! R70   R(69,70)                0.9689                                         !
 ! R71   R(71,72)                1.0166                                         !
 ! R72   R(71,73)                1.4575                                         !
 ! R73   R(73,74)                1.0936                                         !
 ! R74   R(73,75)                1.0927                                         !
 ! R75   R(73,76)                1.5389                                         !
 ! R76   R(76,77)                1.2246                                         !
 ! R77   R(76,78)                1.3585                                         !
 ! R78   R(78,79)                1.0104                                         !
 ! R79   R(78,80)                1.4522                                         !
 ! R80   R(80,81)                1.0912                                         !
 ! R81   R(80,82)                1.5212                                         !
 ! R82   R(80,83)                1.5525                                         !
 ! R83   R(82,86)                1.2078                                         !
 ! R84   R(82,99)                1.3595                                         !
 ! R85   R(83,84)                1.0998                                         !
 ! R86   R(83,85)                1.0964                                         !
 ! R87   R(83,87)                1.534                                          !
 ! R88   R(87,88)                1.0958                                         !
 ! R89   R(87,89)                1.0989                                         !
 ! R90   R(87,90)                1.534                                          !
 ! R91   R(90,91)                1.0966                                         !
 ! R92   R(90,92)                1.0999                                         !
 ! R93   R(90,93)                1.5432                                         !
 ! R94   R(93,94)                1.0998                                         !
 ! R95   R(93,95)                1.0976                                         !
 ! R96   R(93,96)                1.465                                          !
 ! R97   R(96,97)                1.0178                                         !
 ! R98   R(96,98)                1.0203                                         !
 ! R99   R(99,100)               0.976                                          !
 ! A1    A(2,1,3)              108.8669                                         !
 ! A2    A(2,1,4)              108.1717                                         !
 ! A3    A(2,1,5)              113.1238                                         !
 ! A4    A(3,1,4)              111.7385                                         !
 ! A5    A(3,1,5)              113.911                                          !
 ! A6    A(4,1,5)              100.7259                                         !
 ! A7    A(1,5,6)              108.9562                                         !
 ! A8    A(1,5,7)              102.0392                                         !
 ! A9    A(1,5,8)              109.4576                                         !
 ! A10   A(6,5,7)              112.3258                                         !
 ! A11   A(6,5,8)              111.6669                                         !
 ! A12   A(7,5,8)              111.9122                                         !
 ! A13   A(5,7,11)             116.5344                                         !
 ! A14   A(5,7,17)             116.2431                                         !
 ! A15   A(11,7,17)            127.2123                                         !
 ! A16   A(5,8,9)              109.5938                                         !
 ! A17   A(5,8,10)             109.608                                          !
 ! A18   A(5,8,12)             109.6609                                         !
 ! A19   A(9,8,10)             109.2724                                         !
 ! A20   A(9,8,12)             112.8078                                         !
 ! A21   A(10,8,12)            105.8066                                         !
 ! A22   A(8,12,13)            115.3722                                         !
 ! A23   A(8,12,16)            119.8662                                         !
 ! A24   A(13,12,16)           124.2328                                         !
 ! A25   A(12,13,14)           117.1674                                         !
 ! A26   A(12,13,15)           123.2051                                         !
 ! A27   A(14,13,15)           118.7988                                         !
 ! A28   A(7,17,18)            119.796                                          !
 ! A29   A(7,17,19)            123.639                                          !
 ! A30   A(18,17,19)           111.7012                                         !
 ! A31   A(17,19,20)           107.141                                          !
 ! A32   A(17,19,21)           104.1993                                         !
 ! A33   A(17,19,22)           111.9752                                         !
 ! A34   A(20,19,21)           110.9473                                         !
 ! A35   A(20,19,22)           109.7721                                         !
 ! A36   A(21,19,22)           112.5757                                         !
 ! A37   A(19,21,24)           119.9249                                         !
 ! A38   A(19,21,36)           115.5116                                         !
 ! A39   A(24,21,36)           124.5322                                         !
 ! A40   A(19,22,23)           104.7916                                         !
 ! A41   A(19,22,25)           112.48                                           !
 ! A42   A(19,22,28)           111.934                                          !
 ! A43   A(23,22,25)           108.0972                                         !
 ! A44   A(23,22,28)           108.5238                                         !
 ! A45   A(25,22,28)           110.7024                                         !
 ! A46   A(22,25,26)           110.4916                                         !
 ! A47   A(22,25,27)           106.985                                          !
 ! A48   A(22,25,32)           115.8409                                         !
 ! A49   A(26,25,27)           105.4214                                         !
 ! A50   A(26,25,32)           109.3653                                         !
 ! A51   A(27,25,32)           108.1735                                         !
 ! A52   A(22,28,29)           111.3868                                         !
 ! A53   A(22,28,30)           109.869                                          !
 ! A54   A(22,28,31)           111.9432                                         !
 ! A55   A(29,28,30)           108.1304                                         !
 ! A56   A(29,28,31)           107.8317                                         !
 ! A57   A(30,28,31)           107.5214                                         !
 ! A58   A(25,32,33)           109.5739                                         !
 ! A59   A(25,32,34)           113.2249                                         !
 ! A60   A(25,32,35)           111.5251                                         !
 ! A61   A(33,32,34)           106.7927                                         !
 ! A62   A(33,32,35)           108.3516                                         !
 ! A63   A(34,32,35)           107.149                                          !
 ! A64   A(21,36,37)           120.8778                                         !
 ! A65   A(21,36,38)           124.0766                                         !
 ! A66   A(37,36,38)           114.9851                                         !
 ! A67   A(36,38,39)           107.1434                                         !
 ! A68   A(36,38,40)           103.8902                                         !
 ! A69   A(36,38,41)           111.1613                                         !
 ! A70   A(39,38,40)           111.9963                                         !
 ! A71   A(39,38,41)           110.7131                                         !
 ! A72   A(40,38,41)           111.6591                                         !
 ! A73   A(38,40,45)           118.9215                                         !
 ! A74   A(38,40,46)           117.1738                                         !
 ! A75   A(45,40,46)           123.8708                                         !
 ! A76   A(38,41,42)           110.6799                                         !
 ! A77   A(38,41,43)           109.5188                                         !
 ! A78   A(38,41,44)           109.723                                          !
 ! A79   A(42,41,43)           109.3945                                         !
 ! A80   A(42,41,44)           108.6857                                         !
 ! A81   A(43,41,44)           108.807                                          !
 ! A82   A(40,46,47)           122.161                                          !
 ! A83   A(40,46,48)           122.2195                                         !
 ! A84   A(47,46,48)           115.2981                                         !
 ! A85   A(46,48,49)           108.0883                                         !
 ! A86   A(46,48,50)           106.5184                                         !
 ! A87   A(46,48,51)           111.5662                                         !
 ! A88   A(49,48,50)           111.411                                          !
 ! A89   A(49,48,51)           108.698                                          !
 ! A90   A(50,48,51)           110.5424                                         !
 ! A91   A(48,50,53)           120.6636                                         !
 ! A92   A(48,50,60)           115.8851                                         !
 ! A93   A(53,50,60)           123.4357                                         !
 ! A94   A(48,51,52)           107.5359                                         !
 ! A95   A(48,51,54)           112.3144                                         !
 ! A96   A(48,51,58)           110.7848                                         !
 ! A97   A(52,51,54)           109.9695                                         !
 ! A98   A(52,51,58)           105.028                                          !
 ! A99   A(54,51,58)           110.8977                                         !
 ! A100  A(51,54,55)           113.091                                          !
 ! A101  A(51,54,56)           108.7948                                         !
 ! A102  A(51,54,57)           110.6676                                         !
 ! A103  A(55,54,56)           108.0681                                         !
 ! A104  A(55,54,57)           108.2939                                         !
 ! A105  A(56,54,57)           107.7604                                         !
 ! A106  A(51,58,59)           108.179                                          !
 ! A107  A(50,60,61)           119.7872                                         !
 ! A108  A(50,60,62)           121.3352                                         !
 ! A109  A(61,60,62)           113.8019                                         !
 ! A110  A(60,62,63)           109.1258                                         !
 ! A111  A(60,62,64)           106.5551                                         !
 ! A112  A(60,62,65)           111.2587                                         !
 ! A113  A(63,62,64)           108.7592                                         !
 ! A114  A(63,62,65)           106.7306                                         !
 ! A115  A(64,62,65)           114.3255                                         !
 ! A116  A(62,64,68)           120.3738                                         !
 ! A117  A(62,64,71)           116.5072                                         !
 ! A118  A(68,64,71)           123.0876                                         !
 ! A119  A(62,65,66)           109.9588                                         !
 ! A120  A(62,65,67)           107.6495                                         !
 ! A121  A(62,65,69)           107.104                                          !
 ! A122  A(66,65,67)           108.986                                          !
 ! A123  A(66,65,69)           111.8441                                         !
 ! A124  A(67,65,69)           111.1982                                         !
 ! A125  A(65,69,70)           108.9227                                         !
 ! A126  A(64,71,72)           117.3381                                         !
 ! A127  A(64,71,73)           119.8773                                         !
 ! A128  A(72,71,73)           121.639                                          !
 ! A129  A(71,73,74)           108.4263                                         !
 ! A130  A(71,73,75)           110.5882                                         !
 ! A131  A(71,73,76)           114.6394                                         !
 ! A132  A(74,73,75)           108.4375                                         !
 ! A133  A(74,73,76)           108.4786                                         !
 ! A134  A(75,73,76)           106.0963                                         !
 ! A135  A(73,76,77)           119.9041                                         !
 ! A136  A(73,76,78)           115.4681                                         !
 ! A137  A(77,76,78)           124.6016                                         !
 ! A138  A(76,78,79)           118.6719                                         !
 ! A139  A(76,78,80)           122.9512                                         !
 ! A140  A(79,78,80)           118.1735                                         !
 ! A141  A(78,80,81)           106.8838                                         !
 ! A142  A(78,80,82)           112.4323                                         !
 ! A143  A(78,80,83)           112.4807                                         !
 ! A144  A(81,80,82)           106.9991                                         !
 ! A145  A(81,80,83)           109.7038                                         !
 ! A146  A(82,80,83)           108.1805                                         !
 ! A147  A(80,82,86)           124.0564                                         !
 ! A148  A(80,82,99)           112.7103                                         !
 ! A149  A(86,82,99)           123.1141                                         !
 ! A150  A(80,83,84)           108.1118                                         !
 ! A151  A(80,83,85)           107.4798                                         !
 ! A152  A(80,83,87)           113.4345                                         !
 ! A153  A(84,83,85)           106.8943                                         !
 ! A154  A(84,83,87)           109.6045                                         !
 ! A155  A(85,83,87)           111.0602                                         !
 ! A156  A(83,87,88)           108.5584                                         !
 ! A157  A(83,87,89)           108.2332                                         !
 ! A158  A(83,87,90)           114.9879                                         !
 ! A159  A(88,87,89)           106.0836                                         !
 ! A160  A(88,87,90)           109.5202                                         !
 ! A161  A(89,87,90)           109.0813                                         !
 ! A162  A(87,90,91)           110.2396                                         !
 ! A163  A(87,90,92)           109.3843                                         !
 ! A164  A(87,90,93)           112.8002                                         !
 ! A165  A(91,90,92)           106.903                                          !
 ! A166  A(91,90,93)           107.4145                                         !
 ! A167  A(92,90,93)           109.9171                                         !
 ! A168  A(90,93,94)           109.6903                                         !
 ! A169  A(90,93,95)           108.6068                                         !
 ! A170  A(90,93,96)           116.1153                                         !
 ! A171  A(94,93,95)           106.194                                          !
 ! A172  A(94,93,96)           107.964                                          !
 ! A173  A(95,93,96)           107.8154                                         !
 ! A174  A(93,96,97)           110.702                                          !
 ! A175  A(93,96,98)           109.1009                                         !
 ! A176  A(97,96,98)           105.1388                                         !
 ! A177  A(82,99,100)          106.2593                                         !
 ! D1    D(2,1,5,6)             25.1043                                         !
 ! D2    D(2,1,5,7)            -93.8388                                         !
 ! D3    D(2,1,5,8)            147.4734                                         !
 ! D4    D(3,1,5,6)            -99.9226                                         !
 ! D5    D(3,1,5,7)            141.1342                                         !
 ! D6    D(3,1,5,8)             22.4465                                         !
 ! D7    D(4,1,5,6)            140.32                                           !
 ! D8    D(4,1,5,7)             21.3768                                         !
 ! D9    D(4,1,5,8)            -97.3109                                         !
 ! D10   D(1,5,7,11)           -21.9495                                         !
 ! D11   D(1,5,7,17)           159.1306                                         !
 ! D12   D(6,5,7,11)          -138.4784                                         !
 ! D13   D(6,5,7,17)            42.6017                                         !
 ! D14   D(8,5,7,11)            94.981                                          !
 ! D15   D(8,5,7,17)           -83.9389                                         !
 ! D16   D(1,5,8,9)            -76.7642                                         !
 ! D17   D(1,5,8,10)            43.1514                                         !
 ! D18   D(1,5,8,12)           158.8946                                         !
 ! D19   D(6,5,8,9)             43.9708                                         !
 ! D20   D(6,5,8,10)           163.8863                                         !
 ! D21   D(6,5,8,12)           -80.3704                                         !
 ! D22   D(7,5,8,9)            170.8683                                         !
 ! D23   D(7,5,8,10)           -69.2162                                         !
 ! D24   D(7,5,8,12)            46.527                                          !
 ! D25   D(5,7,17,18)            4.9745                                         !
 ! D26   D(5,7,17,19)          158.2024                                         !
 ! D27   D(11,7,17,18)        -173.8121                                         !
 ! D28   D(11,7,17,19)         -20.5842                                         !
 ! D29   D(5,8,12,13)           78.3206                                         !
 ! D30   D(5,8,12,16)          -93.6888                                         !
 ! D31   D(9,8,12,13)          -44.1292                                         !
 ! D32   D(9,8,12,16)          143.8613                                         !
 ! D33   D(10,8,12,13)        -163.5472                                         !
 ! D34   D(10,8,12,16)          24.4434                                         !
 ! D35   D(8,12,13,14)        -168.1152                                         !
 ! D36   D(8,12,13,15)          22.4514                                         !
 ! D37   D(16,12,13,14)          3.5007                                         !
 ! D38   D(16,12,13,15)       -165.9327                                         !
 ! D39   D(7,17,19,20)          -9.0731                                         !
 ! D40   D(7,17,19,21)        -126.7158                                         !
 ! D41   D(7,17,19,22)         111.3375                                         !
 ! D42   D(18,17,19,20)        146.0473                                         !
 ! D43   D(18,17,19,21)         28.4046                                         !
 ! D44   D(18,17,19,22)        -93.5421                                         !
 ! D45   D(17,19,21,24)        -34.1574                                         !
 ! D46   D(17,19,21,36)        147.7879                                         !
 ! D47   D(20,19,21,24)       -149.1428                                         !
 ! D48   D(20,19,21,36)         32.8026                                         !
 ! D49   D(22,19,21,24)         87.3917                                         !
 ! D50   D(22,19,21,36)        -90.6629                                         !
 ! D51   D(17,19,22,23)        -61.9661                                         !
 ! D52   D(17,19,22,25)       -179.1576                                         !
 ! D53   D(17,19,22,28)         55.4571                                         !
 ! D54   D(20,19,22,23)         56.901                                          !
 ! D55   D(20,19,22,25)        -60.2905                                         !
 ! D56   D(20,19,22,28)        174.3242                                         !
 ! D57   D(21,19,22,23)       -178.9818                                         !
 ! D58   D(21,19,22,25)         63.8267                                         !
 ! D59   D(21,19,22,28)        -61.5586                                         !
 ! D60   D(19,21,36,37)         -3.5805                                         !
 ! D61   D(19,21,36,38)        173.4459                                         !
 ! D62   D(24,21,36,37)        178.4662                                         !
 ! D63   D(24,21,36,38)         -4.5074                                         !
 ! D64   D(19,22,25,26)        -64.3608                                         !
 ! D65   D(19,22,25,27)       -178.6271                                         !
 ! D66   D(19,22,25,32)         60.6904                                         !
 ! D67   D(23,22,25,26)       -179.569                                          !
 ! D68   D(23,22,25,27)         66.1647                                         !
 ! D69   D(23,22,25,32)        -54.5177                                         !
 ! D70   D(28,22,25,26)         61.6929                                         !
 ! D71   D(28,22,25,27)        -52.5733                                         !
 ! D72   D(28,22,25,32)       -173.2558                                         !
 ! D73   D(19,22,28,29)         63.8901                                         !
 ! D74   D(19,22,28,30)       -176.3165                                         !
 ! D75   D(19,22,28,31)        -56.9291                                         !
 ! D76   D(23,22,28,29)        179.0526                                         !
 ! D77   D(23,22,28,30)        -61.154                                          !
 ! D78   D(23,22,28,31)         58.2334                                         !
 ! D79   D(25,22,28,29)        -62.4681                                         !
 ! D80   D(25,22,28,30)         57.3253                                         !
 ! D81   D(25,22,28,31)        176.7126                                         !
 ! D82   D(22,25,32,33)        175.8794                                         !
 ! D83   D(22,25,32,34)        -65.0261                                         !
 ! D84   D(22,25,32,35)         55.9154                                         !
 ! D85   D(26,25,32,33)        -58.4934                                         !
 ! D86   D(26,25,32,34)         60.6011                                         !
 ! D87   D(26,25,32,35)       -178.4573                                         !
 ! D88   D(27,25,32,33)         55.8397                                         !
 ! D89   D(27,25,32,34)        174.9342                                         !
 ! D90   D(27,25,32,35)        -64.1243                                         !
 ! D91   D(21,36,38,39)        -22.6429                                         !
 ! D92   D(21,36,38,40)       -141.3317                                         !
 ! D93   D(21,36,38,41)         98.4418                                         !
 ! D94   D(37,36,38,39)        154.5416                                         !
 ! D95   D(37,36,38,40)         35.8528                                         !
 ! D96   D(37,36,38,41)        -84.3737                                         !
 ! D97   D(36,38,40,45)        -52.0302                                         !
 ! D98   D(36,38,40,46)        125.9351                                         !
 ! D99   D(39,38,40,45)       -167.3313                                         !
 ! D100  D(39,38,40,46)         10.634                                          !
 ! D101  D(41,38,40,45)         67.859                                          !
 ! D102  D(41,38,40,46)       -114.1757                                         !
 ! D103  D(36,38,41,42)       -175.6935                                         !
 ! D104  D(36,38,41,43)        -55.0038                                         !
 ! D105  D(36,38,41,44)         64.3657                                         !
 ! D106  D(39,38,41,42)        -56.7274                                         !
 ! D107  D(39,38,41,43)         63.9623                                         !
 ! D108  D(39,38,41,44)       -176.6682                                         !
 ! D109  D(40,38,41,42)         68.7945                                         !
 ! D110  D(40,38,41,43)       -170.5158                                         !
 ! D111  D(40,38,41,44)        -51.1464                                         !
 ! D112  D(38,40,46,47)         -1.1626                                         !
 ! D113  D(38,40,46,48)       -174.3443                                         !
 ! D114  D(45,40,46,47)        176.6924                                         !
 ! D115  D(45,40,46,48)          3.5108                                         !
 ! D116  D(40,46,48,49)        -40.0753                                         !
 ! D117  D(40,46,48,50)       -159.9056                                         !
 ! D118  D(40,46,48,51)         79.379                                          !
 ! D119  D(47,46,48,49)        146.3072                                         !
 ! D120  D(47,46,48,50)         26.4769                                         !
 ! D121  D(47,46,48,51)        -94.2385                                         !
 ! D122  D(46,48,50,53)        -29.5904                                         !
 ! D123  D(46,48,50,60)        151.7941                                         !
 ! D124  D(49,48,50,53)       -147.2452                                         !
 ! D125  D(49,48,50,60)         34.1393                                         !
 ! D126  D(51,48,50,53)         91.7798                                         !
 ! D127  D(51,48,50,60)        -86.8357                                         !
 ! D128  D(46,48,51,52)         71.9448                                         !
 ! D129  D(46,48,51,54)       -166.9343                                         !
 ! D130  D(46,48,51,58)        -42.3098                                         !
 ! D131  D(49,48,51,52)       -168.9625                                         !
 ! D132  D(49,48,51,54)        -47.8416                                         !
 ! D133  D(49,48,51,58)         76.7829                                         !
 ! D134  D(50,48,51,52)        -46.3883                                         !
 ! D135  D(50,48,51,54)         74.7325                                         !
 ! D136  D(50,48,51,58)       -160.643                                          !
 ! D137  D(48,50,60,61)         10.2589                                         !
 ! D138  D(48,50,60,62)        163.5036                                         !
 ! D139  D(53,50,60,61)       -168.314                                          !
 ! D140  D(53,50,60,62)        -15.0693                                         !
 ! D141  D(48,51,54,55)        -63.9866                                         !
 ! D142  D(48,51,54,56)        175.9308                                         !
 ! D143  D(48,51,54,57)         57.7173                                         !
 ! D144  D(52,51,54,55)         55.7268                                         !
 ! D145  D(52,51,54,56)        -64.3558                                         !
 ! D146  D(52,51,54,57)        177.4307                                         !
 ! D147  D(58,51,54,55)        171.4512                                         !
 ! D148  D(58,51,54,56)         51.3687                                         !
 ! D149  D(58,51,54,57)        -66.8449                                         !
 ! D150  D(48,51,58,59)        -43.985                                          !
 ! D151  D(52,51,58,59)       -159.8079                                         !
 ! D152  D(54,51,58,59)         81.44                                           !
 ! D153  D(50,60,62,63)        -28.5345                                         !
 ! D154  D(50,60,62,64)       -145.8046                                         !
 ! D155  D(50,60,62,65)         88.9724                                         !
 ! D156  D(61,60,62,63)        126.1868                                         !
 ! D157  D(61,60,62,64)          8.9167                                         !
 ! D158  D(61,60,62,65)       -116.3063                                         !
 ! D159  D(60,62,64,68)          7.4705                                         !
 ! D160  D(60,62,64,71)       -174.5083                                         !
 ! D161  D(63,62,64,68)       -110.0424                                         !
 ! D162  D(63,62,64,71)         67.9788                                         !
 ! D163  D(65,62,64,68)        130.8026                                         !
 ! D164  D(65,62,64,71)        -51.1762                                         !
 ! D165  D(60,62,65,66)         66.7867                                         !
 ! D166  D(60,62,65,67)        -51.8182                                         !
 ! D167  D(60,62,65,69)       -171.4828                                         !
 ! D168  D(63,62,65,66)       -174.2627                                         !
 ! D169  D(63,62,65,67)         67.1323                                         !
 ! D170  D(63,62,65,69)        -52.5322                                         !
 ! D171  D(64,62,65,66)        -53.9706                                         !
 ! D172  D(64,62,65,67)       -172.5756                                         !
 ! D173  D(64,62,65,69)         67.7599                                         !
 ! D174  D(62,64,71,72)         11.6535                                         !
 ! D175  D(62,64,71,73)        179.6229                                         !
 ! D176  D(68,64,71,72)       -170.3842                                         !
 ! D177  D(68,64,71,73)         -2.4147                                         !
 ! D178  D(62,65,69,70)       -177.7976                                         !
 ! D179  D(66,65,69,70)        -57.2591                                         !
 ! D180  D(67,65,69,70)         64.8418                                         !
 ! D181  D(64,71,73,74)       -165.8235                                         !
 ! D182  D(64,71,73,75)        -47.056                                          !
 ! D183  D(64,71,73,76)         72.8204                                         !
 ! D184  D(72,71,73,74)          1.6156                                         !
 ! D185  D(72,71,73,75)        120.3831                                         !
 ! D186  D(72,71,73,76)       -119.7405                                         !
 ! D187  D(71,73,76,77)       -156.5269                                         !
 ! D188  D(71,73,76,78)         25.2495                                         !
 ! D189  D(74,73,76,77)         82.1456                                         !
 ! D190  D(74,73,76,78)        -96.0779                                         !
 ! D191  D(75,73,76,77)        -34.1819                                         !
 ! D192  D(75,73,76,78)        147.5945                                         !
 ! D193  D(73,76,78,79)         -2.1207                                         !
 ! D194  D(73,76,78,80)       -176.8388                                         !
 ! D195  D(77,76,78,79)        179.7501                                         !
 ! D196  D(77,76,78,80)          5.032                                          !
 ! D197  D(76,78,80,81)        -15.709                                          !
 ! D198  D(76,78,80,82)       -132.8279                                         !
 ! D199  D(76,78,80,83)        104.7501                                         !
 ! D200  D(79,78,80,81)        169.548                                          !
 ! D201  D(79,78,80,82)         52.4291                                         !
 ! D202  D(79,78,80,83)        -69.9929                                         !
 ! D203  D(78,80,82,86)        161.501                                          !
 ! D204  D(78,80,82,99)        -22.3682                                         !
 ! D205  D(81,80,82,86)         44.4508                                         !
 ! D206  D(81,80,82,99)       -139.4184                                         !
 ! D207  D(83,80,82,86)        -73.6799                                         !
 ! D208  D(83,80,82,99)        102.4509                                         !
 ! D209  D(78,80,83,84)         67.0399                                         !
 ! D210  D(78,80,83,85)       -177.9005                                         !
 ! D211  D(78,80,83,87)        -54.7312                                         !
 ! D212  D(81,80,83,84)       -174.1397                                         !
 ! D213  D(81,80,83,85)        -59.0802                                         !
 ! D214  D(81,80,83,87)         64.0892                                         !
 ! D215  D(82,80,83,84)        -57.7504                                         !
 ! D216  D(82,80,83,85)         57.3091                                         !
 ! D217  D(82,80,83,87)       -179.5215                                         !
 ! D218  D(80,82,99,100)      -177.0405                                         !
 ! D219  D(86,82,99,100)        -0.8676                                         !
 ! D220  D(80,83,87,88)         56.426                                          !
 ! D221  D(80,83,87,89)        171.1522                                         !
 ! D222  D(80,83,87,90)        -66.6215                                         !
 ! D223  D(84,83,87,88)        -64.5083                                         !
 ! D224  D(84,83,87,89)         50.2179                                         !
 ! D225  D(84,83,87,90)        172.4443                                         !
 ! D226  D(85,83,87,88)        177.6052                                         !
 ! D227  D(85,83,87,89)        -67.6686                                         !
 ! D228  D(85,83,87,90)         54.5577                                         !
 ! D229  D(83,87,90,91)         47.1005                                         !
 ! D230  D(83,87,90,92)        -70.1731                                         !
 ! D231  D(83,87,90,93)        167.1674                                         !
 ! D232  D(88,87,90,91)        -75.4317                                         !
 ! D233  D(88,87,90,92)        167.2947                                         !
 ! D234  D(88,87,90,93)         44.6352                                         !
 ! D235  D(89,87,90,91)        168.8685                                         !
 ! D236  D(89,87,90,92)         51.5949                                         !
 ! D237  D(89,87,90,93)        -71.0646                                         !
 ! D238  D(87,90,93,94)         54.7787                                         !
 ! D239  D(87,90,93,95)        170.4386                                         !
 ! D240  D(87,90,93,96)        -67.9219                                         !
 ! D241  D(91,90,93,94)        176.457                                          !
 ! D242  D(91,90,93,95)        -67.8831                                         !
 ! D243  D(91,90,93,96)         53.7564                                         !
 ! D244  D(92,90,93,94)        -67.5823                                         !
 ! D245  D(92,90,93,95)         48.0776                                         !
 ! D246  D(92,90,93,96)        169.7171                                         !
 ! D247  D(90,93,96,97)         64.6742                                         !
 ! D248  D(90,93,96,98)        -50.56                                           !
 ! D249  D(94,93,96,97)        -58.9276                                         !
 ! D250  D(94,93,96,98)       -174.1618                                         !
 ! D251  D(95,93,96,97)       -173.2671                                         !
 ! D252  D(95,93,96,98)         71.4987                                         !
 --------------------------------------------------------------------------------
 Symmetry turned off by external request.
 Stoichiometry    C28H52N9O11(1+)
 Framework group  C1[X(C28H52N9O11)]
 Deg. of freedom   294
 Full point group                 C1      NOp   1
                          Input orientation:                          
 ---------------------------------------------------------------------
 Center     Atomic      Atomic             Coordinates (Angstroms)
 Number     Number       Type             X           Y           Z
 ---------------------------------------------------------------------
      1          7           0       -7.053310    2.491091    5.738537
      2          1           0       -7.313195    1.792976    6.442374
      3          1           0       -7.782344    3.208633    5.699057
      4          1           0       -6.107478    2.903167    6.011851
      5          6           0       -6.717138    1.882055    4.391814
      6          1           0       -7.227382    0.921540    4.299738
      7          6           0       -5.170787    1.723977    4.483747
      8          6           0       -7.131686    2.859233    3.266402
      9          1           0       -8.218599    2.819093    3.126391
     10          1           0       -6.840104    3.877770    3.538760
     11          8           0       -4.588198    2.447327    5.303940
     12          6           0       -6.350908    2.529019    1.979273
     13          7           0       -6.812771    1.462228    1.275570
     14          1           0       -6.220278    1.105422    0.532656
     15          1           0       -7.758920    1.117596    1.351140
     16          8           0       -5.309205    3.113489    1.734148
     17          7           0       -4.621095    0.843845    3.657723
     18          1           0       -5.198728    0.373618    2.960129
     19          6           0       -3.206222    0.872362    3.261820
     20          1           0       -2.786903    1.809663    3.633343
     21          6           0       -3.244382    0.858209    1.721531
     22          6           0       -2.412715   -0.329019    3.850574
     23          1           0       -2.482331   -0.204139    4.941105
     24          8           0       -4.133929    0.230109    1.131199
     25          6           0       -0.921158   -0.299223    3.459179
     26          1           0       -0.806612   -0.413242    2.375359
     27          1           0       -0.457123   -1.191469    3.896986
     28          6           0       -3.046520   -1.675859    3.472232
     29          1           0       -3.017262   -1.840949    2.390524
     30          1           0       -2.501665   -2.492401    3.956234
     31          1           0       -4.092235   -1.740990    3.793479
     32          6           0       -0.132228    0.928238    3.927155
     33          1           0        0.921782    0.810022    3.660143
     34          1           0       -0.473335    1.863895    3.465459
     35          1           0       -0.200458    1.060149    5.013653
     36          7           0       -2.252810    1.518748    1.114854
     37          1           0       -1.565931    2.034554    1.652793
     38          6           0       -2.027799    1.512297   -0.329841
     39          1           0       -2.503149    0.610955   -0.726008
     40          6           0       -0.500856    1.462934   -0.464415
     41          6           0       -2.613321    2.767361   -0.986641
     42          1           0       -2.508275    2.718781   -2.075742
     43          1           0       -3.672299    2.855273   -0.727447
     44          1           0       -2.086430    3.654347   -0.622950
     45          8           0        0.181279    2.295113    0.147603
     46          7           0        0.016949    0.478825   -1.217173
     47          1           0       -0.564830   -0.219078   -1.668186
     48          6           0        1.449554    0.255540   -1.322459
     49          1           0        1.942741    1.232327   -1.380866
     50          6           0        1.670694   -0.560413   -2.601333
     51          6           0        2.006384   -0.515265   -0.074381
     52          1           0        1.656901   -1.552855   -0.143715
     53          8           0        0.805986   -1.334446   -3.009005
     54          6           0        3.533853   -0.482109   -0.005360
     55          1           0        4.012323   -0.995297   -0.844167
     56          1           0        3.855379   -0.970093    0.918672
     57          1           0        3.898199    0.553004    0.018354
     58          8           0        1.433341   -0.012611    1.126122
     59          1           0        1.434648    0.960795    1.079331
     60          7           0        2.867671   -0.390090   -3.211839
     61          1           0        3.607048    0.122416   -2.739219
     62          6           0        3.350502   -1.334008   -4.203170
     63          1           0        2.931617   -2.326305   -3.989166
     64          6           0        4.881908   -1.396847   -4.040497
     65          6           0        2.879340   -0.950009   -5.613661
     66          1           0        3.352994   -0.007205   -5.923986
     67          1           0        1.792685   -0.807203   -5.573872
     68          8           0        5.432802   -0.822593   -3.099042
     69          8           0        3.227182   -2.031042   -6.481976
     70          1           0        2.972302   -1.800858   -7.387926
     71          7           0        5.555244   -2.137591   -4.948973
     72          1           0        5.042873   -2.448011   -5.770330
     73          6           0        7.006921   -2.240948   -4.869146
     74          1           0        7.376221   -2.656028   -5.811075
     75          1           0        7.455113   -1.254626   -4.726846
     76          6           0        7.525280   -3.115804   -3.714115
     77          8           0        8.657708   -2.945782   -3.280130
     78          7           0        6.665220   -4.070249   -3.272772
     79          1           0        5.748217   -4.128218   -3.692993
     80          6           0        6.960494   -4.940704   -2.148486
     81          1           0        8.033436   -4.866993   -1.963850
     82          6           0        6.660501   -6.401148   -2.450613
     83          6           0        6.180198   -4.540912   -0.867243
     84          1           0        5.110841   -4.725016   -1.046753
     85          1           0        6.490795   -5.222345   -0.066388
     86          8           0        7.109309   -7.328349   -1.819973
     87          6           0        6.388844   -3.077387   -0.457593
     88          1           0        6.106999   -2.435846   -1.300035
     89          1           0        5.684115   -2.843253    0.352482
     90          6           0        7.811250   -2.728698   -0.001239
     91          1           0        8.546155   -3.133210   -0.707554
     92          1           0        8.008757   -3.201901    0.971769
     93          6           0        8.052257   -1.207543    0.095402
     94          1           0        7.292609   -0.752718    0.747769
     95          1           0        9.019112   -1.036618    0.586034
     96          7           0        8.057044   -0.473546   -1.172492
     97          1           0        7.140324   -0.510622   -1.613167
     98          1           0        8.686012   -0.940474   -1.826207
     99          8           0        5.762234   -6.554644   -3.459495
    100          1           0        5.604211   -7.514320   -3.541030
 ---------------------------------------------------------------------
 Rotational constants (GHZ):           0.1237822           0.0198593           0.0188858
 Standard basis: 6-31G(d) (6D, 7F)
   824 basis functions,  1552 primitive gaussians,   824 cartesian basis functions
   185 alpha electrons      185 beta electrons
       nuclear repulsion energy      6543.7131693688 Hartrees.
 NAtoms=  100 NActive=  100 NUniq=  100 SFac= 1.00D+00 NAtFMM=   60 NAOKFM=T Big=T
 Integral buffers will be    131072 words long.
 Raffenetti 2 integral format.
 Two-electron integral symmetry is turned off.
 Nuclear repulsion after empirical dispersion term =     6543.5723539067 Hartrees.
 One-electron integrals computed using PRISM.
 NBasis=   824 RedAO= T EigKep=  1.84D-03  NBF=   824
 NBsUse=   824 1.00D-06 EigRej= -1.00D+00 NBFU=   824
 Initial guess from the checkpoint file:  "conf-883.chk"
 B after Tr=     0.000000    0.000000    0.000000
         Rot=    1.000000    0.000000    0.000000    0.000000 Ang=   0.00 deg.
 Requested convergence on RMS density matrix=1.00D-08 within 128 cycles.
 Requested convergence on MAX density matrix=1.00D-06.
 Requested convergence on             energy=1.00D-06.
 No special actions if energy rises.
 SCF Done:  E(RB3LYP) =  -2418.55842103     A.U. after    2 cycles
            NFock=  2  Conv=0.69D-08     -V/T= 2.0093

 **********************************************************************

            Population analysis using the SCF Density.

 **********************************************************************

 Alpha  occ. eigenvalues --  -19.27333 -19.25164 -19.24118 -19.23972 -19.21610
 Alpha  occ. eigenvalues --  -19.20735 -19.20309 -19.20062 -19.19998 -19.18903
 Alpha  occ. eigenvalues --  -19.16520 -14.61493 -14.49548 -14.48039 -14.45660
 Alpha  occ. eigenvalues --  -14.44626 -14.44011 -14.43854 -14.41495 -14.31871
 Alpha  occ. eigenvalues --  -10.44048 -10.42584 -10.42154 -10.38739 -10.37295
 Alpha  occ. eigenvalues --  -10.37101 -10.37099 -10.37033 -10.35779 -10.34258
 Alpha  occ. eigenvalues --  -10.33748 -10.32115 -10.31954 -10.31598 -10.31265
 Alpha  occ. eigenvalues --  -10.31246 -10.29290 -10.28679 -10.28433 -10.25780
 Alpha  occ. eigenvalues --  -10.25560 -10.25439 -10.24654 -10.23806 -10.23697
 Alpha  occ. eigenvalues --  -10.22448 -10.21844 -10.20300  -1.20000  -1.16002
 Alpha  occ. eigenvalues --   -1.15730  -1.15050  -1.13554  -1.12746  -1.12219
 Alpha  occ. eigenvalues --   -1.11477  -1.10929  -1.08567  -1.08216  -1.06712
 Alpha  occ. eigenvalues --   -1.06418  -1.02983  -1.02197  -1.00937  -1.00676
 Alpha  occ. eigenvalues --   -1.00229  -0.97899  -0.94740  -0.90389  -0.89083
 Alpha  occ. eigenvalues --   -0.87029  -0.85612  -0.84624  -0.84407  -0.83111
 Alpha  occ. eigenvalues --   -0.81666  -0.80062  -0.79549  -0.78300  -0.77819
 Alpha  occ. eigenvalues --   -0.75441  -0.75147  -0.74202  -0.73080  -0.72838
 Alpha  occ. eigenvalues --   -0.72462  -0.71204  -0.70089  -0.69207  -0.68128
 Alpha  occ. eigenvalues --   -0.67676  -0.67386  -0.67080  -0.66850  -0.66110
 Alpha  occ. eigenvalues --   -0.65824  -0.65746  -0.64915  -0.64287  -0.64133
 Alpha  occ. eigenvalues --   -0.63674  -0.62069  -0.60748  -0.60337  -0.59659
 Alpha  occ. eigenvalues --   -0.59318  -0.58642  -0.58071  -0.57848  -0.57202
 Alpha  occ. eigenvalues --   -0.56705  -0.56309  -0.55700  -0.55367  -0.55108
 Alpha  occ. eigenvalues --   -0.54506  -0.54239  -0.53388  -0.53161  -0.52958
 Alpha  occ. eigenvalues --   -0.52809  -0.52553  -0.52224  -0.52003  -0.51467
 Alpha  occ. eigenvalues --   -0.51291  -0.51024  -0.50535  -0.50442  -0.50339
 Alpha  occ. eigenvalues --   -0.50285  -0.50016  -0.49663  -0.49375  -0.49221
 Alpha  occ. eigenvalues --   -0.48863  -0.48253  -0.47954  -0.47868  -0.47315
 Alpha  occ. eigenvalues --   -0.46920  -0.46716  -0.46355  -0.46164  -0.45453
 Alpha  occ. eigenvalues --   -0.44916  -0.44855  -0.44655  -0.44570  -0.44347
 Alpha  occ. eigenvalues --   -0.43906  -0.43646  -0.43589  -0.43358  -0.43188
 Alpha  occ. eigenvalues --   -0.42491  -0.42272  -0.41700  -0.41545  -0.41077
 Alpha  occ. eigenvalues --   -0.41026  -0.40307  -0.40048  -0.39427  -0.39197
 Alpha  occ. eigenvalues --   -0.38624  -0.37660  -0.37468  -0.36913  -0.36578
 Alpha  occ. eigenvalues --   -0.36089  -0.35914  -0.35280  -0.35144  -0.34827
 Alpha  occ. eigenvalues --   -0.34766  -0.34385  -0.33926  -0.33745  -0.33535
 Alpha  occ. eigenvalues --   -0.33314  -0.32353  -0.30127  -0.29818  -0.24423
 Alpha virt. eigenvalues --   -0.13353  -0.12176  -0.11392  -0.08143  -0.07236
 Alpha virt. eigenvalues --   -0.06533  -0.06071  -0.05389  -0.05122  -0.04099
 Alpha virt. eigenvalues --   -0.03343  -0.02890  -0.02359  -0.01288  -0.00971
 Alpha virt. eigenvalues --   -0.00607   0.00573   0.01195   0.01522   0.01802
 Alpha virt. eigenvalues --    0.02344   0.02633   0.03087   0.03547   0.03733
 Alpha virt. eigenvalues --    0.04299   0.04813   0.04942   0.05495   0.05775
 Alpha virt. eigenvalues --    0.06028   0.06640   0.06850   0.07039   0.07184
 Alpha virt. eigenvalues --    0.07446   0.07732   0.07946   0.08201   0.08411
 Alpha virt. eigenvalues --    0.08589   0.08888   0.09305   0.09379   0.09563
 Alpha virt. eigenvalues --    0.09772   0.10111   0.10181   0.10352   0.10607
 Alpha virt. eigenvalues --    0.10994   0.11103   0.11667   0.11848   0.12045
 Alpha virt. eigenvalues --    0.12357   0.12722   0.12999   0.13151   0.13345
 Alpha virt. eigenvalues --    0.13568   0.13830   0.13917   0.14113   0.14175
 Alpha virt. eigenvalues --    0.14699   0.15250   0.15477   0.15792   0.15953
 Alpha virt. eigenvalues --    0.16411   0.16958   0.17057   0.17118   0.17274
 Alpha virt. eigenvalues --    0.17391   0.18069   0.18262   0.18479   0.19052
 Alpha virt. eigenvalues --    0.19835   0.20194   0.20561   0.20956   0.21096
 Alpha virt. eigenvalues --    0.21224   0.21689   0.22512   0.22923   0.23036
 Alpha virt. eigenvalues --    0.23870   0.25016   0.26004   0.26512   0.27514
 Alpha virt. eigenvalues --    0.27717   0.27911   0.28387   0.29527   0.29921
 Alpha virt. eigenvalues --    0.30204   0.32180   0.33153   0.33688   0.34665
 Alpha virt. eigenvalues --    0.36181   0.36571   0.37672   0.38300   0.38658
 Alpha virt. eigenvalues --    0.40623   0.41450   0.41766   0.42836   0.43033
 Alpha virt. eigenvalues --    0.43588   0.43833   0.43904   0.44333   0.44775
 Alpha virt. eigenvalues --    0.45108   0.45592   0.46127   0.46283   0.46518
 Alpha virt. eigenvalues --    0.46783   0.47325   0.47413   0.47610   0.48034
 Alpha virt. eigenvalues --    0.48356   0.48513   0.49353   0.49607   0.49967
 Alpha virt. eigenvalues --    0.50277   0.50650   0.51075   0.51461   0.51514
 Alpha virt. eigenvalues --    0.51602   0.52106   0.52664   0.53231   0.53788
 Alpha virt. eigenvalues --    0.54092   0.54426   0.54518   0.54922   0.55583
 Alpha virt. eigenvalues --    0.55663   0.56343   0.56538   0.56991   0.57126
 Alpha virt. eigenvalues --    0.57487   0.57536   0.58050   0.58873   0.59107
 Alpha virt. eigenvalues --    0.59204   0.59910   0.60042   0.60552   0.60725
 Alpha virt. eigenvalues --    0.61312   0.61513   0.61712   0.62420   0.62715
 Alpha virt. eigenvalues --    0.62993   0.63421   0.63633   0.64274   0.65057
 Alpha virt. eigenvalues --    0.65494   0.65674   0.66114   0.66438   0.66883
 Alpha virt. eigenvalues --    0.67374   0.67424   0.68079   0.68400   0.68901
 Alpha virt. eigenvalues --    0.69694   0.70420   0.70512   0.70818   0.70909
 Alpha virt. eigenvalues --    0.71158   0.71899   0.72247   0.72427   0.72699
 Alpha virt. eigenvalues --    0.73105   0.73362   0.73687   0.74287   0.74976
 Alpha virt. eigenvalues --    0.75089   0.75329   0.75511   0.75765   0.75975
 Alpha virt. eigenvalues --    0.76076   0.76709   0.77196   0.77286   0.77402
 Alpha virt. eigenvalues --    0.77537   0.77924   0.78390   0.78505   0.79090
 Alpha virt. eigenvalues --    0.79216   0.79545   0.80032   0.80245   0.80543
 Alpha virt. eigenvalues --    0.80918   0.81166   0.81401   0.81564   0.81821
 Alpha virt. eigenvalues --    0.82066   0.82159   0.82638   0.82672   0.83052
 Alpha virt. eigenvalues --    0.83625   0.84052   0.84226   0.84413   0.84842
 Alpha virt. eigenvalues --    0.84864   0.84950   0.85465   0.85615   0.85729
 Alpha virt. eigenvalues --    0.86102   0.86285   0.86535   0.86873   0.87187
 Alpha virt. eigenvalues --    0.87529   0.88068   0.88760   0.89245   0.89507
 Alpha virt. eigenvalues --    0.89815   0.90077   0.90440   0.90967   0.91194
 Alpha virt. eigenvalues --    0.91634   0.92081   0.92412   0.92519   0.92849
 Alpha virt. eigenvalues --    0.93316   0.93511   0.93788   0.94298   0.94585
 Alpha virt. eigenvalues --    0.94982   0.95304   0.96119   0.96743   0.96834
 Alpha virt. eigenvalues --    0.97624   0.97949   0.98121   0.99046   0.99460
 Alpha virt. eigenvalues --    0.99859   1.00545   1.01157   1.01382   1.02438
 Alpha virt. eigenvalues --    1.02528   1.02609   1.03155   1.03875   1.04126
 Alpha virt. eigenvalues --    1.05487   1.06131   1.06527   1.07191   1.07974
 Alpha virt. eigenvalues --    1.08181   1.08797   1.09538   1.09803   1.10288
 Alpha virt. eigenvalues --    1.11317   1.11498   1.12160   1.13513   1.14361
 Alpha virt. eigenvalues --    1.15277   1.15772   1.16250   1.16626   1.16802
 Alpha virt. eigenvalues --    1.18074   1.18689   1.18855   1.20094   1.20515
 Alpha virt. eigenvalues --    1.21684   1.22347   1.22581   1.23853   1.24740
 Alpha virt. eigenvalues --    1.26439   1.26939   1.27660   1.27824   1.28711
 Alpha virt. eigenvalues --    1.28868   1.29858   1.30467   1.31205   1.31948
 Alpha virt. eigenvalues --    1.32788   1.33645   1.34143   1.34502   1.35195
 Alpha virt. eigenvalues --    1.36053   1.36874   1.37072   1.37624   1.38060
 Alpha virt. eigenvalues --    1.38834   1.40018   1.40324   1.40868   1.41725
 Alpha virt. eigenvalues --    1.42483   1.43164   1.43923   1.44109   1.45333
 Alpha virt. eigenvalues --    1.45579   1.46416   1.46940   1.47125   1.47485
 Alpha virt. eigenvalues --    1.48183   1.48939   1.49379   1.50293   1.51615
 Alpha virt. eigenvalues --    1.51932   1.52812   1.53090   1.53692   1.54838
 Alpha virt. eigenvalues --    1.55465   1.56173   1.56476   1.57103   1.57684
 Alpha virt. eigenvalues --    1.58476   1.59664   1.60357   1.61602   1.61926
 Alpha virt. eigenvalues --    1.62345   1.62977   1.63157   1.63867   1.64793
 Alpha virt. eigenvalues --    1.65356   1.65697   1.65921   1.66462   1.67201
 Alpha virt. eigenvalues --    1.67537   1.68626   1.68822   1.69032   1.69600
 Alpha virt. eigenvalues --    1.69859   1.70764   1.70992   1.71105   1.72108
 Alpha virt. eigenvalues --    1.72228   1.72386   1.73268   1.73378   1.73625
 Alpha virt. eigenvalues --    1.73726   1.73863   1.75068   1.75465   1.75923
 Alpha virt. eigenvalues --    1.76081   1.76295   1.76714   1.76987   1.77769
 Alpha virt. eigenvalues --    1.78389   1.78735   1.79125   1.80168   1.80411
 Alpha virt. eigenvalues --    1.80631   1.81278   1.81510   1.82004   1.82437
 Alpha virt. eigenvalues --    1.82571   1.82746   1.83791   1.84201   1.84792
 Alpha virt. eigenvalues --    1.84957   1.85096   1.85341   1.86112   1.86417
 Alpha virt. eigenvalues --    1.86687   1.87107   1.87677   1.88464   1.88747
 Alpha virt. eigenvalues --    1.89331   1.89721   1.90261   1.90805   1.91333
 Alpha virt. eigenvalues --    1.91584   1.92321   1.92800   1.93150   1.93610
 Alpha virt. eigenvalues --    1.93869   1.94576   1.94769   1.95082   1.95659
 Alpha virt. eigenvalues --    1.96712   1.97048   1.97795   1.98538   1.98946
 Alpha virt. eigenvalues --    1.99632   2.00513   2.00720   2.01477   2.02091
 Alpha virt. eigenvalues --    2.02780   2.03173   2.03643   2.03837   2.04261
 Alpha virt. eigenvalues --    2.04569   2.04964   2.05312   2.05869   2.05925
 Alpha virt. eigenvalues --    2.06480   2.06665   2.07667   2.07876   2.08304
 Alpha virt. eigenvalues --    2.09037   2.09872   2.10995   2.11123   2.11838
 Alpha virt. eigenvalues --    2.12195   2.12873   2.13364   2.13700   2.14920
 Alpha virt. eigenvalues --    2.15092   2.15632   2.16369   2.16509   2.17865
 Alpha virt. eigenvalues --    2.18338   2.18931   2.20687   2.21139   2.21617
 Alpha virt. eigenvalues --    2.22630   2.22912   2.23502   2.24336   2.24925
 Alpha virt. eigenvalues --    2.26094   2.27131   2.27278   2.28406   2.29415
 Alpha virt. eigenvalues --    2.29462   2.29864   2.30042   2.30585   2.31020
 Alpha virt. eigenvalues --    2.31266   2.31444   2.32479   2.33000   2.33749
 Alpha virt. eigenvalues --    2.33918   2.35375   2.36070   2.36276   2.37081
 Alpha virt. eigenvalues --    2.37903   2.39146   2.39534   2.39765   2.39905
 Alpha virt. eigenvalues --    2.40418   2.41275   2.41710   2.42160   2.42401
 Alpha virt. eigenvalues --    2.42614   2.43943   2.46842   2.47369   2.48008
 Alpha virt. eigenvalues --    2.48385   2.49055   2.49878   2.52468   2.52804
 Alpha virt. eigenvalues --    2.53076   2.53595   2.53979   2.55138   2.55928
 Alpha virt. eigenvalues --    2.56486   2.56742   2.57350   2.57716   2.58657
 Alpha virt. eigenvalues --    2.60774   2.61773   2.62488   2.62722   2.64058
 Alpha virt. eigenvalues --    2.64586   2.65801   2.66063   2.66739   2.67699
 Alpha virt. eigenvalues --    2.68647   2.69035   2.69304   2.70148   2.70223
 Alpha virt. eigenvalues --    2.70900   2.72973   2.73495   2.76004   2.76552
 Alpha virt. eigenvalues --    2.77123   2.78663   2.80730   2.81487   2.83407
 Alpha virt. eigenvalues --    2.84220   2.84642   2.86468   2.87586   2.88275
 Alpha virt. eigenvalues --    2.90295   2.90748   2.91525   2.93170   2.94242
 Alpha virt. eigenvalues --    2.95364   2.96456   2.97182   2.97779   3.02146
 Alpha virt. eigenvalues --    3.05448   3.07235   3.09719   3.11561   3.12340
 Alpha virt. eigenvalues --    3.13133   3.61771   3.72456   3.74325   3.80486
 Alpha virt. eigenvalues --    3.81966   3.85500   3.92050   3.93077   3.96081
 Alpha virt. eigenvalues --    3.97184   3.97804   3.99522   4.00807   4.01305
 Alpha virt. eigenvalues --    4.04270   4.08860   4.09897   4.11750   4.12234
 Alpha virt. eigenvalues --    4.14493   4.15171   4.16718   4.18229   4.19154
 Alpha virt. eigenvalues --    4.21058   4.22384   4.23819   4.24780   4.26741
 Alpha virt. eigenvalues --    4.28531   4.29437   4.30852   4.32743   4.34241
 Alpha virt. eigenvalues --    4.34894   4.38754   4.43305   4.44366   4.45531
 Alpha virt. eigenvalues --    4.49347   4.50370   4.51608   4.55800   4.58173
 Alpha virt. eigenvalues --    4.58554   4.60206   4.62717   4.64736
          Condensed to atoms (all electrons):
 Mulliken charges:
               1
     1  N   -0.751655
     2  H    0.419947
     3  H    0.417028
     4  H    0.436035
     5  C   -0.119760
     6  H    0.216080
     7  C    0.649401
     8  C   -0.376629
     9  H    0.187003
    10  H    0.211563
    11  O   -0.533752
    12  C    0.578593
    13  N   -0.738511
    14  H    0.392374
    15  H    0.348905
    16  O   -0.466019
    17  N   -0.584498
    18  H    0.373361
    19  C   -0.081831
    20  H    0.194245
    21  C    0.662697
    22  C   -0.075696
    23  H    0.142957
    24  O   -0.583969
    25  C   -0.271929
    26  H    0.166441
    27  H    0.154525
    28  C   -0.463027
    29  H    0.171492
    30  H    0.165202
    31  H    0.128451
    32  C   -0.468579
    33  H    0.181962
    34  H    0.127926
    35  H    0.151226
    36  N   -0.599321
    37  H    0.369257
    38  C   -0.048160
    39  H    0.174175
    40  C    0.639984
    41  C   -0.447531
    42  H    0.161346
    43  H    0.174638
    44  H    0.179910
    45  O   -0.568454
    46  N   -0.599576
    47  H    0.357051
    48  C   -0.098763
    49  H    0.180130
    50  C    0.609797
    51  C    0.160810
    52  H    0.147223
    53  O   -0.534128
    54  C   -0.488849
    55  H    0.168548
    56  H    0.177596
    57  H    0.153210
    58  O   -0.638690
    59  H    0.416020
    60  N   -0.614431
    61  H    0.368390
    62  C   -0.061958
    63  H    0.203262
    64  C    0.597444
    65  C   -0.040475
    66  H    0.148980
    67  H    0.175032
    68  O   -0.521159
    69  O   -0.630491
    70  H    0.418635
    71  N   -0.621704
    72  H    0.377001
    73  C   -0.229073
    74  H    0.190888
    75  H    0.211418
    76  C    0.619838
    77  O   -0.514592
    78  N   -0.586780
    79  H    0.337394
    80  C   -0.059412
    81  H    0.217842
    82  C    0.591107
    83  C   -0.270352
    84  H    0.125173
    85  H    0.169162
    86  O   -0.450609
    87  C   -0.283278
    88  H    0.150247
    89  H    0.129602
    90  C   -0.272031
    91  H    0.159341
    92  H    0.121559
    93  C   -0.142793
    94  H    0.121035
    95  H    0.139890
    96  N   -0.747881
    97  H    0.319535
    98  H    0.310624
    99  O   -0.581702
   100  H    0.417545
 Sum of Mulliken charges =   1.00000
 Mulliken charges with hydrogens summed into heavy atoms:
               1
     1  N    0.521354
     5  C    0.096320
     7  C    0.649401
     8  C    0.021936
    11  O   -0.533752
    12  C    0.578593
    13  N    0.002768
    16  O   -0.466019
    17  N   -0.211137
    19  C    0.112414
    21  C    0.662697
    22  C    0.067261
    24  O   -0.583969
    25  C    0.049036
    28  C    0.002118
    32  C   -0.007465
    36  N   -0.230064
    38  C    0.126015
    40  C    0.639984
    41  C    0.068362
    45  O   -0.568454
    46  N   -0.242525
    48  C    0.081368
    50  C    0.609797
    51  C    0.308033
    53  O   -0.534128
    54  C    0.010506
    58  O   -0.222671
    60  N   -0.246042
    62  C    0.141304
    64  C    0.597444
    65  C    0.283536
    68  O   -0.521159
    69  O   -0.211856
    71  N   -0.244703
    73  C    0.173232
    76  C    0.619838
    77  O   -0.514592
    78  N   -0.249386
    80  C    0.158430
    82  C    0.591107
    83  C    0.023983
    86  O   -0.450609
    87  C   -0.003429
    90  C    0.008870
    93  C    0.118132
    96  N   -0.117722
    99  O   -0.164157
 Electronic spatial extent (au):  <R**2>=          56971.8750
 Charge=              1.0000 electrons
 Dipole moment (field-independent basis, Debye):
    X=            -31.1791    Y=              4.9184    Z=              9.7644  Tot=             33.0404
 Quadrupole moment (field-independent basis, Debye-Ang):
   XX=           -101.4813   YY=           -269.3647   ZZ=           -111.0080
   XY=            -62.1018   XZ=           -171.6184   YZ=             54.9996
 Traceless Quadrupole moment (field-independent basis, Debye-Ang):
   XX=             59.1367   YY=           -108.7467   ZZ=             49.6100
   XY=            -62.1018   XZ=           -171.6184   YZ=             54.9996
 Octapole moment (field-independent basis, Debye-Ang**2):
  XXX=          -3406.8547  YYY=            577.3269  ZZZ=            323.7175  XYY=           -537.9910
  XXY=            748.1595  XXZ=           1107.4441  XZZ=           -846.7581  YZZ=            279.0070
  YYZ=             74.5289  XYZ=           -227.9244
 Hexadecapole moment (field-independent basis, Debye-Ang**3):
 XXXX=         -36046.9631 YYYY=         -11726.1688 ZZZZ=          -9859.0857 XXXY=           6396.0049
 XXXZ=           1851.2729 YYYX=           9214.9969 YYYZ=          -2878.8005 ZZZX=           3168.0884
 ZZZY=          -1755.8567 XXYY=          -9153.2894 XXZZ=          -2961.4953 YYZZ=          -3615.7083
 XXYZ=           1478.9482 YYXZ=           1953.3475 ZZXY=            501.4170
 N-N= 6.543572353907D+03 E-N=-1.870031244362D+04  KE= 2.396384505010D+03
 Unable to Open any file for archive entry.
 1\1\GINC-VIM-002\SP\RB3LYP\6-31G(d)\C28H52N9O11(1+)\KENGMITH\06-Jun-20
 22\0\\# B3LYP/6-31G* empiricaldispersion=gd3 guess=read geom=check nos
 ymm integral(ultrafinegrid)\\Candidate Structure: Conf:883 Charge calc
  in gas phase\\1,1\N,0,-7.0533096397,2.4910906132,5.7385374653\H,0,-7.
 3131952183,1.7929759416,6.4423737787\H,0,-7.7823438807,3.2086326971,5.
 6990571096\H,0,-6.1074776869,2.9031668576,6.0118507011\C,0,-6.71713815
 79,1.8820547649,4.3918140844\H,0,-7.2273819046,0.9215395107,4.29973754
 55\C,0,-5.1707873338,1.7239771781,4.4837470977\C,0,-7.1316859719,2.859
 2329789,3.2664018782\H,0,-8.2185992187,2.819093249,3.1263905678\H,0,-6
 .8401041069,3.8777698281,3.5387598943\O,0,-4.5881982363,2.4473269019,5
 .3039403382\C,0,-6.3509083175,2.5290187045,1.9792731694\N,0,-6.8127713
 45,1.4622281444,1.2755697579\H,0,-6.220277768,1.1054215674,0.532655691
 7\H,0,-7.7589199991,1.1175964197,1.3511398687\O,0,-5.309205304,3.11348
 94028,1.7341481672\N,0,-4.6210952771,0.8438454098,3.657722934\H,0,-5.1
 987277074,0.3736182899,2.9601288145\C,0,-3.2062215434,0.8723623901,3.2
 618204214\H,0,-2.7869030749,1.8096631765,3.6333428738\C,0,-3.244381972
 5,0.8582089583,1.7215306869\C,0,-2.4127150945,-0.3290185144,3.85057409
 \H,0,-2.4823309703,-0.2041388005,4.9411052078\O,0,-4.13392914,0.230108
 9199,1.1311986042\C,0,-0.9211579285,-0.2992230709,3.4591791847\H,0,-0.
 8066117077,-0.4132424078,2.3753590862\H,0,-0.4571234602,-1.1914690265,
 3.8969860684\C,0,-3.0465200251,-1.6758591354,3.4722323433\H,0,-3.01726
 22918,-1.8409486424,2.3905240597\H,0,-2.5016653003,-2.4924009283,3.956
 2339224\H,0,-4.0922347564,-1.7409896865,3.7934792813\C,0,-0.1322280338
 ,0.9282379342,3.9271553848\H,0,0.9217820626,0.8100222615,3.6601427474\
 H,0,-0.473334957,1.8638951872,3.4654593226\H,0,-0.2004581654,1.0601485
 773,5.0136526846\N,0,-2.2528098234,1.5187484716,1.1148538142\H,0,-1.56
 59305891,2.034553982,1.6527933111\C,0,-2.0277987166,1.5122974535,-0.32
 98408509\H,0,-2.503149135,0.6109552975,-0.7260078716\C,0,-0.5008561006
 ,1.4629343725,-0.4644150645\C,0,-2.6133209244,2.767361272,-0.986640515
 4\H,0,-2.5082751625,2.7187812162,-2.0757418583\H,0,-3.6722990432,2.855
 272548,-0.7274473397\H,0,-2.0864295377,3.6543469951,-0.6229503669\O,0,
 0.1812794928,2.2951128464,0.1476029053\N,0,0.0169485224,0.4788252192,-
 1.2171733104\H,0,-0.5648295386,-0.2190781424,-1.6681862218\C,0,1.44955
 3548,0.2555395267,-1.3224591584\H,0,1.9427405136,1.232326838,-1.380866
 409\C,0,1.670693937,-0.5604126095,-2.6013327291\C,0,2.0063841287,-0.51
 52645852,-0.0743812132\H,0,1.6569012536,-1.552855194,-0.1437147534\O,0
 ,0.8059860705,-1.3344457526,-3.0090051584\C,0,3.5338532283,-0.48210884
 ,-0.005360438\H,0,4.012323445,-0.9952966553,-0.8441672801\H,0,3.855378
 7992,-0.9700930857,0.9186723033\H,0,3.8981994442,0.5530040933,0.018354
 4034\O,0,1.4333406445,-0.0126113198,1.1261221267\H,0,1.4346475525,0.96
 07950492,1.0793307594\N,0,2.8676711821,-0.3900899171,-3.2118392249\H,0
 ,3.6070479551,0.122415639,-2.7392186727\C,0,3.3505022813,-1.3340078742
 ,-4.2031703301\H,0,2.9316170069,-2.3263052808,-3.9891656968\C,0,4.8819
 076307,-1.3968470395,-4.0404966471\C,0,2.8793396728,-0.9500090214,-5.6
 136608912\H,0,3.3529943144,-0.0072052716,-5.9239857305\H,0,1.792685342
 1,-0.8072030243,-5.5738724925\O,0,5.4328024741,-0.8225932393,-3.099042
 4044\O,0,3.2271824245,-2.0310415472,-6.4819761203\H,0,2.9723016224,-1.
 8008580079,-7.3879255086\N,0,5.5552443073,-2.1375914616,-4.9489726451\
 H,0,5.0428729274,-2.4480109603,-5.7703304245\C,0,7.0069208023,-2.24094
 79788,-4.8691460871\H,0,7.3762208288,-2.6560283746,-5.8110752897\H,0,7
 .4551133767,-1.2546259798,-4.7268464057\C,0,7.5252799415,-3.1158040677
 ,-3.7141151464\O,0,8.6577083449,-2.9457823203,-3.2801295698\N,0,6.6652
 203472,-4.0702488434,-3.2727720187\H,0,5.74821672,-4.1282183612,-3.692
 9931516\C,0,6.9604937411,-4.9407039369,-2.1484863019\H,0,8.0334361111,
 -4.8669929552,-1.963849946\C,0,6.6605014289,-6.4011484613,-2.450612973
 4\C,0,6.1801978212,-4.540912104,-0.8672430658\H,0,5.1108407946,-4.7250
 156061,-1.0467525697\H,0,6.4907950003,-5.2223451622,-0.0663877959\O,0,
 7.1093085497,-7.3283485547,-1.8199732374\C,0,6.3888443626,-3.077386935
 1,-0.4575925015\H,0,6.1069986936,-2.4358455882,-1.300035375\H,0,5.6841
 150409,-2.8432534874,0.3524818469\C,0,7.8112504463,-2.7286978021,-0.00
 12389177\H,0,8.5461549148,-3.1332101829,-0.7075543006\H,0,8.0087572283
 ,-3.2019013312,0.9717693829\C,0,8.0522565526,-1.2075432951,0.095401974
 9\H,0,7.2926086438,-0.7527183527,0.7477688877\H,0,9.0191120566,-1.0366
 176574,0.5860341798\N,0,8.0570442249,-0.4735459422,-1.1724919159\H,0,7
 .1403237552,-0.5106221538,-1.6131670341\H,0,8.6860122962,-0.9404737101
 ,-1.8262073797\O,0,5.7622340542,-6.5546440487,-3.4594953898\H,0,5.6042
 108144,-7.5143198496,-3.5410304484\\Version=ES64L-G16RevC.01\HF=-2418.
 558421\RMSD=6.930e-09\Dipole=-14.376648,3.1584207,4.3398193\Quadrupole
 =43.9667007,-80.8504841,36.8837833,-46.1711303,-127.5940882,40.8908712
 \PG=C01 [X(C28H52N9O11)]\\@
 The archive entry for this job was punched.


 IT IS NOT EASY TO DESCRIBE
     THE SEA WITH THE MOUTH

                   -- KOKYU
 Job cpu time:       0 days  0 hours  5 minutes  4.6 seconds.
 Elapsed time:       0 days  0 hours  1 minutes 17.3 seconds.
 File lengths (MBytes):  RWF=    472 Int=      0 D2E=      0 Chk=     72 Scr=     16
 Normal termination of Gaussian 16 at Mon Jun  6 03:55:01 2022.
