 Entering Gaussian System, Link 0=/opt/software/Gaussian/g16-AVX2-C.01/g16/g16
 Input=charge-conf-472.com
 Output=charge-conf-472.log
 Initial command:
 /opt/software/Gaussian/g16-AVX2-C.01/g16/l1.exe "/mnt/gs18/scratch/users/kengmith/Gau-36690.inp" -scrdir="/mnt/gs18/scratch/users/kengmith/"
 Entering Link 1 = /opt/software/Gaussian/g16-AVX2-C.01/g16/l1.exe PID=     36707.
  
 Copyright (c) 1988-2019, Gaussian, Inc.  All Rights Reserved.
  
 This is part of the Gaussian(R) 16 program.  It is based on
 the Gaussian(R) 09 system (copyright 2009, Gaussian, Inc.),
 the Gaussian(R) 03 system (copyright 2003, Gaussian, Inc.),
 the Gaussian(R) 98 system (copyright 1998, Gaussian, Inc.),
 the Gaussian(R) 94 system (copyright 1995, Gaussian, Inc.),
 the Gaussian 92(TM) system (copyright 1992, Gaussian, Inc.),
 the Gaussian 90(TM) system (copyright 1990, Gaussian, Inc.),
 the Gaussian 88(TM) system (copyright 1988, Gaussian, Inc.),
 the Gaussian 86(TM) system (copyright 1986, Carnegie Mellon
 University), and the Gaussian 82(TM) system (copyright 1983,
 Carnegie Mellon University). Gaussian is a federally registered
 trademark of Gaussian, Inc.
  
 This software contains proprietary and confidential information,
 including trade secrets, belonging to Gaussian, Inc.
  
 This software is provided under written license and may be
 used, copied, transmitted, or stored only in accord with that
 written license.
  
 The following legend is applicable only to US Government
 contracts under FAR:
  
                    RESTRICTED RIGHTS LEGEND
  
 Use, reproduction and disclosure by the US Government is
 subject to restrictions as set forth in subparagraphs (a)
 and (c) of the Commercial Computer Software - Restricted
 Rights clause in FAR 52.227-19.
  
 Gaussian, Inc.
 340 Quinnipiac St., Bldg. 40, Wallingford CT 06492
  
  
 ---------------------------------------------------------------
 Warning -- This program may not be used in any manner that
 competes with the business of Gaussian, Inc. or will provide
 assistance to any competitor of Gaussian, Inc.  The licensee
 of this program is prohibited from giving any competitor of
 Gaussian, Inc. access to this program.  By using this program,
 the user acknowledges that Gaussian, Inc. is engaged in the
 business of creating and licensing software in the field of
 computational chemistry and represents and warrants to the
 licensee that it is not a competitor of Gaussian, Inc. and that
 it will not use this program in any manner prohibited above.
 ---------------------------------------------------------------
  

 Cite this work as:
 Gaussian 16, Revision C.01,
 M. J. Frisch, G. W. Trucks, H. B. Schlegel, G. E. Scuseria, 
 M. A. Robb, J. R. Cheeseman, G. Scalmani, V. Barone, 
 G. A. Petersson, H. Nakatsuji, X. Li, M. Caricato, A. V. Marenich, 
 J. Bloino, B. G. Janesko, R. Gomperts, B. Mennucci, H. P. Hratchian, 
 J. V. Ortiz, A. F. Izmaylov, J. L. Sonnenberg, D. Williams-Young, 
 F. Ding, F. Lipparini, F. Egidi, J. Goings, B. Peng, A. Petrone, 
 T. Henderson, D. Ranasinghe, V. G. Zakrzewski, J. Gao, N. Rega, 
 G. Zheng, W. Liang, M. Hada, M. Ehara, K. Toyota, R. Fukuda, 
 J. Hasegawa, M. Ishida, T. Nakajima, Y. Honda, O. Kitao, H. Nakai, 
 T. Vreven, K. Throssell, J. A. Montgomery, Jr., J. E. Peralta, 
 F. Ogliaro, M. J. Bearpark, J. J. Heyd, E. N. Brothers, K. N. Kudin, 
 V. N. Staroverov, T. A. Keith, R. Kobayashi, J. Normand, 
 K. Raghavachari, A. P. Rendell, J. C. Burant, S. S. Iyengar, 
 J. Tomasi, M. Cossi, J. M. Millam, M. Klene, C. Adamo, R. Cammi, 
 J. W. Ochterski, R. L. Martin, K. Morokuma, O. Farkas, 
 J. B. Foresman, and D. J. Fox, Gaussian, Inc., Wallingford CT, 2019.
 
 ******************************************
 Gaussian 16:  ES64L-G16RevC.01  3-Jul-2019
                24-May-2022 
 ******************************************
 %mem=8gb
 %nproc=4
 Will use up to    4 processors via shared memory.
 %chk=conf-472.chk
 -------------------------------------------------------------------
 # B3LYP/6-31G* guess=read geom=check nosymm integral(ultrafinegrid)
 -------------------------------------------------------------------
 1/29=2,38=1,172=1/1;
 2/12=2,15=1,40=1/2;
 3/5=1,6=6,7=1,11=2,14=-4,25=1,30=1,74=-5,75=-5,116=-2/1,2,3;
 4/5=1/1;
 5/5=2,38=6/2;
 6/7=2,8=2,9=2,10=2,28=1/1;
 99/5=1,9=1/99;
 ------------------------------------------------------
 Candidate Structure: Conf:472 Charge calc in gas phase
 ------------------------------------------------------
 Structure from the checkpoint file:  "conf-472.chk"
 Charge =  1 Multiplicity = 1
 Redundant internal coordinates found in file.  (old form).
 N,0,-0.212721679,-2.1704433866,2.4899164193
 H,0,0.4711733224,-1.4760287997,2.0842491491
 H,0,0.0007969726,-2.3887334297,3.4671090735
 H,0,-0.129467786,-3.0215406576,1.9186391635
 C,0,-1.6131769463,-1.5983508356,2.2803127167
 H,0,-1.6791288287,-0.729027026,2.941123804
 C,0,-1.5116592827,-1.2173031043,0.7824656306
 C,0,-2.7002625971,-2.6250424826,2.5832607954
 H,0,-2.5919754081,-3.4736060309,1.899837019
 H,0,-3.6569573216,-2.148643848,2.3360580992
 O,0,-1.3125760312,-2.1277956206,-0.0083713378
 C,0,-2.7330636122,-3.0989700739,4.0489056348
 H,0,-2.8525935107,-2.2586894339,4.7382731909
 H,0,-1.8096575495,-3.6345590613,4.3103305483
 C,0,-3.8912136634,-4.0534529187,4.3066413419
 O,0,-4.7904247591,-3.8559400691,5.0844968814
 O,0,-3.7813561786,-5.1600843937,3.5356674375
 N,0,-1.5075262715,0.1158751585,0.4999585217
 H,0,-1.6384010731,0.7213193952,1.3015668085
 C,0,-0.5866210528,0.6691641885,-0.5018220397
 H,0,-0.7653019573,1.7494973894,-0.5039454634
 C,0,0.8693049351,0.4516092691,0.0314838516
 C,0,-0.8715310742,0.1530410046,-1.9464460297
 H,0,-0.7675815197,-0.9325524358,-1.9633110077
 H,0,-1.9280494457,0.3776121991,-2.1372790399
 O,0,1.1177268499,-0.3226299883,0.9746072735
 C,0,0.0286962938,0.7891956032,-2.9823000355
 C,0,-0.0451812065,2.161990549,-3.2768649727
 H,0,-0.8460991974,2.7653589507,-2.8519996198
 C,0,1.035981994,0.0397158247,-3.6035269338
 H,0,1.0923660004,-1.0318011852,-3.4245665504
 C,0,0.9064519223,2.780471073,-4.0851757084
 H,0,0.8668444744,3.8464509087,-4.2858881193
 C,0,1.9860262326,0.6427508138,-4.4247437315
 H,0,2.7661570376,0.0489375964,-4.8927413438
 O,0,2.9284309455,2.6792875894,-5.3224241982
 C,0,1.9644103259,2.0316308573,-4.6264131351
 N,0,1.8145276922,1.1970754958,-0.5584726945
 H,0,1.541586623,1.7689959081,-1.3529630695
 C,0,3.2536465795,1.1109499694,-0.2733925023
 H,0,3.3889611477,0.3513456552,0.4964125961
 C,0,3.7373983292,2.4328726368,0.3245039815
 C,0,4.0108688994,0.7522119109,-1.5675213926
 H,0,3.6517438234,-0.2318061188,-1.8899139494
 H,0,3.7024706544,1.4532887354,-2.3480456096
 O,0,4.2873766937,2.5540371728,1.3908778522
 C,0,5.5424505607,0.7211249778,-1.4624929266
 H,0,5.8338018009,-0.0387371488,-0.726699173
 H,0,5.926755976,1.6748649263,-1.0731700131
 C,0,6.2141274687,0.405723638,-2.8207203994
 H,0,7.1471496005,-0.139652057,-2.6349527977
 H,0,5.5726386053,-0.2706186595,-3.4009243358
 C,0,6.5880554345,1.6149313527,-3.6871891056
 H,0,7.329627597,2.223787473,-3.1455720193
 H,0,7.0815624165,1.2494527353,-4.594002713
 N,0,5.4329454045,2.4340885716,-4.1249150989
 H,0,5.7794972516,3.1650774772,-4.7484175869
 H,0,5.0508740613,2.9413299041,-3.3255522739
 H,0,3.8117578543,2.2769947389,-5.1125403247
 O,0,3.4870634138,3.4698929543,-0.515016636
 H,0,-4.5486451162,-5.7299642925,3.7380959451
 H,0,3.8115767536,4.2784611442,-0.0731604469
 Recover connectivity data from disk.
                           ----------------------------
                           !    Current Parameters    !
                           ! (Angstroms and Degrees)  !
 --------------------------                            --------------------------
 ! Name  Definition              Value                                          !
 --------------------------------------------------------------------------------
 ! R1    R(1,2)                  1.0557                                         !
 ! R2    R(1,3)                  1.0238                                         !
 ! R3    R(1,4)                  1.0284                                         !
 ! R4    R(1,5)                  1.5273                                         !
 ! R5    R(5,6)                  1.094                                          !
 ! R6    R(5,7)                  1.5489                                         !
 ! R7    R(5,8)                  1.5257                                         !
 ! R8    R(7,11)                 1.2223                                         !
 ! R9    R(7,18)                 1.3628                                         !
 ! R10   R(8,9)                  1.0949                                         !
 ! R11   R(8,10)                 1.097                                          !
 ! R12   R(8,12)                 1.5407                                         !
 ! R13   R(12,13)                1.0934                                         !
 ! R14   R(12,14)                1.099                                          !
 ! R15   R(12,15)                1.5228                                         !
 ! R16   R(15,16)                1.2053                                         !
 ! R17   R(15,17)                1.3532                                         !
 ! R18   R(17,61)                0.977                                          !
 ! R19   R(18,19)                1.013                                          !
 ! R20   R(18,20)                1.4689                                         !
 ! R21   R(20,21)                1.095                                          !
 ! R22   R(20,22)                1.5657                                         !
 ! R23   R(20,23)                1.5603                                         !
 ! R24   R(22,26)                1.2452                                         !
 ! R25   R(22,38)                1.3406                                         !
 ! R26   R(23,24)                1.0907                                         !
 ! R27   R(23,25)                1.0969                                         !
 ! R28   R(23,27)                1.5126                                         !
 ! R29   R(27,28)                1.406                                          !
 ! R30   R(27,30)                1.4008                                         !
 ! R31   R(28,29)                1.0891                                         !
 ! R32   R(28,32)                1.3934                                         !
 ! R33   R(30,31)                1.0878                                         !
 ! R34   R(30,34)                1.3931                                         !
 ! R35   R(32,33)                1.0854                                         !
 ! R36   R(32,37)                1.4046                                         !
 ! R37   R(34,35)                1.0864                                         !
 ! R38   R(34,37)                1.4036                                         !
 ! R39   R(36,37)                1.354                                          !
 ! R40   R(38,39)                1.0163                                         !
 ! R41   R(38,40)                1.4696                                         !
 ! R42   R(40,41)                1.0899                                         !
 ! R43   R(40,42)                1.5294                                         !
 ! R44   R(40,43)                1.5417                                         !
 ! R45   R(42,46)                1.2059                                         !
 ! R46   R(42,60)                1.3575                                         !
 ! R47   R(43,44)                1.096                                          !
 ! R48   R(43,45)                1.0935                                         !
 ! R49   R(43,47)                1.5355                                         !
 ! R50   R(47,48)                1.0971                                         !
 ! R51   R(47,49)                1.0995                                         !
 ! R52   R(47,50)                1.5477                                         !
 ! R53   R(50,51)                1.0966                                         !
 ! R54   R(50,52)                1.098                                          !
 ! R55   R(50,53)                1.5339                                         !
 ! R56   R(53,54)                1.1018                                         !
 ! R57   R(53,55)                1.0952                                         !
 ! R58   R(53,56)                1.4822                                         !
 ! R59   R(56,57)                1.0214                                         !
 ! R60   R(56,58)                1.0209                                         !
 ! R61   R(56,59)                1.9048                                         !
 ! R62   R(60,62)                0.9769                                         !
 ! A1    A(2,1,3)              111.8341                                         !
 ! A2    A(2,1,4)              106.1686                                         !
 ! A3    A(2,1,5)              107.1514                                         !
 ! A4    A(3,1,4)              109.6862                                         !
 ! A5    A(3,1,5)              113.71                                           !
 ! A6    A(4,1,5)              107.9385                                         !
 ! A7    A(1,5,6)              105.6673                                         !
 ! A8    A(1,5,7)               99.4841                                         !
 ! A9    A(1,5,8)              111.9654                                         !
 ! A10   A(6,5,7)              113.1166                                         !
 ! A11   A(6,5,8)              111.8305                                         !
 ! A12   A(7,5,8)              113.8462                                         !
 ! A13   A(5,7,11)             116.9428                                         !
 ! A14   A(5,7,18)             116.1892                                         !
 ! A15   A(11,7,18)            126.4478                                         !
 ! A16   A(5,8,9)              109.0944                                         !
 ! A17   A(5,8,10)             106.5243                                         !
 ! A18   A(5,8,12)             114.2718                                         !
 ! A19   A(9,8,10)             106.3896                                         !
 ! A20   A(9,8,12)             110.9454                                         !
 ! A21   A(10,8,12)            109.2319                                         !
 ! A22   A(8,12,13)            111.4498                                         !
 ! A23   A(8,12,14)            110.9954                                         !
 ! A24   A(8,12,15)            111.7163                                         !
 ! A25   A(13,12,14)           108.4443                                         !
 ! A26   A(13,12,15)           106.9683                                         !
 ! A27   A(14,12,15)           107.0556                                         !
 ! A28   A(12,15,16)           125.0262                                         !
 ! A29   A(12,15,17)           110.7584                                         !
 ! A30   A(16,15,17)           124.2146                                         !
 ! A31   A(15,17,61)           107.1708                                         !
 ! A32   A(7,18,19)            114.8494                                         !
 ! A33   A(7,18,20)            120.7807                                         !
 ! A34   A(19,18,20)           113.2984                                         !
 ! A35   A(18,20,21)           105.7021                                         !
 ! A36   A(18,20,22)           107.3575                                         !
 ! A37   A(18,20,23)           113.101                                          !
 ! A38   A(21,20,22)           106.8269                                         !
 ! A39   A(21,20,23)           107.1432                                         !
 ! A40   A(22,20,23)           116.0528                                         !
 ! A41   A(20,22,26)           121.9969                                         !
 ! A42   A(20,22,38)           115.3707                                         !
 ! A43   A(26,22,38)           122.5732                                         !
 ! A44   A(20,23,24)           109.0356                                         !
 ! A45   A(20,23,25)           105.6194                                         !
 ! A46   A(20,23,27)           112.7211                                         !
 ! A47   A(24,23,25)           107.0315                                         !
 ! A48   A(24,23,27)           110.5659                                         !
 ! A49   A(25,23,27)           111.5925                                         !
 ! A50   A(23,27,28)           121.5222                                         !
 ! A51   A(23,27,30)           120.4393                                         !
 ! A52   A(28,27,30)           117.8576                                         !
 ! A53   A(27,28,29)           119.8586                                         !
 ! A54   A(27,28,32)           121.2683                                         !
 ! A55   A(29,28,32)           118.86                                           !
 ! A56   A(27,30,31)           119.4279                                         !
 ! A57   A(27,30,34)           121.3469                                         !
 ! A58   A(31,30,34)           119.211                                          !
 ! A59   A(28,32,33)           121.216                                          !
 ! A60   A(28,32,37)           120.0862                                         !
 ! A61   A(33,32,37)           118.6724                                         !
 ! A62   A(30,34,35)           120.4685                                         !
 ! A63   A(30,34,37)           120.168                                          !
 ! A64   A(35,34,37)           119.342                                          !
 ! A65   A(32,37,34)           118.9316                                         !
 ! A66   A(32,37,36)           118.642                                          !
 ! A67   A(34,37,36)           122.4262                                         !
 ! A68   A(22,38,39)           117.879                                          !
 ! A69   A(22,38,40)           124.9241                                         !
 ! A70   A(39,38,40)           116.5918                                         !
 ! A71   A(38,40,41)           107.4234                                         !
 ! A72   A(38,40,42)           109.5681                                         !
 ! A73   A(38,40,43)           109.3764                                         !
 ! A74   A(41,40,42)           106.6792                                         !
 ! A75   A(41,40,43)           111.699                                          !
 ! A76   A(42,40,43)           111.9584                                         !
 ! A77   A(40,42,46)           125.2253                                         !
 ! A78   A(40,42,60)           111.1119                                         !
 ! A79   A(46,42,60)           123.6551                                         !
 ! A80   A(40,43,44)           107.1513                                         !
 ! A81   A(40,43,45)           108.1463                                         !
 ! A82   A(40,43,47)           115.9256                                         !
 ! A83   A(44,43,45)           105.8572                                         !
 ! A84   A(44,43,47)           109.1947                                         !
 ! A85   A(45,43,47)           110.0659                                         !
 ! A86   A(43,47,48)           108.9522                                         !
 ! A87   A(43,47,49)           110.8117                                         !
 ! A88   A(43,47,50)           112.1464                                         !
 ! A89   A(48,47,49)           105.6933                                         !
 ! A90   A(48,47,50)           109.4001                                         !
 ! A91   A(49,47,50)           109.6227                                         !
 ! A92   A(47,50,51)           108.7802                                         !
 ! A93   A(47,50,52)           109.6157                                         !
 ! A94   A(47,50,53)           116.1597                                         !
 ! A95   A(51,50,52)           106.276                                          !
 ! A96   A(51,50,53)           106.2811                                         !
 ! A97   A(52,50,53)           109.24                                           !
 ! A98   A(50,53,54)           108.7854                                         !
 ! A99   A(50,53,55)           108.3306                                         !
 ! A100  A(50,53,56)           114.3636                                         !
 ! A101  A(54,53,55)           106.7468                                         !
 ! A102  A(54,53,56)           111.3642                                         !
 ! A103  A(55,53,56)           106.9226                                         !
 ! A104  A(53,56,57)           108.1434                                         !
 ! A105  A(53,56,58)           109.5736                                         !
 ! A106  A(53,56,59)           140.4279                                         !
 ! A107  A(57,56,58)           104.4402                                         !
 ! A108  A(57,56,59)            91.793                                          !
 ! A109  A(58,56,59)            97.3787                                         !
 ! A110  A(42,60,62)           106.9361                                         !
 ! D1    D(2,1,5,6)            -68.9021                                         !
 ! D2    D(2,1,5,7)             48.5017                                         !
 ! D3    D(2,1,5,8)            169.122                                          !
 ! D4    D(3,1,5,6)             55.1987                                         !
 ! D5    D(3,1,5,7)            172.6026                                         !
 ! D6    D(3,1,5,8)            -66.7772                                         !
 ! D7    D(4,1,5,6)            177.1299                                         !
 ! D8    D(4,1,5,7)            -65.4663                                         !
 ! D9    D(4,1,5,8)             55.154                                          !
 ! D10   D(1,5,7,11)            61.893                                          !
 ! D11   D(1,5,7,18)          -111.1538                                         !
 ! D12   D(6,5,7,11)           173.5475                                         !
 ! D13   D(6,5,7,18)             0.5008                                         !
 ! D14   D(8,5,7,11)           -57.3469                                         !
 ! D15   D(8,5,7,18)           129.6063                                         !
 ! D16   D(1,5,8,9)            -61.5359                                         !
 ! D17   D(1,5,8,10)          -176.0023                                         !
 ! D18   D(1,5,8,12)            63.2888                                         !
 ! D19   D(6,5,8,9)           -179.9116                                         !
 ! D20   D(6,5,8,10)            65.622                                          !
 ! D21   D(6,5,8,12)           -55.0869                                         !
 ! D22   D(7,5,8,9)             50.3357                                         !
 ! D23   D(7,5,8,10)           -64.1306                                         !
 ! D24   D(7,5,8,12)           175.1605                                         !
 ! D25   D(5,7,18,19)           -4.1634                                         !
 ! D26   D(5,7,18,20)          137.3914                                         !
 ! D27   D(11,7,18,19)        -176.4533                                         !
 ! D28   D(11,7,18,20)         -34.8985                                         !
 ! D29   D(5,8,12,13)           56.8162                                         !
 ! D30   D(5,8,12,14)          -64.1735                                         !
 ! D31   D(5,8,12,15)          176.4199                                         !
 ! D32   D(9,8,12,13)         -179.3467                                         !
 ! D33   D(9,8,12,14)           59.6637                                         !
 ! D34   D(9,8,12,15)          -59.743                                          !
 ! D35   D(10,8,12,13)         -62.3767                                         !
 ! D36   D(10,8,12,14)         176.6336                                         !
 ! D37   D(10,8,12,15)          57.227                                          !
 ! D38   D(8,12,15,16)        -118.8465                                         !
 ! D39   D(8,12,15,17)          60.8385                                         !
 ! D40   D(13,12,15,16)          3.3661                                         !
 ! D41   D(13,12,15,17)       -176.9488                                         !
 ! D42   D(14,12,15,16)        119.4451                                         !
 ! D43   D(14,12,15,17)        -60.8698                                         !
 ! D44   D(12,15,17,61)       -179.6783                                         !
 ! D45   D(16,15,17,61)          0.0098                                         !
 ! D46   D(7,18,20,21)        -177.9998                                         !
 ! D47   D(7,18,20,22)         -64.2389                                         !
 ! D48   D(7,18,20,23)          65.077                                          !
 ! D49   D(19,18,20,21)        -35.9002                                         !
 ! D50   D(19,18,20,22)         77.8607                                         !
 ! D51   D(19,18,20,23)       -152.8234                                         !
 ! D52   D(18,20,22,26)         14.4877                                         !
 ! D53   D(18,20,22,38)       -162.7831                                         !
 ! D54   D(21,20,22,26)        127.4895                                         !
 ! D55   D(21,20,22,38)        -49.7813                                         !
 ! D56   D(23,20,22,26)       -113.1287                                         !
 ! D57   D(23,20,22,38)         69.6005                                         !
 ! D58   D(18,20,23,24)        -60.166                                          !
 ! D59   D(18,20,23,25)         54.5537                                         !
 ! D60   D(18,20,23,27)        176.649                                          !
 ! D61   D(21,20,23,24)       -176.2371                                         !
 ! D62   D(21,20,23,25)        -61.5174                                         !
 ! D63   D(21,20,23,27)         60.5779                                         !
 ! D64   D(22,20,23,24)         64.5533                                         !
 ! D65   D(22,20,23,25)        179.273                                          !
 ! D66   D(22,20,23,27)        -58.6317                                         !
 ! D67   D(20,22,38,39)         -5.8162                                         !
 ! D68   D(20,22,38,40)       -176.5684                                         !
 ! D69   D(26,22,38,39)        176.9304                                         !
 ! D70   D(26,22,38,40)          6.1782                                         !
 ! D71   D(20,23,27,28)        -65.8774                                         !
 ! D72   D(20,23,27,30)        109.1287                                         !
 ! D73   D(24,23,27,28)        171.794                                          !
 ! D74   D(24,23,27,30)        -13.1999                                         !
 ! D75   D(25,23,27,28)         52.7856                                         !
 ! D76   D(25,23,27,30)       -132.2083                                         !
 ! D77   D(23,27,28,29)         -7.9774                                         !
 ! D78   D(23,27,28,32)        170.6893                                         !
 ! D79   D(30,27,28,29)        176.8923                                         !
 ! D80   D(30,27,28,32)         -4.441                                          !
 ! D81   D(23,27,30,31)          7.2122                                         !
 ! D82   D(23,27,30,34)       -171.4088                                         !
 ! D83   D(28,27,30,31)       -177.6024                                         !
 ! D84   D(28,27,30,34)          3.7767                                         !
 ! D85   D(27,28,32,33)       -177.9961                                         !
 ! D86   D(27,28,32,37)          0.1468                                         !
 ! D87   D(29,28,32,33)          0.6836                                         !
 ! D88   D(29,28,32,37)        178.8265                                         !
 ! D89   D(27,30,34,35)        179.4798                                         !
 ! D90   D(27,30,34,37)          1.1808                                         !
 ! D91   D(31,30,34,35)          0.8559                                         !
 ! D92   D(31,30,34,37)       -177.4431                                         !
 ! D93   D(28,32,37,34)          4.8632                                         !
 ! D94   D(28,32,37,36)       -175.0089                                         !
 ! D95   D(33,32,37,34)       -176.9469                                         !
 ! D96   D(33,32,37,36)          3.181                                          !
 ! D97   D(30,34,37,32)         -5.5235                                         !
 ! D98   D(30,34,37,36)        174.3435                                         !
 ! D99   D(35,34,37,32)        176.1583                                         !
 ! D100  D(35,34,37,36)         -3.9746                                         !
 ! D101  D(22,38,40,41)         -0.5813                                         !
 ! D102  D(22,38,40,42)       -116.1                                            !
 ! D103  D(22,38,40,43)        120.828                                          !
 ! D104  D(39,38,40,41)       -171.4407                                         !
 ! D105  D(39,38,40,42)         73.0406                                         !
 ! D106  D(39,38,40,43)        -50.0314                                         !
 ! D107  D(38,40,42,46)        122.9858                                         !
 ! D108  D(38,40,42,60)        -57.9885                                         !
 ! D109  D(41,40,42,46)          6.9939                                         !
 ! D110  D(41,40,42,60)       -173.9803                                         !
 ! D111  D(43,40,42,46)       -115.4829                                         !
 ! D112  D(43,40,42,60)         63.5428                                         !
 ! D113  D(38,40,43,44)        -62.0021                                         !
 ! D114  D(38,40,43,45)         51.7058                                         !
 ! D115  D(38,40,43,47)        175.8158                                         !
 ! D116  D(41,40,43,44)         56.7855                                         !
 ! D117  D(41,40,43,45)        170.4934                                         !
 ! D118  D(41,40,43,47)        -65.3966                                         !
 ! D119  D(42,40,43,44)        176.3564                                         !
 ! D120  D(42,40,43,45)        -69.9357                                         !
 ! D121  D(42,40,43,47)         54.1743                                         !
 ! D122  D(40,42,60,62)        179.5603                                         !
 ! D123  D(46,42,60,62)         -1.3958                                         !
 ! D124  D(40,43,47,48)         60.9244                                         !
 ! D125  D(40,43,47,49)        -54.9549                                         !
 ! D126  D(40,43,47,50)       -177.8145                                         !
 ! D127  D(44,43,47,48)        -60.1689                                         !
 ! D128  D(44,43,47,49)       -176.0482                                         !
 ! D129  D(44,43,47,50)         61.0922                                         !
 ! D130  D(45,43,47,48)       -175.966                                          !
 ! D131  D(45,43,47,49)         68.1546                                         !
 ! D132  D(45,43,47,50)        -54.705                                          !
 ! D133  D(43,47,50,51)       -148.6614                                         !
 ! D134  D(43,47,50,52)        -32.8475                                         !
 ! D135  D(43,47,50,53)         91.5413                                         !
 ! D136  D(48,47,50,51)        -27.6583                                         !
 ! D137  D(48,47,50,52)         88.1557                                         !
 ! D138  D(48,47,50,53)       -147.4555                                         !
 ! D139  D(49,47,50,51)         87.8096                                         !
 ! D140  D(49,47,50,52)       -156.3764                                         !
 ! D141  D(49,47,50,53)        -31.9876                                         !
 ! D142  D(47,50,53,54)         62.3853                                         !
 ! D143  D(47,50,53,55)        178.0637                                         !
 ! D144  D(47,50,53,56)        -62.8156                                         !
 ! D145  D(51,50,53,54)        -58.754                                          !
 ! D146  D(51,50,53,55)         56.9244                                         !
 ! D147  D(51,50,53,56)        176.0451                                         !
 ! D148  D(52,50,53,54)       -173.033                                          !
 ! D149  D(52,50,53,55)        -57.3546                                         !
 ! D150  D(52,50,53,56)         61.7661                                         !
 ! D151  D(50,53,56,57)       -175.776                                          !
 ! D152  D(50,53,56,58)         70.9564                                         !
 ! D153  D(50,53,56,59)        -59.1487                                         !
 ! D154  D(54,53,56,57)         60.3937                                         !
 ! D155  D(54,53,56,58)        -52.8739                                         !
 ! D156  D(54,53,56,59)        177.021                                          !
 ! D157  D(55,53,56,57)        -55.865                                          !
 ! D158  D(55,53,56,58)       -169.1326                                         !
 ! D159  D(55,53,56,59)         60.7623                                         !
 --------------------------------------------------------------------------------
 Symmetry turned off by external request.
 Stoichiometry    C20H31N4O7(1+)
 Framework group  C1[X(C20H31N4O7)]
 Deg. of freedom   180
 Full point group                 C1      NOp   1
                          Input orientation:                          
 ---------------------------------------------------------------------
 Center     Atomic      Atomic             Coordinates (Angstroms)
 Number     Number       Type             X           Y           Z
 ---------------------------------------------------------------------
      1          7           0       -0.212722   -2.170443    2.489916
      2          1           0        0.471173   -1.476029    2.084249
      3          1           0        0.000797   -2.388733    3.467109
      4          1           0       -0.129468   -3.021541    1.918639
      5          6           0       -1.613177   -1.598351    2.280313
      6          1           0       -1.679129   -0.729027    2.941124
      7          6           0       -1.511659   -1.217303    0.782466
      8          6           0       -2.700263   -2.625042    2.583261
      9          1           0       -2.591975   -3.473606    1.899837
     10          1           0       -3.656957   -2.148644    2.336058
     11          8           0       -1.312576   -2.127796   -0.008371
     12          6           0       -2.733064   -3.098970    4.048906
     13          1           0       -2.852594   -2.258689    4.738273
     14          1           0       -1.809658   -3.634559    4.310331
     15          6           0       -3.891214   -4.053453    4.306641
     16          8           0       -4.790425   -3.855940    5.084497
     17          8           0       -3.781356   -5.160084    3.535667
     18          7           0       -1.507526    0.115875    0.499959
     19          1           0       -1.638401    0.721319    1.301567
     20          6           0       -0.586621    0.669164   -0.501822
     21          1           0       -0.765302    1.749497   -0.503945
     22          6           0        0.869305    0.451609    0.031484
     23          6           0       -0.871531    0.153041   -1.946446
     24          1           0       -0.767582   -0.932552   -1.963311
     25          1           0       -1.928049    0.377612   -2.137279
     26          8           0        1.117727   -0.322630    0.974607
     27          6           0        0.028696    0.789196   -2.982300
     28          6           0       -0.045181    2.161991   -3.276865
     29          1           0       -0.846099    2.765359   -2.852000
     30          6           0        1.035982    0.039716   -3.603527
     31          1           0        1.092366   -1.031801   -3.424567
     32          6           0        0.906452    2.780471   -4.085176
     33          1           0        0.866844    3.846451   -4.285888
     34          6           0        1.986026    0.642751   -4.424744
     35          1           0        2.766157    0.048938   -4.892741
     36          8           0        2.928431    2.679288   -5.322424
     37          6           0        1.964410    2.031631   -4.626413
     38          7           0        1.814528    1.197075   -0.558473
     39          1           0        1.541587    1.768996   -1.352963
     40          6           0        3.253647    1.110950   -0.273393
     41          1           0        3.388961    0.351346    0.496413
     42          6           0        3.737398    2.432873    0.324504
     43          6           0        4.010869    0.752212   -1.567521
     44          1           0        3.651744   -0.231806   -1.889914
     45          1           0        3.702471    1.453289   -2.348046
     46          8           0        4.287377    2.554037    1.390878
     47          6           0        5.542451    0.721125   -1.462493
     48          1           0        5.833802   -0.038737   -0.726699
     49          1           0        5.926756    1.674865   -1.073170
     50          6           0        6.214127    0.405724   -2.820720
     51          1           0        7.147150   -0.139652   -2.634953
     52          1           0        5.572639   -0.270619   -3.400924
     53          6           0        6.588055    1.614931   -3.687189
     54          1           0        7.329628    2.223787   -3.145572
     55          1           0        7.081562    1.249453   -4.594003
     56          7           0        5.432945    2.434089   -4.124915
     57          1           0        5.779497    3.165077   -4.748418
     58          1           0        5.050874    2.941330   -3.325552
     59          1           0        3.811758    2.276995   -5.112540
     60          8           0        3.487063    3.469893   -0.515017
     61          1           0       -4.548645   -5.729964    3.738096
     62          1           0        3.811577    4.278461   -0.073160
 ---------------------------------------------------------------------
 Rotational constants (GHZ):           0.2724302           0.0573730           0.0526040
 Standard basis: 6-31G(d) (6D, 7F)
   527 basis functions,   992 primitive gaussians,   527 cartesian basis functions
   117 alpha electrons      117 beta electrons
       nuclear repulsion energy      3229.7351578921 Hartrees.
 NAtoms=   62 NActive=   62 NUniq=   62 SFac= 1.00D+00 NAtFMM=   60 NAOKFM=T Big=T
 Integral buffers will be    131072 words long.
 Raffenetti 2 integral format.
 Two-electron integral symmetry is turned off.
 One-electron integrals computed using PRISM.
 NBasis=   527 RedAO= T EigKep=  4.36D-04  NBF=   527
 NBsUse=   527 1.00D-06 EigRej= -1.00D+00 NBFU=   527
 Initial guess from the checkpoint file:  "conf-472.chk"
 B after Tr=     0.000000    0.000000    0.000000
         Rot=    1.000000    0.000000    0.000000    0.000000 Ang=   0.00 deg.
 Requested convergence on RMS density matrix=1.00D-08 within 128 cycles.
 Requested convergence on MAX density matrix=1.00D-06.
 Requested convergence on             energy=1.00D-06.
 No special actions if energy rises.
 SCF Done:  E(RB3LYP) =  -1526.20298239     A.U. after    3 cycles
            NFock=  3  Conv=0.79D-09     -V/T= 2.0093

 **********************************************************************

            Population analysis using the SCF Density.

 **********************************************************************

 Alpha  occ. eigenvalues --  -19.29982 -19.29785 -19.26537 -19.25975 -19.24205
 Alpha  occ. eigenvalues --  -19.24115 -19.22873 -14.59950 -14.50229 -14.48872
 Alpha  occ. eigenvalues --  -14.42115 -10.43874 -10.42643 -10.42535 -10.42176
 Alpha  occ. eigenvalues --  -10.41050 -10.36960 -10.34626 -10.34095 -10.33130
 Alpha  occ. eigenvalues --  -10.32728 -10.29851 -10.29735 -10.28804 -10.28294
 Alpha  occ. eigenvalues --  -10.28076 -10.27863 -10.27808 -10.27026 -10.27013
 Alpha  occ. eigenvalues --  -10.26976  -1.20682  -1.20624  -1.19271  -1.16804
 Alpha  occ. eigenvalues --   -1.14129  -1.11833  -1.11830  -1.11530  -1.06832
 Alpha  occ. eigenvalues --   -1.05337  -0.97833  -0.95023  -0.94247  -0.91272
 Alpha  occ. eigenvalues --   -0.89346  -0.87118  -0.85434  -0.83264  -0.82536
 Alpha  occ. eigenvalues --   -0.79244  -0.78394  -0.76160  -0.74872  -0.73742
 Alpha  occ. eigenvalues --   -0.72874  -0.71982  -0.71398  -0.70726  -0.70378
 Alpha  occ. eigenvalues --   -0.69736  -0.67243  -0.66608  -0.66240  -0.63884
 Alpha  occ. eigenvalues --   -0.63633  -0.61841  -0.61615  -0.60437  -0.59649
 Alpha  occ. eigenvalues --   -0.59081  -0.58271  -0.58158  -0.57902  -0.57275
 Alpha  occ. eigenvalues --   -0.56974  -0.56190  -0.55570  -0.55276  -0.55117
 Alpha  occ. eigenvalues --   -0.54764  -0.54547  -0.54243  -0.53684  -0.52490
 Alpha  occ. eigenvalues --   -0.51724  -0.51086  -0.50817  -0.50609  -0.50412
 Alpha  occ. eigenvalues --   -0.49709  -0.49571  -0.49233  -0.49107  -0.48744
 Alpha  occ. eigenvalues --   -0.48668  -0.47636  -0.46701  -0.46178  -0.45439
 Alpha  occ. eigenvalues --   -0.43786  -0.43343  -0.42779  -0.42162  -0.41978
 Alpha  occ. eigenvalues --   -0.41927  -0.41465  -0.41165  -0.40214  -0.39763
 Alpha  occ. eigenvalues --   -0.38965  -0.38490  -0.37537  -0.36274  -0.34691
 Alpha  occ. eigenvalues --   -0.33853  -0.30100
 Alpha virt. eigenvalues --   -0.14503  -0.11423  -0.10871  -0.09506  -0.09145
 Alpha virt. eigenvalues --   -0.08585  -0.07978  -0.06760  -0.04462  -0.03471
 Alpha virt. eigenvalues --   -0.02386  -0.02369  -0.01247  -0.00747   0.00177
 Alpha virt. eigenvalues --    0.00303   0.00762   0.01659   0.01982   0.02822
 Alpha virt. eigenvalues --    0.03165   0.03575   0.03695   0.03933   0.04626
 Alpha virt. eigenvalues --    0.05073   0.05149   0.05742   0.06508   0.06699
 Alpha virt. eigenvalues --    0.07023   0.07390   0.07935   0.08344   0.08652
 Alpha virt. eigenvalues --    0.09259   0.09599   0.09891   0.10393   0.10585
 Alpha virt. eigenvalues --    0.11254   0.11657   0.12315   0.12375   0.12559
 Alpha virt. eigenvalues --    0.13100   0.13568   0.13930   0.14804   0.15717
 Alpha virt. eigenvalues --    0.16339   0.16780   0.18555   0.18994   0.19607
 Alpha virt. eigenvalues --    0.20160   0.21628   0.22918   0.23530   0.24519
 Alpha virt. eigenvalues --    0.24759   0.25653   0.26509   0.27286   0.27833
 Alpha virt. eigenvalues --    0.29173   0.30855   0.34760   0.36539   0.37376
 Alpha virt. eigenvalues --    0.38757   0.39403   0.40281   0.40625   0.41246
 Alpha virt. eigenvalues --    0.42321   0.42682   0.43009   0.43358   0.44437
 Alpha virt. eigenvalues --    0.44785   0.45245   0.45744   0.46145   0.46349
 Alpha virt. eigenvalues --    0.46863   0.46999   0.48121   0.48600   0.49267
 Alpha virt. eigenvalues --    0.49752   0.50685   0.50883   0.51527   0.52003
 Alpha virt. eigenvalues --    0.52642   0.53176   0.53338   0.53644   0.54286
 Alpha virt. eigenvalues --    0.54466   0.55192   0.55627   0.56679   0.56915
 Alpha virt. eigenvalues --    0.57299   0.57746   0.58351   0.58775   0.59845
 Alpha virt. eigenvalues --    0.59994   0.60954   0.61094   0.63033   0.63448
 Alpha virt. eigenvalues --    0.63907   0.64154   0.65216   0.66288   0.66497
 Alpha virt. eigenvalues --    0.66865   0.67443   0.67510   0.68189   0.68938
 Alpha virt. eigenvalues --    0.69116   0.69465   0.70330   0.71022   0.71654
 Alpha virt. eigenvalues --    0.71999   0.72523   0.72802   0.73552   0.73866
 Alpha virt. eigenvalues --    0.74771   0.75155   0.75619   0.75840   0.76025
 Alpha virt. eigenvalues --    0.76577   0.76963   0.77381   0.78180   0.78351
 Alpha virt. eigenvalues --    0.79013   0.79556   0.79941   0.80421   0.80824
 Alpha virt. eigenvalues --    0.81386   0.81581   0.82177   0.82644   0.83001
 Alpha virt. eigenvalues --    0.83530   0.84262   0.84554   0.85283   0.85858
 Alpha virt. eigenvalues --    0.86061   0.86793   0.87362   0.87844   0.88188
 Alpha virt. eigenvalues --    0.89066   0.89302   0.90605   0.90843   0.91943
 Alpha virt. eigenvalues --    0.92321   0.93350   0.93850   0.94261   0.94732
 Alpha virt. eigenvalues --    0.95524   0.97274   0.97375   0.97528   0.99468
 Alpha virt. eigenvalues --    0.99784   1.00829   1.01925   1.03046   1.03877
 Alpha virt. eigenvalues --    1.04716   1.05358   1.06194   1.07345   1.07723
 Alpha virt. eigenvalues --    1.08937   1.11153   1.11551   1.12303   1.13635
 Alpha virt. eigenvalues --    1.14764   1.15184   1.16691   1.16986   1.19151
 Alpha virt. eigenvalues --    1.19614   1.20969   1.21327   1.22949   1.23426
 Alpha virt. eigenvalues --    1.25998   1.26965   1.27926   1.29567   1.30742
 Alpha virt. eigenvalues --    1.31270   1.31668   1.33540   1.34279   1.34857
 Alpha virt. eigenvalues --    1.36679   1.37310   1.37812   1.38842   1.39173
 Alpha virt. eigenvalues --    1.39699   1.41138   1.41272   1.43229   1.43517
 Alpha virt. eigenvalues --    1.43908   1.45317   1.45838   1.46828   1.48250
 Alpha virt. eigenvalues --    1.48715   1.50767   1.52734   1.54127   1.54715
 Alpha virt. eigenvalues --    1.55484   1.57800   1.58299   1.58857   1.59833
 Alpha virt. eigenvalues --    1.60381   1.61495   1.62268   1.62553   1.62951
 Alpha virt. eigenvalues --    1.63880   1.64311   1.65265   1.66643   1.67441
 Alpha virt. eigenvalues --    1.67919   1.68942   1.69515   1.70326   1.70386
 Alpha virt. eigenvalues --    1.71009   1.71600   1.72117   1.72574   1.73180
 Alpha virt. eigenvalues --    1.73685   1.73956   1.74809   1.75280   1.76122
 Alpha virt. eigenvalues --    1.76457   1.77763   1.79322   1.79742   1.80703
 Alpha virt. eigenvalues --    1.81146   1.81674   1.82166   1.83006   1.84483
 Alpha virt. eigenvalues --    1.84790   1.85500   1.85756   1.86609   1.87993
 Alpha virt. eigenvalues --    1.88394   1.88919   1.89246   1.90473   1.91521
 Alpha virt. eigenvalues --    1.91891   1.93133   1.93602   1.94069   1.94993
 Alpha virt. eigenvalues --    1.96362   1.96924   1.98174   1.98979   1.99326
 Alpha virt. eigenvalues --    2.00409   2.00885   2.01726   2.03793   2.04492
 Alpha virt. eigenvalues --    2.05424   2.06365   2.07880   2.08279   2.09261
 Alpha virt. eigenvalues --    2.11175   2.14796   2.15429   2.15584   2.17575
 Alpha virt. eigenvalues --    2.18311   2.19155   2.20090   2.21002   2.21271
 Alpha virt. eigenvalues --    2.22339   2.23168   2.24492   2.25014   2.25442
 Alpha virt. eigenvalues --    2.26605   2.27619   2.28119   2.29029   2.29398
 Alpha virt. eigenvalues --    2.30436   2.31309   2.32534   2.34505   2.35991
 Alpha virt. eigenvalues --    2.36345   2.36881   2.38124   2.39353   2.40113
 Alpha virt. eigenvalues --    2.40584   2.42292   2.44500   2.46238   2.47956
 Alpha virt. eigenvalues --    2.48982   2.49814   2.51125   2.51795   2.52894
 Alpha virt. eigenvalues --    2.54250   2.54875   2.56399   2.56763   2.57145
 Alpha virt. eigenvalues --    2.58980   2.59146   2.59426   2.62369   2.62619
 Alpha virt. eigenvalues --    2.64004   2.64847   2.66237   2.67859   2.70650
 Alpha virt. eigenvalues --    2.71910   2.72320   2.73523   2.76483   2.77690
 Alpha virt. eigenvalues --    2.79406   2.82155   2.85059   2.86717   2.87137
 Alpha virt. eigenvalues --    2.89194   2.90286   2.90706   2.97893   2.98580
 Alpha virt. eigenvalues --    2.99398   3.03645   3.05519   3.32254   3.66778
 Alpha virt. eigenvalues --    3.70862   3.72940   3.77331   3.83507   3.94227
 Alpha virt. eigenvalues --    3.96104   3.97764   4.01945   4.02346   4.07772
 Alpha virt. eigenvalues --    4.08242   4.10187   4.12016   4.16425   4.18590
 Alpha virt. eigenvalues --    4.22392   4.22753   4.23682   4.26116   4.26909
 Alpha virt. eigenvalues --    4.31729   4.38716   4.39744   4.41384   4.42273
 Alpha virt. eigenvalues --    4.48426   4.50812   4.52823   4.57154   4.67844
          Condensed to atoms (all electrons):
 Mulliken charges:
               1
     1  N   -0.759353
     2  H    0.459080
     3  H    0.409004
     4  H    0.417523
     5  C   -0.114504
     6  H    0.194799
     7  C    0.617717
     8  C   -0.287917
     9  H    0.212434
    10  H    0.204810
    11  O   -0.488977
    12  C   -0.365199
    13  H    0.194518
    14  H    0.161083
    15  C    0.576108
    16  O   -0.420297
    17  O   -0.559626
    18  N   -0.568292
    19  H    0.344368
    20  C   -0.107278
    21  H    0.187590
    22  C    0.648587
    23  C   -0.349863
    24  H    0.202276
    25  H    0.180774
    26  O   -0.588284
    27  C    0.126397
    28  C   -0.222717
    29  H    0.134987
    30  C   -0.184985
    31  H    0.138015
    32  C   -0.155835
    33  H    0.156617
    34  C   -0.185129
    35  H    0.148711
    36  O   -0.675785
    37  C    0.350614
    38  N   -0.590825
    39  H    0.376781
    40  C   -0.058639
    41  H    0.199108
    42  C    0.589682
    43  C   -0.283784
    44  H    0.161110
    45  H    0.169963
    46  O   -0.436954
    47  C   -0.285205
    48  H    0.155500
    49  H    0.148537
    50  C   -0.261632
    51  H    0.157934
    52  H    0.147305
    53  C   -0.147700
    54  H    0.141636
    55  H    0.166301
    56  N   -0.756681
    57  H    0.332946
    58  H    0.320225
    59  H    0.438065
    60  O   -0.574279
    61  H    0.431956
    62  H    0.426675
 Sum of Mulliken charges =   1.00000
 Mulliken charges with hydrogens summed into heavy atoms:
               1
     1  N    0.526254
     5  C    0.080295
     7  C    0.617717
     8  C    0.129327
    11  O   -0.488977
    12  C   -0.009598
    15  C    0.576108
    16  O   -0.420297
    17  O   -0.127670
    18  N   -0.223924
    20  C    0.080312
    22  C    0.648587
    23  C    0.033188
    26  O   -0.588284
    27  C    0.126397
    28  C   -0.087730
    30  C   -0.046970
    32  C    0.000782
    34  C   -0.036419
    36  O   -0.237720
    37  C    0.350614
    38  N   -0.214044
    40  C    0.140469
    42  C    0.589682
    43  C    0.047290
    46  O   -0.436954
    47  C    0.018832
    50  C    0.043606
    53  C    0.160238
    56  N   -0.103509
    60  O   -0.147604
 Electronic spatial extent (au):  <R**2>=          20970.8733
 Charge=              1.0000 electrons
 Dipole moment (field-independent basis, Debye):
    X=              4.0566    Y=             -2.3791    Z=              4.6683  Tot=              6.6264
 Quadrupole moment (field-independent basis, Debye-Ang):
   XX=           -129.9191   YY=           -132.6568   ZZ=           -160.2384
   XY=             22.1893   XZ=            -31.7377   YZ=            -29.1263
 Traceless Quadrupole moment (field-independent basis, Debye-Ang):
   XX=             11.0190   YY=              8.2813   ZZ=            -19.3003
   XY=             22.1893   XZ=            -31.7377   YZ=            -29.1263
 Octapole moment (field-independent basis, Debye-Ang**2):
  XXX=           -278.9588  YYY=           -106.7589  ZZZ=            372.1932  XYY=           -187.5375
  XXY=             42.1156  XXZ=           -111.8552  XZZ=            -85.8612  YZZ=            -84.5128
  YYZ=            179.8147  XYZ=            -40.0083
 Hexadecapole moment (field-independent basis, Debye-Ang**3):
 XXXX=          -9918.0058 YYYY=          -4164.7520 ZZZZ=          -9866.2436 XXXY=          -2041.4560
 XXXZ=           2443.3940 YYYX=          -1887.1908 YYYZ=           2015.2025 ZZZX=           3526.1587
 ZZZY=           2704.0597 XXYY=          -2053.1242 XXZZ=          -3268.9042 YYZZ=          -2215.2873
 XXYZ=            433.6261 YYXZ=            761.9089 ZZXY=           -935.0620
 N-N= 3.229735157892D+03 E-N=-9.992912438047D+03  KE= 1.512142509635D+03
 Unable to Open any file for archive entry.
 1\1\GINC-VIM-001\SP\RB3LYP\6-31G(d)\C20H31N4O7(1+)\KENGMITH\24-May-202
 2\0\\# B3LYP/6-31G* guess=read geom=check nosymm integral(ultrafinegri
 d)\\Candidate Structure: Conf:472 Charge calc in gas phase\\1,1\N,0,-0
 .212721679,-2.1704433866,2.4899164193\H,0,0.4711733224,-1.4760287997,2
 .0842491491\H,0,0.0007969726,-2.3887334297,3.4671090735\H,0,-0.1294677
 86,-3.0215406576,1.9186391635\C,0,-1.6131769463,-1.5983508356,2.280312
 7167\H,0,-1.6791288287,-0.729027026,2.941123804\C,0,-1.5116592827,-1.2
 173031043,0.7824656306\C,0,-2.7002625971,-2.6250424826,2.5832607954\H,
 0,-2.5919754081,-3.4736060309,1.899837019\H,0,-3.6569573216,-2.1486438
 48,2.3360580992\O,0,-1.3125760312,-2.1277956206,-0.0083713378\C,0,-2.7
 330636122,-3.0989700739,4.0489056348\H,0,-2.8525935107,-2.2586894339,4
 .7382731909\H,0,-1.8096575495,-3.6345590613,4.3103305483\C,0,-3.891213
 6634,-4.0534529187,4.3066413419\O,0,-4.7904247591,-3.8559400691,5.0844
 968814\O,0,-3.7813561786,-5.1600843937,3.5356674375\N,0,-1.5075262715,
 0.1158751585,0.4999585217\H,0,-1.6384010731,0.7213193952,1.3015668085\
 C,0,-0.5866210528,0.6691641885,-0.5018220397\H,0,-0.7653019573,1.74949
 73894,-0.5039454634\C,0,0.8693049351,0.4516092691,0.0314838516\C,0,-0.
 8715310742,0.1530410046,-1.9464460297\H,0,-0.7675815197,-0.9325524358,
 -1.9633110077\H,0,-1.9280494457,0.3776121991,-2.1372790399\O,0,1.11772
 68499,-0.3226299883,0.9746072735\C,0,0.0286962938,0.7891956032,-2.9823
 000355\C,0,-0.0451812065,2.161990549,-3.2768649727\H,0,-0.8460991974,2
 .7653589507,-2.8519996198\C,0,1.035981994,0.0397158247,-3.6035269338\H
 ,0,1.0923660004,-1.0318011852,-3.4245665504\C,0,0.9064519223,2.7804710
 73,-4.0851757084\H,0,0.8668444744,3.8464509087,-4.2858881193\C,0,1.986
 0262326,0.6427508138,-4.4247437315\H,0,2.7661570376,0.0489375964,-4.89
 27413438\O,0,2.9284309455,2.6792875894,-5.3224241982\C,0,1.9644103259,
 2.0316308573,-4.6264131351\N,0,1.8145276922,1.1970754958,-0.5584726945
 \H,0,1.541586623,1.7689959081,-1.3529630695\C,0,3.2536465795,1.1109499
 694,-0.2733925023\H,0,3.3889611477,0.3513456552,0.4964125961\C,0,3.737
 3983292,2.4328726368,0.3245039815\C,0,4.0108688994,0.7522119109,-1.567
 5213926\H,0,3.6517438234,-0.2318061188,-1.8899139494\H,0,3.7024706544,
 1.4532887354,-2.3480456096\O,0,4.2873766937,2.5540371728,1.3908778522\
 C,0,5.5424505607,0.7211249778,-1.4624929266\H,0,5.8338018009,-0.038737
 1488,-0.726699173\H,0,5.926755976,1.6748649263,-1.0731700131\C,0,6.214
 1274687,0.405723638,-2.8207203994\H,0,7.1471496005,-0.139652057,-2.634
 9527977\H,0,5.5726386053,-0.2706186595,-3.4009243358\C,0,6.5880554345,
 1.6149313527,-3.6871891056\H,0,7.329627597,2.223787473,-3.1455720193\H
 ,0,7.0815624165,1.2494527353,-4.594002713\N,0,5.4329454045,2.434088571
 6,-4.1249150989\H,0,5.7794972516,3.1650774772,-4.7484175869\H,0,5.0508
 740613,2.9413299041,-3.3255522739\H,0,3.8117578543,2.2769947389,-5.112
 5403247\O,0,3.4870634138,3.4698929543,-0.515016636\H,0,-4.5486451162,-
 5.7299642925,3.7380959451\H,0,3.8115767536,4.2784611442,-0.0731604469\
 \Version=ES64L-G16RevC.01\HF=-1526.2029824\RMSD=7.885e-10\Dipole=-0.32
 51256,-1.0751519,2.8128298\Quadrupole=8.1923422,6.1569285,-14.3492707,
 16.4971637,-23.5961938,-21.6547245\PG=C01 [X(C20H31N4O7)]\\@
 The archive entry for this job was punched.


 THE ONLY TROUBLE WITH A SURE THING IS THE UNCERTAINTY.
     -- FROM A TEABAG (BELONGING TO W.H.?)
 Job cpu time:       0 days  0 hours  3 minutes 35.0 seconds.
 Elapsed time:       0 days  0 hours  0 minutes 54.6 seconds.
 File lengths (MBytes):  RWF=    264 Int=      0 D2E=      0 Chk=     40 Scr=     16
 Normal termination of Gaussian 16 at Tue May 24 03:23:31 2022.
