 Entering Gaussian System, Link 0=/opt/software/Gaussian/g16-AVX2-C.01/g16/g16
 Input=charge-conf-747.com
 Output=charge-conf-747.log
 Initial command:
 /opt/software/Gaussian/g16-AVX2-C.01/g16/l1.exe "/mnt/gs18/scratch/users/kengmith/Gau-62234.inp" -scrdir="/mnt/gs18/scratch/users/kengmith/"
 Entering Link 1 = /opt/software/Gaussian/g16-AVX2-C.01/g16/l1.exe PID=     62244.
  
 Copyright (c) 1988-2019, Gaussian, Inc.  All Rights Reserved.
  
 This is part of the Gaussian(R) 16 program.  It is based on
 the Gaussian(R) 09 system (copyright 2009, Gaussian, Inc.),
 the Gaussian(R) 03 system (copyright 2003, Gaussian, Inc.),
 the Gaussian(R) 98 system (copyright 1998, Gaussian, Inc.),
 the Gaussian(R) 94 system (copyright 1995, Gaussian, Inc.),
 the Gaussian 92(TM) system (copyright 1992, Gaussian, Inc.),
 the Gaussian 90(TM) system (copyright 1990, Gaussian, Inc.),
 the Gaussian 88(TM) system (copyright 1988, Gaussian, Inc.),
 the Gaussian 86(TM) system (copyright 1986, Carnegie Mellon
 University), and the Gaussian 82(TM) system (copyright 1983,
 Carnegie Mellon University). Gaussian is a federally registered
 trademark of Gaussian, Inc.
  
 This software contains proprietary and confidential information,
 including trade secrets, belonging to Gaussian, Inc.
  
 This software is provided under written license and may be
 used, copied, transmitted, or stored only in accord with that
 written license.
  
 The following legend is applicable only to US Government
 contracts under FAR:
  
                    RESTRICTED RIGHTS LEGEND
  
 Use, reproduction and disclosure by the US Government is
 subject to restrictions as set forth in subparagraphs (a)
 and (c) of the Commercial Computer Software - Restricted
 Rights clause in FAR 52.227-19.
  
 Gaussian, Inc.
 340 Quinnipiac St., Bldg. 40, Wallingford CT 06492
  
  
 ---------------------------------------------------------------
 Warning -- This program may not be used in any manner that
 competes with the business of Gaussian, Inc. or will provide
 assistance to any competitor of Gaussian, Inc.  The licensee
 of this program is prohibited from giving any competitor of
 Gaussian, Inc. access to this program.  By using this program,
 the user acknowledges that Gaussian, Inc. is engaged in the
 business of creating and licensing software in the field of
 computational chemistry and represents and warrants to the
 licensee that it is not a competitor of Gaussian, Inc. and that
 it will not use this program in any manner prohibited above.
 ---------------------------------------------------------------
  

 Cite this work as:
 Gaussian 16, Revision C.01,
 M. J. Frisch, G. W. Trucks, H. B. Schlegel, G. E. Scuseria, 
 M. A. Robb, J. R. Cheeseman, G. Scalmani, V. Barone, 
 G. A. Petersson, H. Nakatsuji, X. Li, M. Caricato, A. V. Marenich, 
 J. Bloino, B. G. Janesko, R. Gomperts, B. Mennucci, H. P. Hratchian, 
 J. V. Ortiz, A. F. Izmaylov, J. L. Sonnenberg, D. Williams-Young, 
 F. Ding, F. Lipparini, F. Egidi, J. Goings, B. Peng, A. Petrone, 
 T. Henderson, D. Ranasinghe, V. G. Zakrzewski, J. Gao, N. Rega, 
 G. Zheng, W. Liang, M. Hada, M. Ehara, K. Toyota, R. Fukuda, 
 J. Hasegawa, M. Ishida, T. Nakajima, Y. Honda, O. Kitao, H. Nakai, 
 T. Vreven, K. Throssell, J. A. Montgomery, Jr., J. E. Peralta, 
 F. Ogliaro, M. J. Bearpark, J. J. Heyd, E. N. Brothers, K. N. Kudin, 
 V. N. Staroverov, T. A. Keith, R. Kobayashi, J. Normand, 
 K. Raghavachari, A. P. Rendell, J. C. Burant, S. S. Iyengar, 
 J. Tomasi, M. Cossi, J. M. Millam, M. Klene, C. Adamo, R. Cammi, 
 J. W. Ochterski, R. L. Martin, K. Morokuma, O. Farkas, 
 J. B. Foresman, and D. J. Fox, Gaussian, Inc., Wallingford CT, 2019.
 
 ******************************************
 Gaussian 16:  ES64L-G16RevC.01  3-Jul-2019
                26-May-2022 
 ******************************************
 %mem=8gb
 %nproc=4
 Will use up to    4 processors via shared memory.
 %chk=conf-747.chk
 -------------------------------------------------------------------
 # B3LYP/6-31G* guess=read geom=check nosymm integral(ultrafinegrid)
 -------------------------------------------------------------------
 1/29=2,38=1,172=1/1;
 2/12=2,15=1,40=1/2;
 3/5=1,6=6,7=1,11=2,14=-4,25=1,30=1,74=-5,75=-5,116=-2/1,2,3;
 4/5=1/1;
 5/5=2,38=6/2;
 6/7=2,8=2,9=2,10=2,28=1/1;
 99/5=1,9=1/99;
 ------------------------------------------------------
 Candidate Structure: Conf:747 Charge calc in gas phase
 ------------------------------------------------------
 Structure from the checkpoint file:  "conf-747.chk"
 Charge =  1 Multiplicity = 1
 Redundant internal coordinates found in file.  (old form).
 N,0,-4.8407768734,0.4506049319,-5.4498867115
 H,0,-4.223511183,1.2609328853,-5.5549026337
 H,0,-4.4603012143,-0.3066999389,-6.0369509777
 H,0,-5.7928471201,0.6992870904,-5.7509215153
 C,0,-4.8680020619,-0.06024116,-4.0461185986
 H,0,-4.7870053527,0.7863816866,-3.358895812
 C,0,-3.667844332,-0.9847498578,-3.894090924
 C,0,-6.2005694859,-0.7934949876,-3.7836617573
 H,0,-6.261064133,-1.6635822408,-4.4458092426
 H,0,-6.1851848341,-1.1705072893,-2.75711233
 O,0,-3.14915744,-1.4754263005,-4.931250541
 C,0,-7.3867821837,0.1179454027,-4.0104048052
 C,0,-7.6459105963,1.1800591214,-3.1356193836
 H,0,-7.0079969575,1.3264767918,-2.2681148355
 C,0,-8.2063496641,-0.0487733059,-5.1320367945
 H,0,-8.0118841971,-0.8639307448,-5.8254245244
 C,0,-8.7165154636,2.0408803128,-3.3632803004
 H,0,-8.9104581864,2.8516407763,-2.6686472998
 C,0,-9.2722017827,0.8210754459,-5.3697246912
 H,0,-9.8986764805,0.6773851522,-6.2437674533
 C,0,-9.5306571082,1.8646543539,-4.4836013228
 H,0,-10.3628506713,2.5374225803,-4.6626516674
 N,0,-3.2399602857,-1.2625037142,-2.6622333902
 H,0,-3.5908563433,-0.7954134918,-1.827239
 C,0,-2.2165023257,-2.2613381922,-2.3746193387
 H,0,-2.4981227529,-3.2205573012,-2.8249287537
 C,0,-2.1473129658,-2.3656043101,-0.8402800778
 C,0,-0.8356818102,-1.854610407,-2.921336638
 H,0,-0.0224430451,-2.4059275311,-2.4410134756
 H,0,-0.6640712829,-0.7867920338,-2.8022249373
 O,0,-2.5867846484,-1.4513354037,-0.1578929833
 O,0,-0.7791541968,-2.1103353434,-4.3946573089
 H,0,-0.5535710198,-3.0410284937,-4.5786430295
 N,0,-1.5217894946,-3.4663546439,-0.361008155
 H,0,-1.0260084216,-4.0407029076,-1.0300450385
 C,0,-0.7385137308,-3.3004704822,0.8619688363
 H,0,-1.2883525276,-2.6364709529,1.5301891569
 C,0,0.5707132709,-2.6136540787,0.3941025168
 C,0,-0.5070563809,-4.6335027997,1.5478356675
 H,0,-1.4771949099,-5.0766356666,1.8075889933
 H,0,0.0620452284,-4.4719004856,2.4740160857
 O,0,0.8360576843,-2.57007026,-0.81508588
 O,0,0.2025602786,-5.4505230554,0.6228474777
 H,0,0.48540033,-6.2555747513,1.0750583884
 N,0,1.3452554899,-2.0628996135,1.3236012371
 H,0,1.20712555,-2.1739410116,2.325033029
 C,0,2.5862538055,-1.3819038355,0.971482063
 H,0,3.1847429311,-2.0326045847,0.3244061071
 C,0,3.3247359035,-1.1786618341,2.3096888522
 C,0,2.3153412079,-0.0724784545,0.203771728
 H,0,1.3781101683,-0.1584048492,-0.3502005572
 H,0,2.2086597484,0.7679161056,0.8982002147
 O,0,2.8194295509,-1.5588701919,3.3679585791
 C,0,3.4150077593,0.2722967389,-0.822058356
 O,0,3.0803523452,0.9386494873,-1.8201839062
 O,0,4.5906924736,-0.1273207843,-0.5841938563
 N,0,4.5051131488,-0.5574715034,2.2048614079
 H,0,4.8364627654,-0.329886377,1.2599553484
 C,0,5.3469910876,-0.3251758298,3.369979973
 H,0,4.7158395174,-0.0101020972,4.2027556136
 C,0,6.3627285585,0.8175320498,3.0714565773
 C,0,6.2077745897,-1.5540630726,3.7048162106
 H,0,6.7274445481,-1.7463708104,2.7613599066
 H,0,5.6207079455,-2.4372861007,3.9652412054
 O,0,6.2110079985,1.9268207153,3.5842734079
 C,0,7.2668222874,-1.1940926599,4.768217708
 H,0,6.9144961247,-1.3458493454,5.7930635486
 H,0,7.4570424026,-0.127942076,4.6812779793
 C,0,8.6134933643,-1.8597149878,4.479068289
 H,0,8.6549067956,-2.9071935029,4.7856214515
 H,0,8.780399786,-1.8240615517,3.3988232156
 N,0,9.76073098,-1.1448154752,5.076367561
 H,0,9.9728760718,-1.3401473435,6.0449720401
 N,0,9.6544361691,0.6635140883,3.5665296528
 H,0,9.9346119649,1.6216376588,3.4013364767
 H,0,8.7221645194,0.471520056,3.1371248015
 N,0,11.1549933265,0.680002068,5.3462341798
 H,0,11.7673647096,0.0693730667,5.8725679155
 H,0,11.6458789079,1.4316240753,4.8808515014
 C,0,10.1596089468,0.0655775375,4.6361275047
 O,0,7.3735687236,0.465310943,2.3608203076
 H,0,-1.7376491214,-1.9104172473,-4.7595079724
 Recover connectivity data from disk.
                           ----------------------------
                           !    Current Parameters    !
                           ! (Angstroms and Degrees)  !
 --------------------------                            --------------------------
 ! Name  Definition              Value                                          !
 --------------------------------------------------------------------------------
 ! R1    R(1,2)                  1.024                                          !
 ! R2    R(1,3)                  1.031                                          !
 ! R3    R(1,4)                  1.029                                          !
 ! R4    R(1,5)                  1.4941                                         !
 ! R5    R(5,6)                  1.0934                                         !
 ! R6    R(5,7)                  1.5226                                         !
 ! R7    R(5,8)                  1.5435                                         !
 ! R8    R(7,11)                 1.2592                                         !
 ! R9    R(7,23)                 1.3333                                         !
 ! R10   R(8,9)                  1.0951                                         !
 ! R11   R(8,10)                 1.0937                                         !
 ! R12   R(8,12)                 1.513                                          !
 ! R13   R(12,13)                1.4002                                         !
 ! R14   R(12,15)                1.3991                                         !
 ! R15   R(13,14)                1.0867                                         !
 ! R16   R(13,17)                1.3925                                         !
 ! R17   R(15,16)                1.0877                                         !
 ! R18   R(15,19)                1.3961                                         !
 ! R19   R(17,18)                1.0851                                         !
 ! R20   R(17,21)                1.3961                                         !
 ! R21   R(19,20)                1.0849                                         !
 ! R22   R(19,21)                1.3932                                         !
 ! R23   R(21,22)                1.085                                          !
 ! R24   R(23,24)                1.0191                                         !
 ! R25   R(23,25)                1.4587                                         !
 ! R26   R(25,26)                1.0964                                         !
 ! R27   R(25,27)                1.5394                                         !
 ! R28   R(25,28)                1.5398                                         !
 ! R29   R(27,31)                1.2226                                         !
 ! R30   R(27,34)                1.3537                                         !
 ! R31   R(28,29)                1.0936                                         !
 ! R32   R(28,30)                1.0881                                         !
 ! R33   R(28,32)                1.4964                                         !
 ! R34   R(32,33)                0.9752                                         !
 ! R35   R(32,82)                1.0449                                         !
 ! R36   R(34,35)                1.0116                                         !
 ! R37   R(34,36)                1.4617                                         !
 ! R38   R(36,37)                1.0908                                         !
 ! R39   R(36,38)                1.5507                                         !
 ! R40   R(36,39)                1.5169                                         !
 ! R41   R(38,42)                1.2387                                         !
 ! R42   R(38,45)                1.3294                                         !
 ! R43   R(39,40)                1.0977                                         !
 ! R44   R(39,41)                1.099                                          !
 ! R45   R(39,43)                1.4236                                         !
 ! R46   R(43,44)                0.9657                                         !
 ! R47   R(45,46)                1.017                                          !
 ! R48   R(45,47)                1.4587                                         !
 ! R49   R(47,48)                1.0956                                         !
 ! R50   R(47,49)                1.5419                                         !
 ! R51   R(47,50)                1.5419                                         !
 ! R52   R(49,53)                1.2328                                         !
 ! R53   R(49,57)                1.338                                          !
 ! R54   R(50,51)                1.0921                                         !
 ! R55   R(50,52)                1.0954                                         !
 ! R56   R(50,54)                1.5429                                         !
 ! R57   R(54,55)                1.2459                                         !
 ! R58   R(54,56)                1.2643                                         !
 ! R59   R(57,58)                1.0269                                         !
 ! R60   R(57,59)                1.4561                                         !
 ! R61   R(59,60)                1.0914                                         !
 ! R62   R(59,61)                1.5578                                         !
 ! R63   R(59,62)                1.5373                                         !
 ! R64   R(61,65)                1.2315                                         !
 ! R65   R(61,81)                1.2849                                         !
 ! R66   R(62,63)                1.0941                                         !
 ! R67   R(62,64)                1.092                                          !
 ! R68   R(62,66)                1.5434                                         !
 ! R69   R(66,67)                1.0943                                         !
 ! R70   R(66,68)                1.0865                                         !
 ! R71   R(66,69)                1.5298                                         !
 ! R72   R(69,70)                1.0922                                         !
 ! R73   R(69,71)                1.0936                                         !
 ! R74   R(69,72)                1.4778                                         !
 ! R75   R(72,73)                1.0106                                         !
 ! R76   R(72,80)                1.3483                                         !
 ! R77   R(74,75)                1.0118                                         !
 ! R78   R(74,76)                1.0442                                         !
 ! R79   R(74,80)                1.3254                                         !
 ! R80   R(77,78)                1.0124                                         !
 ! R81   R(77,79)                1.0112                                         !
 ! R82   R(77,80)                1.3684                                         !
 ! A1    A(2,1,3)              107.4819                                         !
 ! A2    A(2,1,4)              109.6613                                         !
 ! A3    A(2,1,5)              112.2031                                         !
 ! A4    A(3,1,4)              110.6329                                         !
 ! A5    A(3,1,5)              106.8925                                         !
 ! A6    A(4,1,5)              109.9152                                         !
 ! A7    A(1,5,6)              108.9306                                         !
 ! A8    A(1,5,7)              106.6822                                         !
 ! A9    A(1,5,8)              109.7509                                         !
 ! A10   A(6,5,7)              110.4261                                         !
 ! A11   A(6,5,8)              108.9606                                         !
 ! A12   A(7,5,8)              112.0304                                         !
 ! A13   A(5,7,11)             118.625                                          !
 ! A14   A(5,7,23)             118.1453                                         !
 ! A15   A(11,7,23)            123.2053                                         !
 ! A16   A(5,8,9)              108.8048                                         !
 ! A17   A(5,8,10)             108.1329                                         !
 ! A18   A(5,8,12)             111.4207                                         !
 ! A19   A(9,8,10)             107.1232                                         !
 ! A20   A(9,8,12)             110.1643                                         !
 ! A21   A(10,8,12)            111.0598                                         !
 ! A22   A(8,12,13)            120.5586                                         !
 ! A23   A(8,12,15)            120.5044                                         !
 ! A24   A(13,12,15)           118.871                                          !
 ! A25   A(12,13,14)           119.4926                                         !
 ! A26   A(12,13,17)           120.6023                                         !
 ! A27   A(14,13,17)           119.9036                                         !
 ! A28   A(12,15,16)           119.7109                                         !
 ! A29   A(12,15,19)           120.6265                                         !
 ! A30   A(16,15,19)           119.6626                                         !
 ! A31   A(13,17,18)           119.6465                                         !
 ! A32   A(13,17,21)           120.1012                                         !
 ! A33   A(18,17,21)           120.2514                                         !
 ! A34   A(15,19,20)           119.7009                                         !
 ! A35   A(15,19,21)           120.0017                                         !
 ! A36   A(20,19,21)           120.2969                                         !
 ! A37   A(17,21,19)           119.7864                                         !
 ! A38   A(17,21,22)           120.0958                                         !
 ! A39   A(19,21,22)           120.1177                                         !
 ! A40   A(7,23,24)            123.4381                                         !
 ! A41   A(7,23,25)            123.3651                                         !
 ! A42   A(24,23,25)           113.196                                          !
 ! A43   A(23,25,26)           109.746                                          !
 ! A44   A(23,25,27)           105.9279                                         !
 ! A45   A(23,25,28)           112.2284                                         !
 ! A46   A(26,25,27)           111.2004                                         !
 ! A47   A(26,25,28)           108.3966                                         !
 ! A48   A(27,25,28)           109.3579                                         !
 ! A49   A(25,27,31)           119.308                                          !
 ! A50   A(25,27,34)           115.3852                                         !
 ! A51   A(31,27,34)           125.2088                                         !
 ! A52   A(25,28,29)           112.1937                                         !
 ! A53   A(25,28,30)           111.2106                                         !
 ! A54   A(25,28,32)           109.7741                                         !
 ! A55   A(29,28,30)           109.2309                                         !
 ! A56   A(29,28,32)           108.5531                                         !
 ! A57   A(30,28,32)           105.6367                                         !
 ! A58   A(28,32,33)           110.9528                                         !
 ! A59   A(28,32,82)           106.0477                                         !
 ! A60   A(33,32,82)           109.2038                                         !
 ! A61   A(27,34,35)           116.9992                                         !
 ! A62   A(27,34,36)           116.8417                                         !
 ! A63   A(35,34,36)           110.803                                          !
 ! A64   A(34,36,37)           108.1509                                         !
 ! A65   A(34,36,38)           104.4917                                         !
 ! A66   A(34,36,39)           111.1205                                         !
 ! A67   A(37,36,38)           109.9262                                         !
 ! A68   A(37,36,39)           109.5656                                         !
 ! A69   A(38,36,39)           113.3793                                         !
 ! A70   A(36,38,42)           119.4031                                         !
 ! A71   A(36,38,45)           117.6744                                         !
 ! A72   A(42,38,45)           122.8983                                         !
 ! A73   A(36,39,40)           109.0803                                         !
 ! A74   A(36,39,41)           109.32                                           !
 ! A75   A(36,39,43)           106.6555                                         !
 ! A76   A(40,39,41)           108.5172                                         !
 ! A77   A(40,39,43)           111.2598                                         !
 ! A78   A(41,39,43)           111.9527                                         !
 ! A79   A(39,43,44)           108.6728                                         !
 ! A80   A(38,45,46)           124.3422                                         !
 ! A81   A(38,45,47)           121.3535                                         !
 ! A82   A(46,45,47)           113.8424                                         !
 ! A83   A(45,47,48)           109.2711                                         !
 ! A84   A(45,47,49)           105.0402                                         !
 ! A85   A(45,47,50)           111.5418                                         !
 ! A86   A(48,47,49)           109.2233                                         !
 ! A87   A(48,47,50)           107.8363                                         !
 ! A88   A(49,47,50)           113.8499                                         !
 ! A89   A(47,49,53)           120.5344                                         !
 ! A90   A(47,49,57)           114.5654                                         !
 ! A91   A(53,49,57)           124.893                                          !
 ! A92   A(47,50,51)           109.666                                          !
 ! A93   A(47,50,52)           110.6715                                         !
 ! A94   A(47,50,54)           113.303                                          !
 ! A95   A(51,50,52)           107.3593                                         !
 ! A96   A(51,50,54)           106.9769                                         !
 ! A97   A(52,50,54)           108.6313                                         !
 ! A98   A(50,54,55)           117.4339                                         !
 ! A99   A(50,54,56)           117.8431                                         !
 ! A100  A(55,54,56)           124.7183                                         !
 ! A101  A(49,57,58)           117.3659                                         !
 ! A102  A(49,57,59)           121.4296                                         !
 ! A103  A(58,57,59)           120.9561                                         !
 ! A104  A(57,59,60)           108.7994                                         !
 ! A105  A(57,59,61)           109.9186                                         !
 ! A106  A(57,59,62)           111.7463                                         !
 ! A107  A(60,59,61)           108.1518                                         !
 ! A108  A(60,59,62)           112.8544                                         !
 ! A109  A(61,59,62)           105.25                                           !
 ! A110  A(59,61,65)           120.0423                                         !
 ! A111  A(59,61,81)           114.7013                                         !
 ! A112  A(65,61,81)           125.0423                                         !
 ! A113  A(59,62,63)           102.6289                                         !
 ! A114  A(59,62,64)           113.4195                                         !
 ! A115  A(59,62,66)           110.3561                                         !
 ! A116  A(63,62,64)           108.591                                          !
 ! A117  A(63,62,66)           108.0113                                         !
 ! A118  A(64,62,66)           113.1546                                         !
 ! A119  A(62,66,67)           113.0797                                         !
 ! A120  A(62,66,68)           107.0903                                         !
 ! A121  A(62,66,69)           111.8603                                         !
 ! A122  A(67,66,68)           105.5096                                         !
 ! A123  A(67,66,69)           113.5851                                         !
 ! A124  A(68,66,69)           104.9351                                         !
 ! A125  A(66,69,70)           113.4298                                         !
 ! A126  A(66,69,71)           107.8703                                         !
 ! A127  A(66,69,72)           113.3597                                         !
 ! A128  A(70,69,71)           107.6207                                         !
 ! A129  A(70,69,72)           108.7273                                         !
 ! A130  A(71,69,72)           105.3655                                         !
 ! A131  A(69,72,73)           117.1825                                         !
 ! A132  A(69,72,80)           122.1373                                         !
 ! A133  A(73,72,80)           115.1091                                         !
 ! A134  A(75,74,76)           110.7436                                         !
 ! A135  A(75,74,80)           116.9618                                         !
 ! A136  A(76,74,80)           126.0991                                         !
 ! A137  A(78,77,79)           113.2019                                         !
 ! A138  A(78,77,80)           116.0377                                         !
 ! A139  A(79,77,80)           116.6182                                         !
 ! A140  A(72,80,74)           123.7598                                         !
 ! A141  A(72,80,77)           116.6685                                         !
 ! A142  A(74,80,77)           119.5673                                         !
 ! D1    D(2,1,5,6)             35.2177                                         !
 ! D2    D(2,1,5,7)            -83.9879                                         !
 ! D3    D(2,1,5,8)            154.4343                                         !
 ! D4    D(3,1,5,6)            152.8015                                         !
 ! D5    D(3,1,5,7)             33.5958                                         !
 ! D6    D(3,1,5,8)            -87.9819                                         !
 ! D7    D(4,1,5,6)            -87.085                                          !
 ! D8    D(4,1,5,7)            153.7093                                         !
 ! D9    D(4,1,5,8)             32.1316                                         !
 ! D10   D(1,5,7,11)           -20.8648                                         !
 ! D11   D(1,5,7,23)           160.8774                                         !
 ! D12   D(6,5,7,11)          -139.0943                                         !
 ! D13   D(6,5,7,23)            42.648                                          !
 ! D14   D(8,5,7,11)            99.2561                                         !
 ! D15   D(8,5,7,23)           -79.0016                                         !
 ! D16   D(1,5,8,9)             63.0074                                         !
 ! D17   D(1,5,8,10)           179.0346                                         !
 ! D18   D(1,5,8,12)           -58.6449                                         !
 ! D19   D(6,5,8,9)           -177.7945                                         !
 ! D20   D(6,5,8,10)           -61.7672                                         !
 ! D21   D(6,5,8,12)            60.5533                                         !
 ! D22   D(7,5,8,9)            -55.3076                                         !
 ! D23   D(7,5,8,10)            60.7196                                         !
 ! D24   D(7,5,8,12)          -176.9598                                         !
 ! D25   D(5,7,23,24)           -8.4393                                         !
 ! D26   D(5,7,23,25)          171.9002                                         !
 ! D27   D(11,7,23,24)         173.3885                                         !
 ! D28   D(11,7,23,25)          -6.272                                          !
 ! D29   D(5,8,12,13)          -69.5538                                         !
 ! D30   D(5,8,12,15)          107.4589                                         !
 ! D31   D(9,8,12,13)          169.5865                                         !
 ! D32   D(9,8,12,15)          -13.4009                                         !
 ! D33   D(10,8,12,13)          51.064                                          !
 ! D34   D(10,8,12,15)        -131.9233                                         !
 ! D35   D(8,12,13,14)          -2.1685                                         !
 ! D36   D(8,12,13,17)         178.2845                                         !
 ! D37   D(15,12,13,14)       -179.2294                                         !
 ! D38   D(15,12,13,17)          1.2236                                         !
 ! D39   D(8,12,15,16)           2.3898                                         !
 ! D40   D(8,12,15,19)        -177.6375                                         !
 ! D41   D(13,12,15,16)        179.4524                                         !
 ! D42   D(13,12,15,19)         -0.5749                                         !
 ! D43   D(12,13,17,18)        179.25                                           !
 ! D44   D(12,13,17,21)         -1.0924                                         !
 ! D45   D(14,13,17,18)         -0.2952                                         !
 ! D46   D(14,13,17,21)        179.3625                                         !
 ! D47   D(12,15,19,20)       -179.9488                                         !
 ! D48   D(12,15,19,21)         -0.2057                                         !
 ! D49   D(16,15,19,20)          0.0239                                         !
 ! D50   D(16,15,19,21)        179.767                                          !
 ! D51   D(13,17,21,19)          0.2941                                         !
 ! D52   D(13,17,21,22)       -179.7986                                         !
 ! D53   D(18,17,21,19)        179.9496                                         !
 ! D54   D(18,17,21,22)         -0.143                                          !
 ! D55   D(15,19,21,17)          0.3504                                         !
 ! D56   D(15,19,21,22)       -179.557                                          !
 ! D57   D(20,19,21,17)       -179.9081                                         !
 ! D58   D(20,19,21,22)          0.1846                                         !
 ! D59   D(7,23,25,26)         -53.6934                                         !
 ! D60   D(7,23,25,27)        -173.8261                                         !
 ! D61   D(7,23,25,28)          66.8988                                         !
 ! D62   D(24,23,25,26)        126.6148                                         !
 ! D63   D(24,23,25,27)          6.4821                                         !
 ! D64   D(24,23,25,28)       -112.7931                                         !
 ! D65   D(23,25,27,31)        -19.8803                                         !
 ! D66   D(23,25,27,34)        163.5308                                         !
 ! D67   D(26,25,27,31)       -139.0593                                         !
 ! D68   D(26,25,27,34)         44.3518                                         !
 ! D69   D(28,25,27,31)        101.267                                          !
 ! D70   D(28,25,27,34)        -75.3219                                         !
 ! D71   D(23,25,28,29)        161.0438                                         !
 ! D72   D(23,25,28,30)         38.3666                                         !
 ! D73   D(23,25,28,32)        -78.1695                                         !
 ! D74   D(26,25,28,29)        -77.587                                          !
 ! D75   D(26,25,28,30)        159.7357                                         !
 ! D76   D(26,25,28,32)         43.1997                                         !
 ! D77   D(27,25,28,29)         43.7984                                         !
 ! D78   D(27,25,28,30)        -78.8788                                         !
 ! D79   D(27,25,28,32)        164.5851                                         !
 ! D80   D(25,27,34,35)          9.7603                                         !
 ! D81   D(25,27,34,36)        144.5548                                         !
 ! D82   D(31,27,34,35)       -166.599                                          !
 ! D83   D(31,27,34,36)        -31.8044                                         !
 ! D84   D(25,28,32,33)        -83.5551                                         !
 ! D85   D(25,28,32,82)         34.9115                                         !
 ! D86   D(29,28,32,33)         39.4063                                         !
 ! D87   D(29,28,32,82)        157.8729                                         !
 ! D88   D(30,28,32,33)        156.4535                                         !
 ! D89   D(30,28,32,82)        -85.0798                                         !
 ! D90   D(27,34,36,37)         39.7698                                         !
 ! D91   D(27,34,36,38)        -77.3064                                         !
 ! D92   D(27,34,36,39)        160.0638                                         !
 ! D93   D(35,34,36,37)        177.2074                                         !
 ! D94   D(35,34,36,38)         60.1312                                         !
 ! D95   D(35,34,36,39)        -62.4986                                         !
 ! D96   D(34,36,38,42)        -13.3191                                         !
 ! D97   D(34,36,38,45)        164.944                                          !
 ! D98   D(37,36,38,42)       -129.1644                                         !
 ! D99   D(37,36,38,45)         49.0987                                         !
 ! D100  D(39,36,38,42)        107.8253                                         !
 ! D101  D(39,36,38,45)        -73.9116                                         !
 ! D102  D(34,36,39,40)        -60.1198                                         !
 ! D103  D(34,36,39,41)       -178.6337                                         !
 ! D104  D(34,36,39,43)         60.1425                                         !
 ! D105  D(37,36,39,40)         59.3329                                         !
 ! D106  D(37,36,39,41)        -59.1809                                         !
 ! D107  D(37,36,39,43)        179.5952                                         !
 ! D108  D(38,36,39,40)       -177.4582                                         !
 ! D109  D(38,36,39,41)         64.0279                                         !
 ! D110  D(38,36,39,43)        -57.1959                                         !
 ! D111  D(36,38,45,46)          9.0433                                         !
 ! D112  D(36,38,45,47)       -179.2427                                         !
 ! D113  D(42,38,45,46)       -172.7589                                         !
 ! D114  D(42,38,45,47)         -1.0449                                         !
 ! D115  D(36,39,43,44)        171.3301                                         !
 ! D116  D(40,39,43,44)        -69.8195                                         !
 ! D117  D(41,39,43,44)         51.7979                                         !
 ! D118  D(38,45,47,48)        -50.5262                                         !
 ! D119  D(38,45,47,49)       -167.5983                                         !
 ! D120  D(38,45,47,50)         68.6085                                         !
 ! D121  D(46,45,47,48)        121.9987                                         !
 ! D122  D(46,45,47,49)          4.9266                                         !
 ! D123  D(46,45,47,50)       -118.8666                                         !
 ! D124  D(45,47,49,53)         -0.7865                                         !
 ! D125  D(45,47,49,57)       -179.8547                                         !
 ! D126  D(48,47,49,53)       -117.8913                                         !
 ! D127  D(48,47,49,57)         63.0405                                         !
 ! D128  D(50,47,49,53)        121.523                                          !
 ! D129  D(50,47,49,57)        -57.5452                                         !
 ! D130  D(45,47,50,51)        -28.7437                                         !
 ! D131  D(45,47,50,52)         89.5172                                         !
 ! D132  D(45,47,50,54)       -148.1861                                         !
 ! D133  D(48,47,50,51)         91.2402                                         !
 ! D134  D(48,47,50,52)       -150.499                                          !
 ! D135  D(48,47,50,54)        -28.2022                                         !
 ! D136  D(49,47,50,51)       -147.3996                                         !
 ! D137  D(49,47,50,52)        -29.1387                                         !
 ! D138  D(49,47,50,54)         93.158                                          !
 ! D139  D(47,49,57,58)         -3.7589                                         !
 ! D140  D(47,49,57,59)       -178.0853                                         !
 ! D141  D(53,49,57,58)        177.2195                                         !
 ! D142  D(53,49,57,59)          2.8932                                         !
 ! D143  D(47,50,54,55)        151.7465                                         !
 ! D144  D(47,50,54,56)        -29.0046                                         !
 ! D145  D(51,50,54,55)         30.7744                                         !
 ! D146  D(51,50,54,56)       -149.9767                                         !
 ! D147  D(52,50,54,55)        -84.8288                                         !
 ! D148  D(52,50,54,56)         94.4201                                         !
 ! D149  D(49,57,59,60)        -41.6071                                         !
 ! D150  D(49,57,59,61)       -159.8613                                         !
 ! D151  D(49,57,59,62)         83.6677                                         !
 ! D152  D(58,57,59,60)        144.2692                                         !
 ! D153  D(58,57,59,61)         26.015                                          !
 ! D154  D(58,57,59,62)        -90.456                                          !
 ! D155  D(57,59,61,65)        106.7917                                         !
 ! D156  D(57,59,61,81)        -78.2602                                         !
 ! D157  D(60,59,61,65)        -11.8618                                         !
 ! D158  D(60,59,61,81)        163.0863                                         !
 ! D159  D(62,59,61,65)       -132.7277                                         !
 ! D160  D(62,59,61,81)         42.2204                                         !
 ! D161  D(57,59,62,63)         54.6494                                         !
 ! D162  D(57,59,62,64)        -62.293                                          !
 ! D163  D(57,59,62,66)        169.5539                                         !
 ! D164  D(60,59,62,63)        177.6484                                         !
 ! D165  D(60,59,62,64)         60.7061                                         !
 ! D166  D(60,59,62,66)        -67.447                                          !
 ! D167  D(61,59,62,63)        -64.6204                                         !
 ! D168  D(61,59,62,64)        178.4372                                         !
 ! D169  D(61,59,62,66)         50.2841                                         !
 ! D170  D(59,62,66,67)         89.8807                                         !
 ! D171  D(59,62,66,68)        -25.9112                                         !
 ! D172  D(59,62,66,69)       -140.3594                                         !
 ! D173  D(63,62,66,67)       -158.6595                                         !
 ! D174  D(63,62,66,68)         85.5486                                         !
 ! D175  D(63,62,66,69)        -28.8996                                         !
 ! D176  D(64,62,66,67)        -38.4172                                         !
 ! D177  D(64,62,66,68)       -154.2091                                         !
 ! D178  D(64,62,66,69)         91.3428                                         !
 ! D179  D(62,66,69,70)        -79.6952                                         !
 ! D180  D(62,66,69,71)         39.4066                                         !
 ! D181  D(62,66,69,72)        155.6713                                         !
 ! D182  D(67,66,69,70)         49.8015                                         !
 ! D183  D(67,66,69,71)        168.9033                                         !
 ! D184  D(67,66,69,72)        -74.832                                          !
 ! D185  D(68,66,69,70)        164.5366                                         !
 ! D186  D(68,66,69,71)        -76.3615                                         !
 ! D187  D(68,66,69,72)         39.9031                                         !
 ! D188  D(66,69,72,73)         83.4327                                         !
 ! D189  D(66,69,72,80)        -68.937                                          !
 ! D190  D(70,69,72,73)        -43.707                                          !
 ! D191  D(70,69,72,80)        163.9234                                         !
 ! D192  D(71,69,72,73)       -158.8352                                         !
 ! D193  D(71,69,72,80)         48.7951                                         !
 ! D194  D(69,72,80,74)         -6.5343                                         !
 ! D195  D(69,72,80,77)        174.2317                                         !
 ! D196  D(73,72,80,74)       -159.4309                                         !
 ! D197  D(73,72,80,77)         21.3352                                         !
 ! D198  D(75,74,80,72)        171.7411                                         !
 ! D199  D(75,74,80,77)         -9.046                                          !
 ! D200  D(76,74,80,72)         22.1164                                         !
 ! D201  D(76,74,80,77)       -158.6706                                         !
 ! D202  D(78,77,80,72)         24.7288                                         !
 ! D203  D(78,77,80,74)       -154.539                                          !
 ! D204  D(79,77,80,72)        162.0611                                         !
 ! D205  D(79,77,80,74)        -17.2067                                         !
 --------------------------------------------------------------------------------
 Symmetry turned off by external request.
 Stoichiometry    C25H39N8O10(1+)
 Framework group  C1[X(C25H39N8O10)]
 Deg. of freedom   240
 Full point group                 C1      NOp   1
                          Input orientation:                          
 ---------------------------------------------------------------------
 Center     Atomic      Atomic             Coordinates (Angstroms)
 Number     Number       Type             X           Y           Z
 ---------------------------------------------------------------------
      1          7           0       -4.840777    0.450605   -5.449887
      2          1           0       -4.223511    1.260933   -5.554903
      3          1           0       -4.460301   -0.306700   -6.036951
      4          1           0       -5.792847    0.699287   -5.750922
      5          6           0       -4.868002   -0.060241   -4.046119
      6          1           0       -4.787005    0.786382   -3.358896
      7          6           0       -3.667844   -0.984750   -3.894091
      8          6           0       -6.200569   -0.793495   -3.783662
      9          1           0       -6.261064   -1.663582   -4.445809
     10          1           0       -6.185185   -1.170507   -2.757112
     11          8           0       -3.149157   -1.475426   -4.931251
     12          6           0       -7.386782    0.117945   -4.010405
     13          6           0       -7.645911    1.180059   -3.135619
     14          1           0       -7.007997    1.326477   -2.268115
     15          6           0       -8.206350   -0.048773   -5.132037
     16          1           0       -8.011884   -0.863931   -5.825425
     17          6           0       -8.716515    2.040880   -3.363280
     18          1           0       -8.910458    2.851641   -2.668647
     19          6           0       -9.272202    0.821075   -5.369725
     20          1           0       -9.898676    0.677385   -6.243767
     21          6           0       -9.530657    1.864654   -4.483601
     22          1           0      -10.362851    2.537423   -4.662652
     23          7           0       -3.239960   -1.262504   -2.662233
     24          1           0       -3.590856   -0.795413   -1.827239
     25          6           0       -2.216502   -2.261338   -2.374619
     26          1           0       -2.498123   -3.220557   -2.824929
     27          6           0       -2.147313   -2.365604   -0.840280
     28          6           0       -0.835682   -1.854610   -2.921337
     29          1           0       -0.022443   -2.405928   -2.441013
     30          1           0       -0.664071   -0.786792   -2.802225
     31          8           0       -2.586785   -1.451335   -0.157893
     32          8           0       -0.779154   -2.110335   -4.394657
     33          1           0       -0.553571   -3.041028   -4.578643
     34          7           0       -1.521789   -3.466355   -0.361008
     35          1           0       -1.026008   -4.040703   -1.030045
     36          6           0       -0.738514   -3.300470    0.861969
     37          1           0       -1.288353   -2.636471    1.530189
     38          6           0        0.570713   -2.613654    0.394103
     39          6           0       -0.507056   -4.633503    1.547836
     40          1           0       -1.477195   -5.076636    1.807589
     41          1           0        0.062045   -4.471900    2.474016
     42          8           0        0.836058   -2.570070   -0.815086
     43          8           0        0.202560   -5.450523    0.622847
     44          1           0        0.485400   -6.255575    1.075058
     45          7           0        1.345255   -2.062900    1.323601
     46          1           0        1.207126   -2.173941    2.325033
     47          6           0        2.586254   -1.381904    0.971482
     48          1           0        3.184743   -2.032605    0.324406
     49          6           0        3.324736   -1.178662    2.309689
     50          6           0        2.315341   -0.072478    0.203772
     51          1           0        1.378110   -0.158405   -0.350201
     52          1           0        2.208660    0.767916    0.898200
     53          8           0        2.819430   -1.558870    3.367959
     54          6           0        3.415008    0.272297   -0.822058
     55          8           0        3.080352    0.938649   -1.820184
     56          8           0        4.590692   -0.127321   -0.584194
     57          7           0        4.505113   -0.557472    2.204861
     58          1           0        4.836463   -0.329886    1.259955
     59          6           0        5.346991   -0.325176    3.369980
     60          1           0        4.715840   -0.010102    4.202756
     61          6           0        6.362729    0.817532    3.071457
     62          6           0        6.207775   -1.554063    3.704816
     63          1           0        6.727445   -1.746371    2.761360
     64          1           0        5.620708   -2.437286    3.965241
     65          8           0        6.211008    1.926821    3.584273
     66          6           0        7.266822   -1.194093    4.768218
     67          1           0        6.914496   -1.345849    5.793064
     68          1           0        7.457042   -0.127942    4.681278
     69          6           0        8.613493   -1.859715    4.479068
     70          1           0        8.654907   -2.907194    4.785621
     71          1           0        8.780400   -1.824062    3.398823
     72          7           0        9.760731   -1.144815    5.076368
     73          1           0        9.972876   -1.340147    6.044972
     74          7           0        9.654436    0.663514    3.566530
     75          1           0        9.934612    1.621638    3.401336
     76          1           0        8.722165    0.471520    3.137125
     77          7           0       11.154993    0.680002    5.346234
     78          1           0       11.767365    0.069373    5.872568
     79          1           0       11.645879    1.431624    4.880852
     80          6           0       10.159609    0.065578    4.636128
     81          8           0        7.373569    0.465311    2.360820
     82          1           0       -1.737649   -1.910417   -4.759508
 ---------------------------------------------------------------------
 Rotational constants (GHZ):           0.1783488           0.0193669           0.0187493
 Standard basis: 6-31G(d) (6D, 7F)
   723 basis functions,  1360 primitive gaussians,   723 cartesian basis functions
   162 alpha electrons      162 beta electrons
       nuclear repulsion energy      5057.4078257723 Hartrees.
 NAtoms=   82 NActive=   82 NUniq=   82 SFac= 1.00D+00 NAtFMM=   60 NAOKFM=T Big=T
 Integral buffers will be    131072 words long.
 Raffenetti 2 integral format.
 Two-electron integral symmetry is turned off.
 One-electron integrals computed using PRISM.
 NBasis=   723 RedAO= T EigKep=  4.65D-04  NBF=   723
 NBsUse=   723 1.00D-06 EigRej= -1.00D+00 NBFU=   723
 Initial guess from the checkpoint file:  "conf-747.chk"
 B after Tr=     0.000000    0.000000    0.000000
         Rot=    1.000000    0.000000    0.000000    0.000000 Ang=   0.00 deg.
 Requested convergence on RMS density matrix=1.00D-08 within 128 cycles.
 Requested convergence on MAX density matrix=1.00D-06.
 Requested convergence on             energy=1.00D-06.
 No special actions if energy rises.
 SCF Done:  E(RB3LYP) =  -2166.06569164     A.U. after    3 cycles
            NFock=  3  Conv=0.58D-09     -V/T= 2.0089

 **********************************************************************

            Population analysis using the SCF Density.

 **********************************************************************

 Alpha  occ. eigenvalues --  -19.42490 -19.32646 -19.25542 -19.23257 -19.18518
 Alpha  occ. eigenvalues --  -19.12478 -19.07039 -19.06759 -19.06462 -19.06062
 Alpha  occ. eigenvalues --  -14.64552 -14.54134 -14.47300 -14.44384 -14.44125
 Alpha  occ. eigenvalues --  -14.41050 -14.40936 -14.34535 -10.47657 -10.44570
 Alpha  occ. eigenvalues --  -10.42522 -10.40538 -10.40455 -10.39699 -10.36884
 Alpha  occ. eigenvalues --  -10.35357 -10.34142 -10.32820 -10.32472 -10.32437
 Alpha  occ. eigenvalues --  -10.32202 -10.31900 -10.31860 -10.31569 -10.28993
 Alpha  occ. eigenvalues --  -10.27129 -10.24898 -10.24876 -10.24446 -10.20716
 Alpha  occ. eigenvalues --  -10.20618 -10.18714 -10.18563  -1.29456  -1.23928
 Alpha  occ. eigenvalues --   -1.19172  -1.17786  -1.11325  -1.10726  -1.10112
 Alpha  occ. eigenvalues --   -1.08322  -1.04591  -1.04146  -1.00200  -1.00187
 Alpha  occ. eigenvalues --   -1.00115  -0.98035  -0.97476  -0.97006  -0.95839
 Alpha  occ. eigenvalues --   -0.93749  -0.91934  -0.90851  -0.90558  -0.89556
 Alpha  occ. eigenvalues --   -0.87740  -0.86250  -0.84276  -0.82189  -0.82057
 Alpha  occ. eigenvalues --   -0.80120  -0.79025  -0.78120  -0.77466  -0.76733
 Alpha  occ. eigenvalues --   -0.75593  -0.73983  -0.73854  -0.72374  -0.71344
 Alpha  occ. eigenvalues --   -0.70593  -0.70381  -0.69372  -0.68599  -0.67613
 Alpha  occ. eigenvalues --   -0.67518  -0.65893  -0.65076  -0.64965  -0.64145
 Alpha  occ. eigenvalues --   -0.63296  -0.62095  -0.61971  -0.61416  -0.60956
 Alpha  occ. eigenvalues --   -0.60303  -0.59947  -0.59435  -0.59171  -0.58551
 Alpha  occ. eigenvalues --   -0.57302  -0.56974  -0.56730  -0.56429  -0.55870
 Alpha  occ. eigenvalues --   -0.55230  -0.55069  -0.54688  -0.54438  -0.53725
 Alpha  occ. eigenvalues --   -0.53574  -0.53413  -0.51893  -0.51741  -0.51135
 Alpha  occ. eigenvalues --   -0.50807  -0.50161  -0.49588  -0.49400  -0.48944
 Alpha  occ. eigenvalues --   -0.48373  -0.48124  -0.47265  -0.47143  -0.46936
 Alpha  occ. eigenvalues --   -0.46227  -0.45168  -0.45111  -0.44459  -0.44222
 Alpha  occ. eigenvalues --   -0.43346  -0.43041  -0.42721  -0.41921  -0.40605
 Alpha  occ. eigenvalues --   -0.40120  -0.39813  -0.38894  -0.38544  -0.38527
 Alpha  occ. eigenvalues --   -0.38180  -0.37617  -0.37464  -0.37143  -0.36303
 Alpha  occ. eigenvalues --   -0.35988  -0.35525  -0.34723  -0.34370  -0.34130
 Alpha  occ. eigenvalues --   -0.33757  -0.32612  -0.32132  -0.30878  -0.26880
 Alpha  occ. eigenvalues --   -0.25460  -0.22659  -0.22145  -0.21668  -0.21397
 Alpha  occ. eigenvalues --   -0.19898  -0.19597
 Alpha virt. eigenvalues --   -0.18537  -0.14605  -0.13745  -0.13460  -0.13013
 Alpha virt. eigenvalues --   -0.11340  -0.08740  -0.06680  -0.06121  -0.04979
 Alpha virt. eigenvalues --   -0.04836  -0.04476  -0.04401  -0.03505  -0.01922
 Alpha virt. eigenvalues --   -0.01492  -0.01486  -0.00704  -0.00230   0.00474
 Alpha virt. eigenvalues --    0.00751   0.01717   0.02164   0.02433   0.03024
 Alpha virt. eigenvalues --    0.03383   0.03579   0.04067   0.04176   0.04316
 Alpha virt. eigenvalues --    0.05428   0.05637   0.06591   0.06887   0.07397
 Alpha virt. eigenvalues --    0.07543   0.07567   0.07731   0.08267   0.08415
 Alpha virt. eigenvalues --    0.08981   0.09298   0.09585   0.09970   0.10109
 Alpha virt. eigenvalues --    0.10787   0.11211   0.11784   0.12565   0.12758
 Alpha virt. eigenvalues --    0.13012   0.13568   0.14340   0.14794   0.15825
 Alpha virt. eigenvalues --    0.16159   0.16559   0.17274   0.17969   0.17996
 Alpha virt. eigenvalues --    0.18258   0.18666   0.18807   0.19817   0.20114
 Alpha virt. eigenvalues --    0.21010   0.21349   0.22090   0.22589   0.23173
 Alpha virt. eigenvalues --    0.23795   0.24750   0.24837   0.25004   0.26061
 Alpha virt. eigenvalues --    0.26186   0.26870   0.27329   0.29851   0.30277
 Alpha virt. eigenvalues --    0.30641   0.31712   0.32364   0.33095   0.33816
 Alpha virt. eigenvalues --    0.34298   0.35407   0.36105   0.36658   0.37126
 Alpha virt. eigenvalues --    0.37900   0.39433   0.39651   0.40227   0.40481
 Alpha virt. eigenvalues --    0.40669   0.41054   0.42094   0.42137   0.42917
 Alpha virt. eigenvalues --    0.43846   0.44001   0.44451   0.44605   0.44893
 Alpha virt. eigenvalues --    0.46042   0.46325   0.46595   0.47261   0.47406
 Alpha virt. eigenvalues --    0.47471   0.48225   0.48363   0.48947   0.49059
 Alpha virt. eigenvalues --    0.49299   0.49386   0.49584   0.50487   0.50877
 Alpha virt. eigenvalues --    0.50929   0.51343   0.52042   0.52376   0.52542
 Alpha virt. eigenvalues --    0.53799   0.53828   0.54251   0.54569   0.54775
 Alpha virt. eigenvalues --    0.55363   0.56223   0.56580   0.56768   0.57263
 Alpha virt. eigenvalues --    0.58048   0.58313   0.58690   0.58979   0.59484
 Alpha virt. eigenvalues --    0.59633   0.60616   0.61270   0.61411   0.61681
 Alpha virt. eigenvalues --    0.61867   0.62534   0.62703   0.63531   0.63996
 Alpha virt. eigenvalues --    0.64342   0.64594   0.64788   0.65668   0.65986
 Alpha virt. eigenvalues --    0.66348   0.66808   0.67200   0.67281   0.67629
 Alpha virt. eigenvalues --    0.67744   0.68527   0.69451   0.69691   0.69796
 Alpha virt. eigenvalues --    0.70106   0.71019   0.71171   0.71948   0.72151
 Alpha virt. eigenvalues --    0.72491   0.72626   0.72744   0.73409   0.74191
 Alpha virt. eigenvalues --    0.74526   0.74833   0.75446   0.75695   0.76022
 Alpha virt. eigenvalues --    0.76756   0.76819   0.77282   0.77558   0.77889
 Alpha virt. eigenvalues --    0.78436   0.78548   0.79006   0.79397   0.79513
 Alpha virt. eigenvalues --    0.80038   0.80492   0.80893   0.80979   0.81526
 Alpha virt. eigenvalues --    0.81863   0.81958   0.82349   0.82625   0.83113
 Alpha virt. eigenvalues --    0.83567   0.83837   0.84286   0.84515   0.85470
 Alpha virt. eigenvalues --    0.85659   0.86285   0.86502   0.86607   0.87391
 Alpha virt. eigenvalues --    0.87753   0.88116   0.88935   0.89209   0.89466
 Alpha virt. eigenvalues --    0.90105   0.90561   0.90724   0.90955   0.91522
 Alpha virt. eigenvalues --    0.92134   0.92584   0.92831   0.93785   0.94162
 Alpha virt. eigenvalues --    0.94269   0.95578   0.96452   0.96968   0.97022
 Alpha virt. eigenvalues --    0.97456   0.98255   0.98558   0.98694   0.99335
 Alpha virt. eigenvalues --    1.00298   1.01122   1.01813   1.02685   1.03139
 Alpha virt. eigenvalues --    1.03437   1.04243   1.04765   1.05205   1.05665
 Alpha virt. eigenvalues --    1.06165   1.06850   1.07846   1.08565   1.09008
 Alpha virt. eigenvalues --    1.09875   1.10528   1.11079   1.11393   1.12046
 Alpha virt. eigenvalues --    1.12453   1.13245   1.13593   1.14641   1.15337
 Alpha virt. eigenvalues --    1.16098   1.16526   1.17015   1.18419   1.18569
 Alpha virt. eigenvalues --    1.19161   1.20727   1.21619   1.22369   1.23596
 Alpha virt. eigenvalues --    1.24924   1.25030   1.25876   1.26346   1.27042
 Alpha virt. eigenvalues --    1.27391   1.27912   1.28983   1.29675   1.29937
 Alpha virt. eigenvalues --    1.30507   1.31070   1.31872   1.32456   1.32718
 Alpha virt. eigenvalues --    1.33731   1.34599   1.34880   1.35724   1.35775
 Alpha virt. eigenvalues --    1.36393   1.37901   1.38038   1.38422   1.39355
 Alpha virt. eigenvalues --    1.40788   1.41529   1.42373   1.43449   1.44414
 Alpha virt. eigenvalues --    1.45367   1.45862   1.46825   1.48540   1.48777
 Alpha virt. eigenvalues --    1.49328   1.50327   1.51064   1.52296   1.53161
 Alpha virt. eigenvalues --    1.53630   1.54604   1.55960   1.56550   1.56970
 Alpha virt. eigenvalues --    1.57652   1.58134   1.58652   1.60153   1.60531
 Alpha virt. eigenvalues --    1.61327   1.61547   1.62074   1.62430   1.62894
 Alpha virt. eigenvalues --    1.63937   1.64769   1.66099   1.66293   1.66623
 Alpha virt. eigenvalues --    1.67422   1.67994   1.68245   1.68630   1.69582
 Alpha virt. eigenvalues --    1.70014   1.70616   1.71636   1.72778   1.73039
 Alpha virt. eigenvalues --    1.73389   1.73971   1.75143   1.75492   1.75585
 Alpha virt. eigenvalues --    1.75898   1.76587   1.76984   1.77406   1.78224
 Alpha virt. eigenvalues --    1.78955   1.79490   1.79567   1.79880   1.80163
 Alpha virt. eigenvalues --    1.81095   1.81531   1.81603   1.82591   1.82723
 Alpha virt. eigenvalues --    1.83129   1.83353   1.83980   1.84730   1.84923
 Alpha virt. eigenvalues --    1.85452   1.86775   1.87352   1.87762   1.87857
 Alpha virt. eigenvalues --    1.88191   1.88701   1.89310   1.90158   1.90830
 Alpha virt. eigenvalues --    1.91467   1.91609   1.91984   1.92500   1.92774
 Alpha virt. eigenvalues --    1.93053   1.93270   1.93784   1.94486   1.94576
 Alpha virt. eigenvalues --    1.94994   1.96243   1.96405   1.97075   1.97489
 Alpha virt. eigenvalues --    1.98314   1.98787   1.99588   2.00787   2.00951
 Alpha virt. eigenvalues --    2.01130   2.01716   2.01839   2.02785   2.03751
 Alpha virt. eigenvalues --    2.04505   2.05032   2.05213   2.05423   2.05930
 Alpha virt. eigenvalues --    2.07076   2.07397   2.08460   2.08681   2.09005
 Alpha virt. eigenvalues --    2.10367   2.11377   2.12320   2.13308   2.13489
 Alpha virt. eigenvalues --    2.13708   2.14757   2.15782   2.16074   2.16972
 Alpha virt. eigenvalues --    2.17860   2.17934   2.18538   2.18611   2.20609
 Alpha virt. eigenvalues --    2.21107   2.21797   2.22741   2.22983   2.24004
 Alpha virt. eigenvalues --    2.25886   2.26684   2.27075   2.28972   2.29105
 Alpha virt. eigenvalues --    2.30293   2.30412   2.30893   2.32208   2.32511
 Alpha virt. eigenvalues --    2.33869   2.34560   2.35758   2.36345   2.37484
 Alpha virt. eigenvalues --    2.38246   2.39165   2.39327   2.40357   2.41435
 Alpha virt. eigenvalues --    2.41712   2.43426   2.43822   2.44463   2.44741
 Alpha virt. eigenvalues --    2.45940   2.46805   2.48893   2.49758   2.50150
 Alpha virt. eigenvalues --    2.50236   2.50821   2.52081   2.52715   2.53021
 Alpha virt. eigenvalues --    2.53186   2.55179   2.55780   2.56335   2.57262
 Alpha virt. eigenvalues --    2.58150   2.58965   2.59472   2.60124   2.60661
 Alpha virt. eigenvalues --    2.60770   2.61350   2.61832   2.62896   2.63061
 Alpha virt. eigenvalues --    2.64304   2.66382   2.67166   2.69746   2.70886
 Alpha virt. eigenvalues --    2.71556   2.73043   2.73567   2.74241   2.75139
 Alpha virt. eigenvalues --    2.75822   2.78094   2.78536   2.80755   2.83516
 Alpha virt. eigenvalues --    2.84294   2.85408   2.85563   2.87164   2.89655
 Alpha virt. eigenvalues --    2.90066   2.92202   2.94294   2.95286   2.96078
 Alpha virt. eigenvalues --    2.98701   2.98905   3.00549   3.02440   3.02598
 Alpha virt. eigenvalues --    3.02886   3.04137   3.05788   3.15355   3.17616
 Alpha virt. eigenvalues --    3.19046   3.20968   3.28001   3.61447   3.66832
 Alpha virt. eigenvalues --    3.69404   3.72904   3.87437   3.88012   3.91301
 Alpha virt. eigenvalues --    3.92090   3.94396   3.95847   3.97017   3.99072
 Alpha virt. eigenvalues --    4.02910   4.03134   4.04089   4.07232   4.10378
 Alpha virt. eigenvalues --    4.12238   4.14271   4.17219   4.18425   4.20223
 Alpha virt. eigenvalues --    4.22600   4.23491   4.24335   4.27653   4.28093
 Alpha virt. eigenvalues --    4.28219   4.29813   4.31610   4.32630   4.38121
 Alpha virt. eigenvalues --    4.41888   4.42910   4.43500   4.47082   4.49282
 Alpha virt. eigenvalues --    4.53279   4.56890   4.57843   4.64201   4.64897
 Alpha virt. eigenvalues --    4.73915
          Condensed to atoms (all electrons):
 Mulliken charges:
               1
     1  N   -0.726461
     2  H    0.431511
     3  H    0.430358
     4  H    0.417017
     5  C   -0.129293
     6  H    0.228826
     7  C    0.652996
     8  C   -0.378597
     9  H    0.189050
    10  H    0.215459
    11  O   -0.636956
    12  C    0.129094
    13  C   -0.185537
    14  H    0.146069
    15  C   -0.216709
    16  H    0.145138
    17  C   -0.121405
    18  H    0.175908
    19  C   -0.120283
    20  H    0.172715
    21  C   -0.122033
    22  H    0.177163
    23  N   -0.605843
    24  H    0.385566
    25  C   -0.110416
    26  H    0.191527
    27  C    0.617626
    28  C   -0.131719
    29  H    0.305774
    30  H    0.255511
    31  O   -0.498070
    32  O   -0.606965
    33  H    0.483947
    34  N   -0.559827
    35  H    0.347716
    36  C   -0.123121
    37  H    0.211758
    38  C    0.662791
    39  C   -0.038526
    40  H    0.151108
    41  H    0.168004
    42  O   -0.578272
    43  O   -0.627628
    44  H    0.416577
    45  N   -0.614786
    46  H    0.352805
    47  C   -0.034360
    48  H    0.195941
    49  C    0.587994
    50  C   -0.367089
    51  H    0.116209
    52  H    0.166007
    53  O   -0.579610
    54  C    0.587556
    55  O   -0.558121
    56  O   -0.559615
    57  N   -0.636209
    58  H    0.399157
    59  C    0.015996
    60  H    0.152173
    61  C    0.517762
    62  C   -0.270901
    63  H    0.163865
    64  H    0.132594
    65  O   -0.548931
    66  C   -0.291371
    67  H    0.134029
    68  H    0.176592
    69  C   -0.173138
    70  H    0.164574
    71  H    0.201067
    72  N   -0.592834
    73  H    0.346199
    74  N   -0.755839
    75  H    0.356224
    76  H    0.457271
    77  N   -0.752889
    78  H    0.352329
    79  H    0.359833
    80  C    0.753038
    81  O   -0.638350
    82  H    0.493281
 Sum of Mulliken charges =   1.00000
 Mulliken charges with hydrogens summed into heavy atoms:
               1
     1  N    0.552424
     5  C    0.099532
     7  C    0.652996
     8  C    0.025912
    11  O   -0.636956
    12  C    0.129094
    13  C   -0.039467
    15  C   -0.071571
    17  C    0.054503
    19  C    0.052432
    21  C    0.055130
    23  N   -0.220277
    25  C    0.081111
    27  C    0.617626
    28  C    0.429566
    31  O   -0.498070
    32  O    0.370262
    34  N   -0.212111
    36  C    0.088637
    38  C    0.662791
    39  C    0.280587
    42  O   -0.578272
    43  O   -0.211051
    45  N   -0.261981
    47  C    0.161581
    49  C    0.587994
    50  C   -0.084873
    53  O   -0.579610
    54  C    0.587556
    55  O   -0.558121
    56  O   -0.559615
    57  N   -0.237053
    59  C    0.168170
    61  C    0.517762
    62  C    0.025557
    65  O   -0.548931
    66  C    0.019250
    69  C    0.192504
    72  N   -0.246635
    74  N    0.057656
    77  N   -0.040727
    80  C    0.753038
    81  O   -0.638350
 Electronic spatial extent (au):  <R**2>=          55814.6647
 Charge=              1.0000 electrons
 Dipole moment (field-independent basis, Debye):
    X=            -24.2155    Y=            -11.9085    Z=            -18.8313  Tot=             32.9062
 Quadrupole moment (field-independent basis, Debye-Ang):
   XX=             75.1471   YY=           -197.3218   ZZ=            -63.6895
   XY=            -36.9145   XZ=            243.8721   YZ=             -9.6617
 Traceless Quadrupole moment (field-independent basis, Debye-Ang):
   XX=            137.1018   YY=           -135.3671   ZZ=             -1.7348
   XY=            -36.9145   XZ=            243.8721   YZ=             -9.6617
 Octapole moment (field-independent basis, Debye-Ang**2):
  XXX=            826.2708  YYY=            415.0163  ZZZ=           -399.8748  XYY=           -249.0106
  XXY=            344.9623  XXZ=            595.7331  XZZ=           -293.9810  YZZ=             73.5146
  YYZ=            -13.7342  XYZ=            -12.2855
 Hexadecapole moment (field-independent basis, Debye-Ang**3):
 XXXX=          -8807.9516 YYYY=          -4210.4746 ZZZZ=         -11032.0855 XXXY=           -566.6253
 XXXZ=           8872.5122 YYYX=            570.4284 YYYZ=            213.2411 ZZZX=          -5416.2548
 ZZZY=             94.5648 XXYY=          -8324.5475 XXZZ=            414.8542 YYZZ=          -3140.1250
 XXYZ=          -1044.0302 YYXZ=          -3838.3450 ZZXY=           -689.3966
 N-N= 5.057407825772D+03 E-N=-1.514644164252D+04  KE= 2.146965271208D+03
 Unable to Open any file for archive entry.
 1\1\GINC-AMR-066\SP\RB3LYP\6-31G(d)\C25H39N8O10(1+)\KENGMITH\26-May-20
 22\0\\# B3LYP/6-31G* guess=read geom=check nosymm integral(ultrafinegr
 id)\\Candidate Structure: Conf:747 Charge calc in gas phase\\1,1\N,0,-
 4.8407768734,0.4506049319,-5.4498867115\H,0,-4.223511183,1.2609328853,
 -5.5549026337\H,0,-4.4603012143,-0.3066999389,-6.0369509777\H,0,-5.792
 8471201,0.6992870904,-5.7509215153\C,0,-4.8680020619,-0.06024116,-4.04
 61185986\H,0,-4.7870053527,0.7863816866,-3.358895812\C,0,-3.667844332,
 -0.9847498578,-3.894090924\C,0,-6.2005694859,-0.7934949876,-3.78366175
 73\H,0,-6.261064133,-1.6635822408,-4.4458092426\H,0,-6.1851848341,-1.1
 705072893,-2.75711233\O,0,-3.14915744,-1.4754263005,-4.931250541\C,0,-
 7.3867821837,0.1179454027,-4.0104048052\C,0,-7.6459105963,1.1800591214
 ,-3.1356193836\H,0,-7.0079969575,1.3264767918,-2.2681148355\C,0,-8.206
 3496641,-0.0487733059,-5.1320367945\H,0,-8.0118841971,-0.8639307448,-5
 .8254245244\C,0,-8.7165154636,2.0408803128,-3.3632803004\H,0,-8.910458
 1864,2.8516407763,-2.6686472998\C,0,-9.2722017827,0.8210754459,-5.3697
 246912\H,0,-9.8986764805,0.6773851522,-6.2437674533\C,0,-9.5306571082,
 1.8646543539,-4.4836013228\H,0,-10.3628506713,2.5374225803,-4.66265166
 74\N,0,-3.2399602857,-1.2625037142,-2.6622333902\H,0,-3.5908563433,-0.
 7954134918,-1.827239\C,0,-2.2165023257,-2.2613381922,-2.3746193387\H,0
 ,-2.4981227529,-3.2205573012,-2.8249287537\C,0,-2.1473129658,-2.365604
 3101,-0.8402800778\C,0,-0.8356818102,-1.854610407,-2.921336638\H,0,-0.
 0224430451,-2.4059275311,-2.4410134756\H,0,-0.6640712829,-0.7867920338
 ,-2.8022249373\O,0,-2.5867846484,-1.4513354037,-0.1578929833\O,0,-0.77
 91541968,-2.1103353434,-4.3946573089\H,0,-0.5535710198,-3.0410284937,-
 4.5786430295\N,0,-1.5217894946,-3.4663546439,-0.361008155\H,0,-1.02600
 84216,-4.0407029076,-1.0300450385\C,0,-0.7385137308,-3.3004704822,0.86
 19688363\H,0,-1.2883525276,-2.6364709529,1.5301891569\C,0,0.5707132709
 ,-2.6136540787,0.3941025168\C,0,-0.5070563809,-4.6335027997,1.54783566
 75\H,0,-1.4771949099,-5.0766356666,1.8075889933\H,0,0.0620452284,-4.47
 19004856,2.4740160857\O,0,0.8360576843,-2.57007026,-0.81508588\O,0,0.2
 025602786,-5.4505230554,0.6228474777\H,0,0.48540033,-6.2555747513,1.07
 50583884\N,0,1.3452554899,-2.0628996135,1.3236012371\H,0,1.20712555,-2
 .1739410116,2.325033029\C,0,2.5862538055,-1.3819038355,0.971482063\H,0
 ,3.1847429311,-2.0326045847,0.3244061071\C,0,3.3247359035,-1.178661834
 1,2.3096888522\C,0,2.3153412079,-0.0724784545,0.203771728\H,0,1.378110
 1683,-0.1584048492,-0.3502005572\H,0,2.2086597484,0.7679161056,0.89820
 02147\O,0,2.8194295509,-1.5588701919,3.3679585791\C,0,3.4150077593,0.2
 722967389,-0.822058356\O,0,3.0803523452,0.9386494873,-1.8201839062\O,0
 ,4.5906924736,-0.1273207843,-0.5841938563\N,0,4.5051131488,-0.55747150
 34,2.2048614079\H,0,4.8364627654,-0.329886377,1.2599553484\C,0,5.34699
 10876,-0.3251758298,3.369979973\H,0,4.7158395174,-0.0101020972,4.20275
 56136\C,0,6.3627285585,0.8175320498,3.0714565773\C,0,6.2077745897,-1.5
 540630726,3.7048162106\H,0,6.7274445481,-1.7463708104,2.7613599066\H,0
 ,5.6207079455,-2.4372861007,3.9652412054\O,0,6.2110079985,1.9268207153
 ,3.5842734079\C,0,7.2668222874,-1.1940926599,4.768217708\H,0,6.9144961
 247,-1.3458493454,5.7930635486\H,0,7.4570424026,-0.127942076,4.6812779
 793\C,0,8.6134933643,-1.8597149878,4.479068289\H,0,8.6549067956,-2.907
 1935029,4.7856214515\H,0,8.780399786,-1.8240615517,3.3988232156\N,0,9.
 76073098,-1.1448154752,5.076367561\H,0,9.9728760718,-1.3401473435,6.04
 49720401\N,0,9.6544361691,0.6635140883,3.5665296528\H,0,9.9346119649,1
 .6216376588,3.4013364767\H,0,8.7221645194,0.471520056,3.1371248015\N,0
 ,11.1549933265,0.680002068,5.3462341798\H,0,11.7673647096,0.0693730667
 ,5.8725679155\H,0,11.6458789079,1.4316240753,4.8808515014\C,0,10.15960
 89468,0.0655775375,4.6361275047\O,0,7.3735687236,0.465310943,2.3608203
 076\H,0,-1.7376491214,-1.9104172473,-4.7595079724\\Version=ES64L-G16Re
 vC.01\HF=-2166.0656916\RMSD=5.786e-10\Dipole=-11.0819614,-2.9722033,-7
 .1323372\Quadrupole=101.93185,-100.6420901,-1.2897599,-27.4449888,181.
 3129459,-7.1832419\PG=C01 [X(C25H39N8O10)]\\@
 The archive entry for this job was punched.


 A DANDELION FROM A LOVER MEANS MORE THAN AN ORCHID FROM A FRIEND.
 Job cpu time:       0 days  0 hours  2 minutes 59.8 seconds.
 Elapsed time:       0 days  0 hours  0 minutes 45.6 seconds.
 File lengths (MBytes):  RWF=    384 Int=      0 D2E=      0 Chk=     56 Scr=     16
 Normal termination of Gaussian 16 at Thu May 26 21:40:27 2022.
