 Entering Gaussian System, Link 0=/opt/software/Gaussian/g16-AVX2-C.01/g16/g16
 Input=charge-conf-472.com
 Output=charge-conf-472.log
 Initial command:
 /opt/software/Gaussian/g16-AVX2-C.01/g16/l1.exe "/mnt/gs18/scratch/users/kengmith/Gau-9582.inp" -scrdir="/mnt/gs18/scratch/users/kengmith/"
 Entering Link 1 = /opt/software/Gaussian/g16-AVX2-C.01/g16/l1.exe PID=      9592.
  
 Copyright (c) 1988-2019, Gaussian, Inc.  All Rights Reserved.
  
 This is part of the Gaussian(R) 16 program.  It is based on
 the Gaussian(R) 09 system (copyright 2009, Gaussian, Inc.),
 the Gaussian(R) 03 system (copyright 2003, Gaussian, Inc.),
 the Gaussian(R) 98 system (copyright 1998, Gaussian, Inc.),
 the Gaussian(R) 94 system (copyright 1995, Gaussian, Inc.),
 the Gaussian 92(TM) system (copyright 1992, Gaussian, Inc.),
 the Gaussian 90(TM) system (copyright 1990, Gaussian, Inc.),
 the Gaussian 88(TM) system (copyright 1988, Gaussian, Inc.),
 the Gaussian 86(TM) system (copyright 1986, Carnegie Mellon
 University), and the Gaussian 82(TM) system (copyright 1983,
 Carnegie Mellon University). Gaussian is a federally registered
 trademark of Gaussian, Inc.
  
 This software contains proprietary and confidential information,
 including trade secrets, belonging to Gaussian, Inc.
  
 This software is provided under written license and may be
 used, copied, transmitted, or stored only in accord with that
 written license.
  
 The following legend is applicable only to US Government
 contracts under FAR:
  
                    RESTRICTED RIGHTS LEGEND
  
 Use, reproduction and disclosure by the US Government is
 subject to restrictions as set forth in subparagraphs (a)
 and (c) of the Commercial Computer Software - Restricted
 Rights clause in FAR 52.227-19.
  
 Gaussian, Inc.
 340 Quinnipiac St., Bldg. 40, Wallingford CT 06492
  
  
 ---------------------------------------------------------------
 Warning -- This program may not be used in any manner that
 competes with the business of Gaussian, Inc. or will provide
 assistance to any competitor of Gaussian, Inc.  The licensee
 of this program is prohibited from giving any competitor of
 Gaussian, Inc. access to this program.  By using this program,
 the user acknowledges that Gaussian, Inc. is engaged in the
 business of creating and licensing software in the field of
 computational chemistry and represents and warrants to the
 licensee that it is not a competitor of Gaussian, Inc. and that
 it will not use this program in any manner prohibited above.
 ---------------------------------------------------------------
  

 Cite this work as:
 Gaussian 16, Revision C.01,
 M. J. Frisch, G. W. Trucks, H. B. Schlegel, G. E. Scuseria, 
 M. A. Robb, J. R. Cheeseman, G. Scalmani, V. Barone, 
 G. A. Petersson, H. Nakatsuji, X. Li, M. Caricato, A. V. Marenich, 
 J. Bloino, B. G. Janesko, R. Gomperts, B. Mennucci, H. P. Hratchian, 
 J. V. Ortiz, A. F. Izmaylov, J. L. Sonnenberg, D. Williams-Young, 
 F. Ding, F. Lipparini, F. Egidi, J. Goings, B. Peng, A. Petrone, 
 T. Henderson, D. Ranasinghe, V. G. Zakrzewski, J. Gao, N. Rega, 
 G. Zheng, W. Liang, M. Hada, M. Ehara, K. Toyota, R. Fukuda, 
 J. Hasegawa, M. Ishida, T. Nakajima, Y. Honda, O. Kitao, H. Nakai, 
 T. Vreven, K. Throssell, J. A. Montgomery, Jr., J. E. Peralta, 
 F. Ogliaro, M. J. Bearpark, J. J. Heyd, E. N. Brothers, K. N. Kudin, 
 V. N. Staroverov, T. A. Keith, R. Kobayashi, J. Normand, 
 K. Raghavachari, A. P. Rendell, J. C. Burant, S. S. Iyengar, 
 J. Tomasi, M. Cossi, J. M. Millam, M. Klene, C. Adamo, R. Cammi, 
 J. W. Ochterski, R. L. Martin, K. Morokuma, O. Farkas, 
 J. B. Foresman, and D. J. Fox, Gaussian, Inc., Wallingford CT, 2019.
 
 ******************************************
 Gaussian 16:  ES64L-G16RevC.01  3-Jul-2019
                25-May-2022 
 ******************************************
 %mem=8gb
 %nproc=4
 Will use up to    4 processors via shared memory.
 %chk=conf-472.chk
 -------------------------------------------------------------------
 # B3LYP/6-31G* guess=read geom=check nosymm integral(ultrafinegrid)
 -------------------------------------------------------------------
 1/29=2,38=1,172=1/1;
 2/12=2,15=1,40=1/2;
 3/5=1,6=6,7=1,11=2,14=-4,25=1,30=1,74=-5,75=-5,116=-2/1,2,3;
 4/5=1/1;
 5/5=2,38=6/2;
 6/7=2,8=2,9=2,10=2,28=1/1;
 99/5=1,9=1/99;
 ------------------------------------------------------
 Candidate Structure: Conf:472 Charge calc in gas phase
 ------------------------------------------------------
 Structure from the checkpoint file:  "conf-472.chk"
 Charge =  1 Multiplicity = 1
 Redundant internal coordinates found in file.  (old form).
 N,0,-2.4316925609,1.6045264876,4.6258494476
 H,0,-3.2663623722,2.1016108952,4.9405783682
 H,0,-1.7470446607,2.3364304306,4.4351112567
 C,0,-2.7651545046,0.8991945949,3.3899001864
 H,0,-1.8363514448,0.4481109707,3.0195252558
 C,0,-3.3480911993,1.882525598,2.3428583215
 C,0,-3.7641397997,-0.2419079535,3.7287936668
 H,0,-3.4601426993,-0.6161688829,4.7120913345
 H,0,-4.7656899428,0.1883949319,3.8401923375
 O,0,-4.1202156814,2.7580299586,2.703481411
 C,0,-3.7742957009,-1.3740374754,2.7254123411
 C,0,-4.7948728999,-1.5138995041,1.7759825273
 H,0,-5.6342089983,-0.8224971068,1.7892786043
 C,0,-2.7219043651,-2.3095102586,2.7120476247
 H,0,-1.9584562629,-2.258860343,3.4872739855
 C,0,-4.7545143461,-2.5354418599,0.8194873688
 H,0,-5.5627463494,-2.6304344309,0.0997602834
 C,0,-2.6772932208,-3.3313534346,1.7578594636
 H,0,-1.8804389341,-4.0711048629,1.7903344375
 C,0,-3.6920989563,-3.4391032122,0.7987653119
 H,0,-3.6685454788,-4.240346563,0.066066304
 N,0,-2.9199120236,1.848993935,1.0230406249
 C,0,-2.4049498265,0.6812390869,0.3078698096
 H,0,-2.9005505955,-0.241574158,0.6193736805
 C,0,-0.9340165691,0.4714816702,0.5262599468
 C,0,-2.7015056553,0.9861843387,-1.1935631327
 H,0,-1.9438921466,0.5700392038,-1.8621542177
 H,0,-3.6656122969,0.5250557731,-1.4297546379
 O,0,-0.052783693,1.428217323,0.3184418768
 C,0,-2.7946620853,2.5184511431,-1.243000906
 H,0,-1.7960685291,2.9613471329,-1.3205921828
 H,0,-3.3838282174,2.8652186608,-2.0959556223
 C,0,-3.4407491615,2.8808442427,0.0934055239
 H,0,-4.5348642884,2.8248764957,0.0563324718
 H,0,-3.1732696128,3.8733582173,0.461116064
 N,0,-0.3903453957,-0.6504894227,0.9194472074
 H,0,-0.952216353,-1.4648226156,1.1827264983
 C,0,1.070420801,-0.5507064362,1.0341508656
 H,0,1.3440888782,-0.5765448857,2.0983240901
 C,0,1.2803638298,0.8737160654,0.5328560672
 C,0,1.8528990516,-1.6361014246,0.2676484512
 H,0,1.6599254604,-1.5090092414,-0.8011542658
 H,0,1.4384228063,-2.6069608796,0.5695560243
 O,0,2.2426936909,1.5262732646,0.3325707161
 C,0,3.3593916621,-1.601891554,0.5653801645
 H,0,3.7717934702,-0.6267346025,0.2785366252
 H,0,3.5175393816,-1.7057506322,1.648168624
 C,0,4.1161767802,-2.7158017655,-0.1703587723
 H,0,3.9514178597,-2.6139580576,-1.2528808751
 H,0,3.7023772591,-3.6938915481,0.1173558722
 C,0,5.6373299867,-2.7099579475,0.1000195861
 H,0,6.1013349663,-3.4696924623,-0.539847809
 H,0,6.0559490491,-1.7459016802,-0.2173098674
 N,0,6.0781270713,-2.9553414474,1.4682535759
 H,0,5.7314626974,-3.8467361691,1.8165389858
 H,0,5.7635694072,-2.2301605368,2.1078594373
 O,0,0.4772067119,0.1328284764,-2.2505425267
 H,0,0.4997080046,-0.5046923796,-2.9817567234
 H,0,0.8896193224,0.9307664775,-2.6188803585
 Recover connectivity data from disk.
                           ----------------------------
                           !    Current Parameters    !
                           ! (Angstroms and Degrees)  !
 --------------------------                            --------------------------
 ! Name  Definition              Value                                          !
 --------------------------------------------------------------------------------
 ! R1    R(1,2)                  1.0212                                         !
 ! R2    R(1,3)                  1.0202                                         !
 ! R3    R(1,4)                  1.4616                                         !
 ! R4    R(4,5)                  1.097                                          !
 ! R5    R(4,6)                  1.5502                                         !
 ! R6    R(4,7)                  1.554                                          !
 ! R7    R(6,10)                 1.2218                                         !
 ! R8    R(6,22)                 1.3879                                         !
 ! R9    R(7,8)                  1.0952                                         !
 ! R10   R(7,9)                  1.0958                                         !
 ! R11   R(7,11)                 1.5128                                         !
 ! R12   R(11,12)                1.4009                                         !
 ! R13   R(11,14)                1.4081                                         !
 ! R14   R(12,13)                1.0875                                         !
 ! R15   R(12,16)                1.4                                            !
 ! R16   R(14,15)                1.0892                                         !
 ! R17   R(14,18)                1.3988                                         !
 ! R18   R(16,17)                1.0864                                         !
 ! R19   R(16,20)                1.3949                                         !
 ! R20   R(18,19)                1.0878                                         !
 ! R21   R(18,20)                1.4005                                         !
 ! R22   R(20,21)                1.086                                          !
 ! R23   R(22,23)                1.463                                          !
 ! R24   R(22,33)                1.4833                                         !
 ! R25   R(23,24)                1.0928                                         !
 ! R26   R(23,25)                1.5018                                         !
 ! R27   R(23,26)                1.5605                                         !
 ! R28   R(25,29)                1.3172                                         !
 ! R29   R(25,36)                1.3073                                         !
 ! R30   R(26,27)                1.0928                                         !
 ! R31   R(26,28)                1.0945                                         !
 ! R32   R(26,30)                1.5359                                         !
 ! R33   R(30,31)                1.0952                                         !
 ! R34   R(30,32)                1.0931                                         !
 ! R35   R(30,33)                1.528                                          !
 ! R36   R(33,34)                1.0962                                         !
 ! R37   R(33,35)                1.0917                                         !
 ! R38   R(36,37)                1.0238                                         !
 ! R39   R(36,38)                1.4687                                         !
 ! R40   R(38,39)                1.0991                                         !
 ! R41   R(38,40)                1.5246                                         !
 ! R42   R(38,41)                1.542                                          !
 ! R43   R(40,44)                1.1798                                         !
 ! R44   R(40,57)                2.9902                                         !
 ! R45   R(41,42)                1.0935                                         !
 ! R46   R(41,43)                1.098                                          !
 ! R47   R(41,45)                1.536                                          !
 ! R48   R(45,46)                1.0969                                         !
 ! R49   R(45,47)                1.0992                                         !
 ! R50   R(45,48)                1.5345                                         !
 ! R51   R(48,49)                1.0997                                         !
 ! R52   R(48,50)                1.1003                                         !
 ! R53   R(48,51)                1.545                                          !
 ! R54   R(51,52)                1.0963                                         !
 ! R55   R(51,53)                1.0979                                         !
 ! R56   R(51,54)                1.4583                                         !
 ! R57   R(54,55)                1.0179                                         !
 ! R58   R(54,56)                1.0168                                         !
 ! R59   R(57,58)                0.9704                                         !
 ! R60   R(57,59)                0.9708                                         !
 ! A1    A(2,1,3)              104.8877                                         !
 ! A2    A(2,1,4)              108.0017                                         !
 ! A3    A(3,1,4)              109.9511                                         !
 ! A4    A(1,4,5)              106.9045                                         !
 ! A5    A(1,4,6)              110.5385                                         !
 ! A6    A(1,4,7)              108.458                                          !
 ! A7    A(5,4,6)              110.5603                                         !
 ! A8    A(5,4,7)              108.4199                                         !
 ! A9    A(6,4,7)              111.7988                                         !
 ! A10   A(4,6,10)             119.5274                                         !
 ! A11   A(4,6,22)             120.7269                                         !
 ! A12   A(10,6,22)            119.5347                                         !
 ! A13   A(4,7,8)              105.5632                                         !
 ! A14   A(4,7,9)              108.7471                                         !
 ! A15   A(4,7,11)             114.1542                                         !
 ! A16   A(8,7,9)              107.2561                                         !
 ! A17   A(8,7,11)             109.9762                                         !
 ! A18   A(9,7,11)             110.8042                                         !
 ! A19   A(7,11,12)            121.9452                                         !
 ! A20   A(7,11,14)            119.8971                                         !
 ! A21   A(12,11,14)           118.1453                                         !
 ! A22   A(11,12,13)           119.3733                                         !
 ! A23   A(11,12,16)           120.9885                                         !
 ! A24   A(13,12,16)           119.6362                                         !
 ! A25   A(11,14,15)           119.0908                                         !
 ! A26   A(11,14,18)           121.039                                          !
 ! A27   A(15,14,18)           119.8097                                         !
 ! A28   A(12,16,17)           119.6675                                         !
 ! A29   A(12,16,20)           120.3182                                         !
 ! A30   A(17,16,20)           120.0091                                         !
 ! A31   A(14,18,19)           119.9861                                         !
 ! A32   A(14,18,20)           120.0171                                         !
 ! A33   A(19,18,20)           119.9302                                         !
 ! A34   A(16,20,18)           119.4644                                         !
 ! A35   A(16,20,21)           120.2986                                         !
 ! A36   A(18,20,21)           120.205                                          !
 ! A37   A(6,22,23)            126.3507                                         !
 ! A38   A(6,22,33)            118.0888                                         !
 ! A39   A(23,22,33)           111.869                                          !
 ! A40   A(22,23,24)           112.0278                                         !
 ! A41   A(22,23,25)           112.654                                          !
 ! A42   A(22,23,26)           104.3275                                         !
 ! A43   A(24,23,25)           106.5468                                         !
 ! A44   A(24,23,26)           110.6761                                         !
 ! A45   A(25,23,26)           110.6918                                         !
 ! A46   A(23,25,29)           122.0644                                         !
 ! A47   A(23,25,36)           124.8163                                         !
 ! A48   A(29,25,36)           113.1158                                         !
 ! A49   A(23,26,27)           112.4882                                         !
 ! A50   A(23,26,28)           107.0193                                         !
 ! A51   A(23,26,30)           103.7359                                         !
 ! A52   A(27,26,28)           108.5554                                         !
 ! A53   A(27,26,30)           113.7202                                         !
 ! A54   A(28,26,30)           111.0969                                         !
 ! A55   A(26,30,31)           110.5139                                         !
 ! A56   A(26,30,32)           111.9803                                         !
 ! A57   A(26,30,33)           103.5388                                         !
 ! A58   A(31,30,32)           107.9316                                         !
 ! A59   A(31,30,33)           110.5855                                         !
 ! A60   A(32,30,33)           112.292                                          !
 ! A61   A(22,33,30)           103.5736                                         !
 ! A62   A(22,33,34)           109.6426                                         !
 ! A63   A(22,33,35)           109.5911                                         !
 ! A64   A(30,33,34)           112.3555                                         !
 ! A65   A(30,33,35)           113.9921                                         !
 ! A66   A(34,33,35)           107.5993                                         !
 ! A67   A(25,36,37)           122.1245                                         !
 ! A68   A(25,36,38)           112.2608                                         !
 ! A69   A(37,36,38)           125.438                                          !
 ! A70   A(36,38,39)           108.7643                                         !
 ! A71   A(36,38,40)           100.0649                                         !
 ! A72   A(36,38,41)           114.7122                                         !
 ! A73   A(39,38,40)           107.8204                                         !
 ! A74   A(39,38,41)           109.7782                                         !
 ! A75   A(40,38,41)           115.1071                                         !
 ! A76   A(38,40,44)           133.2269                                         !
 ! A77   A(38,40,57)            92.154                                          !
 ! A78   A(44,40,57)           101.4261                                         !
 ! A79   A(38,41,42)           108.3301                                         !
 ! A80   A(38,41,43)           107.107                                          !
 ! A81   A(38,41,45)           112.6843                                         !
 ! A82   A(42,41,43)           107.7531                                         !
 ! A83   A(42,41,45)           111.0972                                         !
 ! A84   A(43,41,45)           109.6722                                         !
 ! A85   A(41,45,46)           109.7455                                         !
 ! A86   A(41,45,47)           109.2656                                         !
 ! A87   A(41,45,48)           111.9988                                         !
 ! A88   A(46,45,47)           106.7081                                         !
 ! A89   A(46,45,48)           109.5432                                         !
 ! A90   A(47,45,48)           109.436                                          !
 ! A91   A(45,48,49)           109.3201                                         !
 ! A92   A(45,48,50)           109.5375                                         !
 ! A93   A(45,48,51)           113.5095                                         !
 ! A94   A(49,48,50)           106.4619                                         !
 ! A95   A(49,48,51)           108.628                                          !
 ! A96   A(50,48,51)           109.1397                                         !
 ! A97   A(48,51,52)           108.1763                                         !
 ! A98   A(48,51,53)           109.1565                                         !
 ! A99   A(48,51,54)           117.4623                                         !
 ! A100  A(52,51,53)           106.167                                          !
 ! A101  A(52,51,54)           107.642                                          !
 ! A102  A(53,51,54)           107.6796                                         !
 ! A103  A(51,54,55)           111.4356                                         !
 ! A104  A(51,54,56)           112.1274                                         !
 ! A105  A(55,54,56)           107.6964                                         !
 ! A106  A(40,57,58)           149.091                                          !
 ! A107  A(40,57,59)            92.0298                                         !
 ! A108  A(58,57,59)           104.1373                                         !
 ! D1    D(2,1,4,5)            174.9478                                         !
 ! D2    D(2,1,4,6)             54.5614                                         !
 ! D3    D(2,1,4,7)            -68.3343                                         !
 ! D4    D(3,1,4,5)             61.0343                                         !
 ! D5    D(3,1,4,6)            -59.352                                          !
 ! D6    D(3,1,4,7)            177.7522                                         !
 ! D7    D(1,4,6,10)           -40.0063                                         !
 ! D8    D(1,4,6,22)           134.6914                                         !
 ! D9    D(5,4,6,10)          -158.1812                                         !
 ! D10   D(5,4,6,22)            16.5165                                         !
 ! D11   D(7,4,6,10)            80.923                                          !
 ! D12   D(7,4,6,22)          -104.3793                                         !
 ! D13   D(1,4,7,8)            -35.6414                                         !
 ! D14   D(1,4,7,9)             79.175                                          !
 ! D15   D(1,4,7,11)          -156.5428                                         !
 ! D16   D(5,4,7,8)             80.097                                          !
 ! D17   D(5,4,7,9)           -165.0866                                         !
 ! D18   D(5,4,7,11)           -40.8043                                         !
 ! D19   D(6,4,7,8)           -157.7715                                         !
 ! D20   D(6,4,7,9)            -42.9551                                         !
 ! D21   D(6,4,7,11)            81.3271                                         !
 ! D22   D(4,6,22,23)           27.9881                                         !
 ! D23   D(4,6,22,33)         -175.5213                                         !
 ! D24   D(10,6,22,23)        -157.3146                                         !
 ! D25   D(10,6,22,33)          -0.824                                          !
 ! D26   D(4,7,11,12)         -103.2396                                         !
 ! D27   D(4,7,11,14)           75.4554                                         !
 ! D28   D(8,7,11,12)          138.3435                                         !
 ! D29   D(8,7,11,14)          -42.9615                                         !
 ! D30   D(9,7,11,12)           19.9347                                         !
 ! D31   D(9,7,11,14)         -161.3703                                         !
 ! D32   D(7,11,12,13)          -3.3095                                         !
 ! D33   D(7,11,12,16)         177.2042                                         !
 ! D34   D(14,11,12,13)        177.9735                                         !
 ! D35   D(14,11,12,16)         -1.5128                                         !
 ! D36   D(7,11,14,15)           5.6307                                         !
 ! D37   D(7,11,14,18)        -177.2039                                         !
 ! D38   D(12,11,14,15)       -175.6251                                         !
 ! D39   D(12,11,14,18)          1.5403                                         !
 ! D40   D(11,12,16,17)        179.3606                                         !
 ! D41   D(11,12,16,20)          0.191                                          !
 ! D42   D(13,12,16,17)         -0.1244                                         !
 ! D43   D(13,12,16,20)       -179.294                                          !
 ! D44   D(11,14,18,19)       -177.276                                          !
 ! D45   D(11,14,18,20)         -0.2449                                         !
 ! D46   D(15,14,18,19)         -0.1308                                         !
 ! D47   D(15,14,18,20)        176.9004                                         !
 ! D48   D(12,16,20,18)          1.139                                          !
 ! D49   D(12,16,20,21)        179.0861                                         !
 ! D50   D(17,16,20,18)       -178.0278                                         !
 ! D51   D(17,16,20,21)         -0.0806                                         !
 ! D52   D(14,18,20,16)         -1.1092                                         !
 ! D53   D(14,18,20,21)       -179.0582                                         !
 ! D54   D(19,18,20,16)        175.9237                                         !
 ! D55   D(19,18,20,21)         -2.0254                                         !
 ! D56   D(6,22,23,24)          34.8282                                         !
 ! D57   D(6,22,23,25)         -85.2891                                         !
 ! D58   D(6,22,23,26)         154.5937                                         !
 ! D59   D(33,22,23,24)       -122.8873                                         !
 ! D60   D(33,22,23,25)        116.9954                                         !
 ! D61   D(33,22,23,26)         -3.1218                                         !
 ! D62   D(6,22,33,30)        -178.7159                                         !
 ! D63   D(6,22,33,34)         -58.6079                                         !
 ! D64   D(6,22,33,35)          59.2836                                         !
 ! D65   D(23,22,33,30)        -18.9703                                         !
 ! D66   D(23,22,33,34)        101.1378                                         !
 ! D67   D(23,22,33,35)       -140.9707                                         !
 ! D68   D(22,23,25,29)        -52.9124                                         !
 ! D69   D(22,23,25,36)        127.8132                                         !
 ! D70   D(24,23,25,29)       -176.1402                                         !
 ! D71   D(24,23,25,36)          4.5854                                         !
 ! D72   D(26,23,25,29)         63.4652                                         !
 ! D73   D(26,23,25,36)       -115.8092                                         !
 ! D74   D(22,23,26,27)        147.1934                                         !
 ! D75   D(22,23,26,28)        -93.6695                                         !
 ! D76   D(22,23,26,30)         23.8685                                         !
 ! D77   D(24,23,26,27)        -92.1339                                         !
 ! D78   D(24,23,26,28)         27.0032                                         !
 ! D79   D(24,23,26,30)        144.5412                                         !
 ! D80   D(25,23,26,27)         25.7665                                         !
 ! D81   D(25,23,26,28)        144.9037                                         !
 ! D82   D(25,23,26,30)        -97.5583                                         !
 ! D83   D(23,25,36,37)         -4.9888                                         !
 ! D84   D(23,25,36,38)        179.598                                          !
 ! D85   D(29,25,36,37)        175.6798                                         !
 ! D86   D(29,25,36,38)          0.2666                                         !
 ! D87   D(23,26,30,31)         83.1003                                         !
 ! D88   D(23,26,30,32)       -156.5341                                         !
 ! D89   D(23,26,30,33)        -35.3396                                         !
 ! D90   D(27,26,30,31)        -39.4126                                         !
 ! D91   D(27,26,30,32)         80.9529                                         !
 ! D92   D(27,26,30,33)       -157.8526                                         !
 ! D93   D(28,26,30,31)       -162.2378                                         !
 ! D94   D(28,26,30,32)        -41.8722                                         !
 ! D95   D(28,26,30,33)         79.3223                                         !
 ! D96   D(26,30,33,22)         33.2418                                         !
 ! D97   D(26,30,33,34)        -85.0009                                         !
 ! D98   D(26,30,33,35)        152.2552                                         !
 ! D99   D(31,30,33,22)        -85.1485                                         !
 ! D100  D(31,30,33,34)        156.6088                                         !
 ! D101  D(31,30,33,35)         33.8649                                         !
 ! D102  D(32,30,33,22)        154.226                                          !
 ! D103  D(32,30,33,34)         35.9833                                         !
 ! D104  D(32,30,33,35)        -86.7606                                         !
 ! D105  D(25,36,38,39)        109.5394                                         !
 ! D106  D(25,36,38,40)         -3.326                                          !
 ! D107  D(25,36,38,41)       -127.1106                                         !
 ! D108  D(37,36,38,39)        -65.6924                                         !
 ! D109  D(37,36,38,40)       -178.5578                                         !
 ! D110  D(37,36,38,41)         57.6575                                         !
 ! D111  D(36,38,40,44)       -176.2381                                         !
 ! D112  D(36,38,40,57)        -68.334                                          !
 ! D113  D(39,38,40,44)         70.1695                                         !
 ! D114  D(39,38,40,57)        178.0736                                         !
 ! D115  D(41,38,40,44)        -52.7289                                         !
 ! D116  D(41,38,40,57)         55.1751                                         !
 ! D117  D(36,38,41,42)         64.1902                                         !
 ! D118  D(36,38,41,43)        -51.7893                                         !
 ! D119  D(36,38,41,45)       -172.4796                                         !
 ! D120  D(39,38,41,42)       -173.004                                          !
 ! D121  D(39,38,41,43)         71.0164                                         !
 ! D122  D(39,38,41,45)        -49.6739                                         !
 ! D123  D(40,38,41,42)        -51.1569                                         !
 ! D124  D(40,38,41,43)       -167.1364                                         !
 ! D125  D(40,38,41,45)         72.1732                                         !
 ! D126  D(38,40,57,58)        -39.6705                                         !
 ! D127  D(38,40,57,59)       -162.0131                                         !
 ! D128  D(44,40,57,58)         95.3073                                         !
 ! D129  D(44,40,57,59)        -27.0353                                         !
 ! D130  D(38,41,45,46)        -59.9188                                         !
 ! D131  D(38,41,45,47)         56.763                                          !
 ! D132  D(38,41,45,48)        178.1879                                         !
 ! D133  D(42,41,45,46)         61.8579                                         !
 ! D134  D(42,41,45,47)        178.5398                                         !
 ! D135  D(42,41,45,48)        -60.0354                                         !
 ! D136  D(43,41,45,46)       -179.1289                                         !
 ! D137  D(43,41,45,47)        -62.4471                                         !
 ! D138  D(43,41,45,48)         58.9778                                         !
 ! D139  D(41,45,48,49)         58.3126                                         !
 ! D140  D(41,45,48,50)        -57.9856                                         !
 ! D141  D(41,45,48,51)        179.7544                                         !
 ! D142  D(46,45,48,49)        -63.6965                                         !
 ! D143  D(46,45,48,50)       -179.9947                                         !
 ! D144  D(46,45,48,51)         57.7453                                         !
 ! D145  D(47,45,48,49)        179.6393                                         !
 ! D146  D(47,45,48,50)         63.3412                                         !
 ! D147  D(47,45,48,51)        -58.9188                                         !
 ! D148  D(45,48,51,52)       -174.4488                                         !
 ! D149  D(45,48,51,53)        -59.3427                                         !
 ! D150  D(45,48,51,54)         63.5366                                         !
 ! D151  D(49,48,51,52)        -52.6207                                         !
 ! D152  D(49,48,51,53)         62.4854                                         !
 ! D153  D(49,48,51,54)       -174.6353                                         !
 ! D154  D(50,48,51,52)         63.0709                                         !
 ! D155  D(50,48,51,53)        178.177                                          !
 ! D156  D(50,48,51,54)        -58.9437                                         !
 ! D157  D(48,51,54,55)         57.2108                                         !
 ! D158  D(48,51,54,56)        -63.5976                                         !
 ! D159  D(52,51,54,55)        -65.0785                                         !
 ! D160  D(52,51,54,56)        174.1131                                         !
 ! D161  D(53,51,54,55)       -179.1598                                         !
 ! D162  D(53,51,54,56)         60.0318                                         !
 --------------------------------------------------------------------------------
 Symmetry turned off by external request.
 Stoichiometry    C20H31N4O4(1+)
 Framework group  C1[X(C20H31N4O4)]
 Deg. of freedom   171
 Full point group                 C1      NOp   1
                          Input orientation:                          
 ---------------------------------------------------------------------
 Center     Atomic      Atomic             Coordinates (Angstroms)
 Number     Number       Type             X           Y           Z
 ---------------------------------------------------------------------
      1          7           0       -2.431693    1.604526    4.625849
      2          1           0       -3.266362    2.101611    4.940578
      3          1           0       -1.747045    2.336430    4.435111
      4          6           0       -2.765155    0.899195    3.389900
      5          1           0       -1.836351    0.448111    3.019525
      6          6           0       -3.348091    1.882526    2.342858
      7          6           0       -3.764140   -0.241908    3.728794
      8          1           0       -3.460143   -0.616169    4.712091
      9          1           0       -4.765690    0.188395    3.840192
     10          8           0       -4.120216    2.758030    2.703481
     11          6           0       -3.774296   -1.374037    2.725412
     12          6           0       -4.794873   -1.513900    1.775983
     13          1           0       -5.634209   -0.822497    1.789279
     14          6           0       -2.721904   -2.309510    2.712048
     15          1           0       -1.958456   -2.258860    3.487274
     16          6           0       -4.754514   -2.535442    0.819487
     17          1           0       -5.562746   -2.630434    0.099760
     18          6           0       -2.677293   -3.331353    1.757859
     19          1           0       -1.880439   -4.071105    1.790334
     20          6           0       -3.692099   -3.439103    0.798765
     21          1           0       -3.668545   -4.240347    0.066066
     22          7           0       -2.919912    1.848994    1.023041
     23          6           0       -2.404950    0.681239    0.307870
     24          1           0       -2.900551   -0.241574    0.619374
     25          6           0       -0.934017    0.471482    0.526260
     26          6           0       -2.701506    0.986184   -1.193563
     27          1           0       -1.943892    0.570039   -1.862154
     28          1           0       -3.665612    0.525056   -1.429755
     29          8           0       -0.052784    1.428217    0.318442
     30          6           0       -2.794662    2.518451   -1.243001
     31          1           0       -1.796069    2.961347   -1.320592
     32          1           0       -3.383828    2.865219   -2.095956
     33          6           0       -3.440749    2.880844    0.093406
     34          1           0       -4.534864    2.824876    0.056332
     35          1           0       -3.173270    3.873358    0.461116
     36          7           0       -0.390345   -0.650489    0.919447
     37          1           0       -0.952216   -1.464823    1.182726
     38          6           0        1.070421   -0.550706    1.034151
     39          1           0        1.344089   -0.576545    2.098324
     40          6           0        1.280364    0.873716    0.532856
     41          6           0        1.852899   -1.636101    0.267648
     42          1           0        1.659925   -1.509009   -0.801154
     43          1           0        1.438423   -2.606961    0.569556
     44          8           0        2.242694    1.526273    0.332571
     45          6           0        3.359392   -1.601892    0.565380
     46          1           0        3.771793   -0.626735    0.278537
     47          1           0        3.517539   -1.705751    1.648169
     48          6           0        4.116177   -2.715802   -0.170359
     49          1           0        3.951418   -2.613958   -1.252881
     50          1           0        3.702377   -3.693892    0.117356
     51          6           0        5.637330   -2.709958    0.100020
     52          1           0        6.101335   -3.469692   -0.539848
     53          1           0        6.055949   -1.745902   -0.217310
     54          7           0        6.078127   -2.955341    1.468254
     55          1           0        5.731463   -3.846736    1.816539
     56          1           0        5.763569   -2.230161    2.107859
     57          8           0        0.477207    0.132828   -2.250543
     58          1           0        0.499708   -0.504692   -2.981757
     59          1           0        0.889619    0.930766   -2.618880
 ---------------------------------------------------------------------
 Rotational constants (GHZ):           0.2376670           0.1012053           0.0910230
 Standard basis: 6-31G(d) (6D, 7F)
   482 basis functions,   908 primitive gaussians,   482 cartesian basis functions
   105 alpha electrons      105 beta electrons
       nuclear repulsion energy      2818.3623528505 Hartrees.
 NAtoms=   59 NActive=   59 NUniq=   59 SFac= 1.00D+00 NAtFMM=   60 NAOKFM=F Big=F
 Integral buffers will be    131072 words long.
 Raffenetti 2 integral format.
 Two-electron integral symmetry is turned off.
 One-electron integrals computed using PRISM.
 NBasis=   482 RedAO= T EigKep=  4.77D-04  NBF=   482
 NBsUse=   482 1.00D-06 EigRej= -1.00D+00 NBFU=   482
 Initial guess from the checkpoint file:  "conf-472.chk"
 B after Tr=     0.000000    0.000000    0.000000
         Rot=    1.000000    0.000000    0.000000    0.000000 Ang=   0.00 deg.
 Requested convergence on RMS density matrix=1.00D-08 within 128 cycles.
 Requested convergence on MAX density matrix=1.00D-06.
 Requested convergence on             energy=1.00D-06.
 No special actions if energy rises.
 SCF Done:  E(RB3LYP) =  -1300.47229670     A.U. after    3 cycles
            NFock=  3  Conv=0.11D-08     -V/T= 2.0095

 **********************************************************************

            Population analysis using the SCF Density.

 **********************************************************************

 Alpha  occ. eigenvalues --  -19.39465 -19.32911 -19.29419 -19.22678 -14.57813
 Alpha  occ. eigenvalues --  -14.48702 -14.41473 -14.39084 -10.50243 -10.49998
 Alpha  occ. eigenvalues --  -10.42173 -10.39476 -10.39349 -10.33822 -10.33728
 Alpha  occ. eigenvalues --  -10.32828 -10.32767 -10.31491 -10.31215 -10.30972
 Alpha  occ. eigenvalues --  -10.30693 -10.30612 -10.30555 -10.30419 -10.30332
 Alpha  occ. eigenvalues --  -10.29627 -10.29008 -10.28085  -1.31735  -1.23358
 Alpha  occ. eigenvalues --   -1.14947  -1.14903  -1.14229  -1.06886  -0.99298
 Alpha  occ. eigenvalues --   -0.97358  -0.97073  -0.95964  -0.92219  -0.90517
 Alpha  occ. eigenvalues --   -0.88956  -0.87358  -0.86148  -0.83041  -0.82417
 Alpha  occ. eigenvalues --   -0.81941  -0.78940  -0.77848  -0.75107  -0.73915
 Alpha  occ. eigenvalues --   -0.72172  -0.71720  -0.71015  -0.69440  -0.68472
 Alpha  occ. eigenvalues --   -0.67899  -0.67157  -0.66591  -0.64935  -0.63054
 Alpha  occ. eigenvalues --   -0.62659  -0.62237  -0.61376  -0.60026  -0.58782
 Alpha  occ. eigenvalues --   -0.58211  -0.57737  -0.57390  -0.57080  -0.56927
 Alpha  occ. eigenvalues --   -0.56375  -0.56214  -0.55840  -0.55022  -0.53694
 Alpha  occ. eigenvalues --   -0.53514  -0.53363  -0.52827  -0.52106  -0.51861
 Alpha  occ. eigenvalues --   -0.51343  -0.50879  -0.50002  -0.49668  -0.48947
 Alpha  occ. eigenvalues --   -0.48546  -0.48014  -0.47638  -0.47214  -0.46796
 Alpha  occ. eigenvalues --   -0.46364  -0.45580  -0.45323  -0.45036  -0.44985
 Alpha  occ. eigenvalues --   -0.44642  -0.44287  -0.43553  -0.42468  -0.37345
 Alpha  occ. eigenvalues --   -0.37244  -0.36170  -0.36001  -0.33850  -0.30912
 Alpha virt. eigenvalues --   -0.21015  -0.16048  -0.12595  -0.12376  -0.10066
 Alpha virt. eigenvalues --   -0.08536  -0.06236  -0.04740  -0.03689  -0.02744
 Alpha virt. eigenvalues --   -0.01645  -0.01486  -0.00410   0.00227   0.00380
 Alpha virt. eigenvalues --    0.01196   0.01411   0.01870   0.02239   0.02493
 Alpha virt. eigenvalues --    0.02692   0.03066   0.03330   0.03651   0.04046
 Alpha virt. eigenvalues --    0.04496   0.05128   0.05740   0.06046   0.06294
 Alpha virt. eigenvalues --    0.06498   0.07133   0.07253   0.07630   0.07932
 Alpha virt. eigenvalues --    0.08281   0.08377   0.09043   0.09214   0.09317
 Alpha virt. eigenvalues --    0.09860   0.10129   0.10682   0.10982   0.11459
 Alpha virt. eigenvalues --    0.12180   0.13227   0.13454   0.14538   0.15586
 Alpha virt. eigenvalues --    0.16184   0.16439   0.16950   0.17413   0.19128
 Alpha virt. eigenvalues --    0.19741   0.20220   0.20861   0.21773   0.21885
 Alpha virt. eigenvalues --    0.23770   0.24381   0.27440   0.29490   0.32729
 Alpha virt. eigenvalues --    0.34693   0.35345   0.36644   0.37029   0.38102
 Alpha virt. eigenvalues --    0.39227   0.39453   0.40174   0.41005   0.41139
 Alpha virt. eigenvalues --    0.42305   0.42805   0.43300   0.43517   0.44112
 Alpha virt. eigenvalues --    0.44859   0.45081   0.46155   0.46538   0.46705
 Alpha virt. eigenvalues --    0.47292   0.47621   0.48739   0.49320   0.49711
 Alpha virt. eigenvalues --    0.50228   0.50697   0.50933   0.51833   0.51966
 Alpha virt. eigenvalues --    0.52738   0.52839   0.53846   0.54111   0.55489
 Alpha virt. eigenvalues --    0.55754   0.56225   0.56823   0.57580   0.58191
 Alpha virt. eigenvalues --    0.58840   0.59909   0.60360   0.60925   0.62326
 Alpha virt. eigenvalues --    0.63405   0.64261   0.65204   0.65303   0.66264
 Alpha virt. eigenvalues --    0.66493   0.66897   0.67557   0.68409   0.69092
 Alpha virt. eigenvalues --    0.70481   0.70869   0.71323   0.71579   0.71852
 Alpha virt. eigenvalues --    0.72101   0.72326   0.72968   0.73461   0.73560
 Alpha virt. eigenvalues --    0.74140   0.74395   0.74691   0.75099   0.75442
 Alpha virt. eigenvalues --    0.76108   0.77006   0.77577   0.77636   0.78652
 Alpha virt. eigenvalues --    0.78833   0.79141   0.79994   0.80440   0.80822
 Alpha virt. eigenvalues --    0.81683   0.81975   0.82432   0.82767   0.83229
 Alpha virt. eigenvalues --    0.83813   0.84003   0.85151   0.85296   0.85759
 Alpha virt. eigenvalues --    0.85985   0.87004   0.87252   0.87473   0.87862
 Alpha virt. eigenvalues --    0.89302   0.90841   0.91271   0.92357   0.92563
 Alpha virt. eigenvalues --    0.92753   0.94858   0.95058   0.96289   0.96916
 Alpha virt. eigenvalues --    0.98287   0.98595   0.99093   1.00359   1.01644
 Alpha virt. eigenvalues --    1.02570   1.03555   1.03873   1.05542   1.07336
 Alpha virt. eigenvalues --    1.08312   1.09592   1.10616   1.11472   1.11499
 Alpha virt. eigenvalues --    1.13144   1.15280   1.15920   1.17514   1.19205
 Alpha virt. eigenvalues --    1.20293   1.21012   1.22112   1.22936   1.24141
 Alpha virt. eigenvalues --    1.27447   1.29555   1.29999   1.30502   1.31581
 Alpha virt. eigenvalues --    1.32509   1.33905   1.35836   1.36343   1.36928
 Alpha virt. eigenvalues --    1.37828   1.38383   1.40034   1.40395   1.40755
 Alpha virt. eigenvalues --    1.42132   1.42968   1.43874   1.45120   1.45377
 Alpha virt. eigenvalues --    1.46506   1.48440   1.50254   1.52611   1.52802
 Alpha virt. eigenvalues --    1.54793   1.55493   1.56169   1.58552   1.58930
 Alpha virt. eigenvalues --    1.60090   1.61001   1.62388   1.62982   1.63411
 Alpha virt. eigenvalues --    1.64598   1.64923   1.66700   1.67516   1.68410
 Alpha virt. eigenvalues --    1.68954   1.69627   1.69987   1.71268   1.71887
 Alpha virt. eigenvalues --    1.72547   1.73169   1.75051   1.75890   1.76773
 Alpha virt. eigenvalues --    1.77194   1.78074   1.79048   1.79798   1.80231
 Alpha virt. eigenvalues --    1.82112   1.82413   1.83533   1.83657   1.85960
 Alpha virt. eigenvalues --    1.86098   1.86939   1.87622   1.88230   1.88803
 Alpha virt. eigenvalues --    1.90029   1.91003   1.91437   1.92253   1.93243
 Alpha virt. eigenvalues --    1.93914   1.94323   1.94515   1.96353   1.96834
 Alpha virt. eigenvalues --    1.97077   1.98311   1.99780   2.00445   2.01662
 Alpha virt. eigenvalues --    2.01991   2.02761   2.03040   2.04053   2.05096
 Alpha virt. eigenvalues --    2.05701   2.06839   2.08650   2.09399   2.09956
 Alpha virt. eigenvalues --    2.10417   2.12306   2.13234   2.13595   2.13884
 Alpha virt. eigenvalues --    2.16854   2.18181   2.19269   2.19920   2.20532
 Alpha virt. eigenvalues --    2.21312   2.22742   2.23241   2.25434   2.26164
 Alpha virt. eigenvalues --    2.28367   2.29553   2.31012   2.31888   2.32359
 Alpha virt. eigenvalues --    2.34067   2.34300   2.36338   2.37843   2.38529
 Alpha virt. eigenvalues --    2.40025   2.42146   2.43015   2.44033   2.45693
 Alpha virt. eigenvalues --    2.46238   2.46661   2.48004   2.48722   2.49862
 Alpha virt. eigenvalues --    2.53127   2.53425   2.54265   2.57110   2.58658
 Alpha virt. eigenvalues --    2.58830   2.59293   2.60100   2.61120   2.61596
 Alpha virt. eigenvalues --    2.63000   2.63357   2.65348   2.66369   2.67940
 Alpha virt. eigenvalues --    2.68565   2.69421   2.71802   2.72560   2.79979
 Alpha virt. eigenvalues --    2.81639   2.85344   2.87101   2.91221   2.93717
 Alpha virt. eigenvalues --    2.94386   3.05334   3.08415   3.28445   3.53436
 Alpha virt. eigenvalues --    3.69835   3.71549   3.85908   3.94132   3.96908
 Alpha virt. eigenvalues --    4.00840   4.04867   4.06138   4.08427   4.08816
 Alpha virt. eigenvalues --    4.11341   4.14544   4.17142   4.19682   4.20845
 Alpha virt. eigenvalues --    4.23832   4.24868   4.28280   4.33038   4.36118
 Alpha virt. eigenvalues --    4.41930   4.44999   4.47633   4.58231   4.59957
 Alpha virt. eigenvalues --    4.60941   4.62797
          Condensed to atoms (all electrons):
 Mulliken charges:
               1
     1  N   -0.688344
     2  H    0.330724
     3  H    0.307403
     4  C   -0.063872
     5  H    0.099985
     6  C    0.584079
     7  C   -0.355838
     8  H    0.193822
     9  H    0.182236
    10  O   -0.483344
    11  C    0.159460
    12  C   -0.200141
    13  H    0.161362
    14  C   -0.232374
    15  H    0.151536
    16  C   -0.127165
    17  H    0.164753
    18  C   -0.161145
    19  H    0.154398
    20  C   -0.129993
    21  H    0.161900
    22  N   -0.466524
    23  C   -0.098673
    24  H    0.203651
    25  C    0.733844
    26  C   -0.324665
    27  H    0.193936
    28  H    0.188297
    29  O   -0.446480
    30  C   -0.306315
    31  H    0.171485
    32  H    0.186422
    33  C   -0.117534
    34  H    0.184427
    35  H    0.195869
    36  N   -0.605529
    37  H    0.391127
    38  C   -0.050877
    39  H    0.243764
    40  C    0.632070
    41  C   -0.275712
    42  H    0.184408
    43  H    0.166060
    44  O   -0.354424
    45  C   -0.280953
    46  H    0.175793
    47  H    0.135736
    48  C   -0.267925
    49  H    0.136322
    50  H    0.134423
    51  C   -0.146812
    52  H    0.163261
    53  H    0.152411
    54  N   -0.698494
    55  H    0.300512
    56  H    0.298757
    57  O   -0.784311
    58  H    0.420405
    59  H    0.422809
 Sum of Mulliken charges =   1.00000
 Mulliken charges with hydrogens summed into heavy atoms:
               1
     1  N   -0.050217
     4  C    0.036113
     6  C    0.584079
     7  C    0.020219
    10  O   -0.483344
    11  C    0.159460
    12  C   -0.038779
    14  C   -0.080838
    16  C    0.037587
    18  C   -0.006747
    20  C    0.031906
    22  N   -0.466524
    23  C    0.104978
    25  C    0.733844
    26  C    0.057568
    29  O   -0.446480
    30  C    0.051592
    33  C    0.262762
    36  N   -0.214402
    38  C    0.192887
    40  C    0.632070
    41  C    0.074755
    44  O   -0.354424
    45  C    0.030576
    48  C    0.002820
    51  C    0.168860
    54  N   -0.099225
    57  O    0.058903
 Electronic spatial extent (au):  <R**2>=          14307.5684
 Charge=              1.0000 electrons
 Dipole moment (field-independent basis, Debye):
    X=             -4.0621    Y=             -3.9484    Z=             -0.9389  Tot=              5.7422
 Quadrupole moment (field-independent basis, Debye-Ang):
   XX=           -148.6681   YY=           -146.7828   ZZ=           -144.2414
   XY=              1.5667   XZ=              1.3690   YZ=             -7.2394
 Traceless Quadrupole moment (field-independent basis, Debye-Ang):
   XX=             -2.1040   YY=             -0.2187   ZZ=              2.3227
   XY=              1.5667   XZ=              1.3690   YZ=             -7.2394
 Octapole moment (field-independent basis, Debye-Ang**2):
  XXX=            244.4114  YYY=            103.6299  ZZZ=           -557.6979  XYY=            151.7690
  XXY=             29.9523  XXZ=           -210.3520  XZZ=            165.6085  YZZ=             51.0665
  YYZ=           -178.7703  XYZ=             16.8779
 Hexadecapole moment (field-independent basis, Debye-Ang**3):
 XXXX=         -11530.6207 YYYY=          -3866.5559 ZZZZ=          -3696.2787 XXXY=           1472.7049
 XXXZ=           1137.8175 YYYX=            918.9323 YYYZ=            123.9715 ZZZX=           1253.1739
 ZZZY=            195.8445 XXYY=          -2545.2746 XXZZ=          -2355.6293 YYZZ=          -1244.2232
 XXYZ=             39.2770 YYXZ=            553.3803 ZZXY=            291.1793
 N-N= 2.818362352851D+03 E-N=-8.635982234727D+03  KE= 1.288295030559D+03
 Unable to Open any file for archive entry.
 1\1\GINC-LAC-303\SP\RB3LYP\6-31G(d)\C20H31N4O4(1+)\KENGMITH\25-May-202
 2\0\\# B3LYP/6-31G* guess=read geom=check nosymm integral(ultrafinegri
 d)\\Candidate Structure: Conf:472 Charge calc in gas phase\\1,1\N,0,-2
 .4316925609,1.6045264876,4.6258494476\H,0,-3.2663623722,2.1016108952,4
 .9405783682\H,0,-1.7470446607,2.3364304306,4.4351112567\C,0,-2.7651545
 046,0.8991945949,3.3899001864\H,0,-1.8363514448,0.4481109707,3.0195252
 558\C,0,-3.3480911993,1.882525598,2.3428583215\C,0,-3.7641397997,-0.24
 19079535,3.7287936668\H,0,-3.4601426993,-0.6161688829,4.7120913345\H,0
 ,-4.7656899428,0.1883949319,3.8401923375\O,0,-4.1202156814,2.758029958
 6,2.703481411\C,0,-3.7742957009,-1.3740374754,2.7254123411\C,0,-4.7948
 728999,-1.5138995041,1.7759825273\H,0,-5.6342089983,-0.8224971068,1.78
 92786043\C,0,-2.7219043651,-2.3095102586,2.7120476247\H,0,-1.958456262
 9,-2.258860343,3.4872739855\C,0,-4.7545143461,-2.5354418599,0.81948736
 88\H,0,-5.5627463494,-2.6304344309,0.0997602834\C,0,-2.6772932208,-3.3
 313534346,1.7578594636\H,0,-1.8804389341,-4.0711048629,1.7903344375\C,
 0,-3.6920989563,-3.4391032122,0.7987653119\H,0,-3.6685454788,-4.240346
 563,0.066066304\N,0,-2.9199120236,1.848993935,1.0230406249\C,0,-2.4049
 498265,0.6812390869,0.3078698096\H,0,-2.9005505955,-0.241574158,0.6193
 736805\C,0,-0.9340165691,0.4714816702,0.5262599468\C,0,-2.7015056553,0
 .9861843387,-1.1935631327\H,0,-1.9438921466,0.5700392038,-1.8621542177
 \H,0,-3.6656122969,0.5250557731,-1.4297546379\O,0,-0.052783693,1.42821
 7323,0.3184418768\C,0,-2.7946620853,2.5184511431,-1.243000906\H,0,-1.7
 960685291,2.9613471329,-1.3205921828\H,0,-3.3838282174,2.8652186608,-2
 .0959556223\C,0,-3.4407491615,2.8808442427,0.0934055239\H,0,-4.5348642
 884,2.8248764957,0.0563324718\H,0,-3.1732696128,3.8733582173,0.4611160
 64\N,0,-0.3903453957,-0.6504894227,0.9194472074\H,0,-0.952216353,-1.46
 48226156,1.1827264983\C,0,1.070420801,-0.5507064362,1.0341508656\H,0,1
 .3440888782,-0.5765448857,2.0983240901\C,0,1.2803638298,0.8737160654,0
 .5328560672\C,0,1.8528990516,-1.6361014246,0.2676484512\H,0,1.65992546
 04,-1.5090092414,-0.8011542658\H,0,1.4384228063,-2.6069608796,0.569556
 0243\O,0,2.2426936909,1.5262732646,0.3325707161\C,0,3.3593916621,-1.60
 1891554,0.5653801645\H,0,3.7717934702,-0.6267346025,0.2785366252\H,0,3
 .5175393816,-1.7057506322,1.648168624\C,0,4.1161767802,-2.7158017655,-
 0.1703587723\H,0,3.9514178597,-2.6139580576,-1.2528808751\H,0,3.702377
 2591,-3.6938915481,0.1173558722\C,0,5.6373299867,-2.7099579475,0.10001
 95861\H,0,6.1013349663,-3.4696924623,-0.539847809\H,0,6.0559490491,-1.
 7459016802,-0.2173098674\N,0,6.0781270713,-2.9553414474,1.4682535759\H
 ,0,5.7314626974,-3.8467361691,1.8165389858\H,0,5.7635694072,-2.2301605
 368,2.1078594373\O,0,0.4772067119,0.1328284764,-2.2505425267\H,0,0.499
 7080046,-0.5046923796,-2.9817567234\H,0,0.8896193224,0.9307664775,-2.6
 188803585\\Version=ES64L-G16RevC.01\HF=-1300.4722967\RMSD=1.080e-09\Di
 pole=0.0540805,-1.0809872,-2.28896\Quadrupole=-1.5642653,-0.1625717,1.
 7268369,1.1647943,1.0177908,-5.3822867\PG=C01 [X(C20H31N4O4)]\\@
 The archive entry for this job was punched.


 IF MATHEMATICALLY YOU END UP WITH THE INCORRECT ANSWER,
 TRY MULTIPLYING BY THE PAGE NUMBER.
 Job cpu time:       0 days  0 hours  2 minutes 51.1 seconds.
 Elapsed time:       0 days  0 hours  0 minutes 43.4 seconds.
 File lengths (MBytes):  RWF=    240 Int=      0 D2E=      0 Chk=     32 Scr=     16
 Normal termination of Gaussian 16 at Wed May 25 20:18:38 2022.
