 Entering Gaussian System, Link 0=/opt/software/Gaussian/g16-AVX2-C.01/g16/g16
 Input=charge-conf-474.com
 Output=charge-conf-474.log
 Initial command:
 /opt/software/Gaussian/g16-AVX2-C.01/g16/l1.exe "/mnt/gs18/scratch/users/kengmith/Gau-26369.inp" -scrdir="/mnt/gs18/scratch/users/kengmith/"
 Entering Link 1 = /opt/software/Gaussian/g16-AVX2-C.01/g16/l1.exe PID=     26379.
  
 Copyright (c) 1988-2019, Gaussian, Inc.  All Rights Reserved.
  
 This is part of the Gaussian(R) 16 program.  It is based on
 the Gaussian(R) 09 system (copyright 2009, Gaussian, Inc.),
 the Gaussian(R) 03 system (copyright 2003, Gaussian, Inc.),
 the Gaussian(R) 98 system (copyright 1998, Gaussian, Inc.),
 the Gaussian(R) 94 system (copyright 1995, Gaussian, Inc.),
 the Gaussian 92(TM) system (copyright 1992, Gaussian, Inc.),
 the Gaussian 90(TM) system (copyright 1990, Gaussian, Inc.),
 the Gaussian 88(TM) system (copyright 1988, Gaussian, Inc.),
 the Gaussian 86(TM) system (copyright 1986, Carnegie Mellon
 University), and the Gaussian 82(TM) system (copyright 1983,
 Carnegie Mellon University). Gaussian is a federally registered
 trademark of Gaussian, Inc.
  
 This software contains proprietary and confidential information,
 including trade secrets, belonging to Gaussian, Inc.
  
 This software is provided under written license and may be
 used, copied, transmitted, or stored only in accord with that
 written license.
  
 The following legend is applicable only to US Government
 contracts under FAR:
  
                    RESTRICTED RIGHTS LEGEND
  
 Use, reproduction and disclosure by the US Government is
 subject to restrictions as set forth in subparagraphs (a)
 and (c) of the Commercial Computer Software - Restricted
 Rights clause in FAR 52.227-19.
  
 Gaussian, Inc.
 340 Quinnipiac St., Bldg. 40, Wallingford CT 06492
  
  
 ---------------------------------------------------------------
 Warning -- This program may not be used in any manner that
 competes with the business of Gaussian, Inc. or will provide
 assistance to any competitor of Gaussian, Inc.  The licensee
 of this program is prohibited from giving any competitor of
 Gaussian, Inc. access to this program.  By using this program,
 the user acknowledges that Gaussian, Inc. is engaged in the
 business of creating and licensing software in the field of
 computational chemistry and represents and warrants to the
 licensee that it is not a competitor of Gaussian, Inc. and that
 it will not use this program in any manner prohibited above.
 ---------------------------------------------------------------
  

 Cite this work as:
 Gaussian 16, Revision C.01,
 M. J. Frisch, G. W. Trucks, H. B. Schlegel, G. E. Scuseria, 
 M. A. Robb, J. R. Cheeseman, G. Scalmani, V. Barone, 
 G. A. Petersson, H. Nakatsuji, X. Li, M. Caricato, A. V. Marenich, 
 J. Bloino, B. G. Janesko, R. Gomperts, B. Mennucci, H. P. Hratchian, 
 J. V. Ortiz, A. F. Izmaylov, J. L. Sonnenberg, D. Williams-Young, 
 F. Ding, F. Lipparini, F. Egidi, J. Goings, B. Peng, A. Petrone, 
 T. Henderson, D. Ranasinghe, V. G. Zakrzewski, J. Gao, N. Rega, 
 G. Zheng, W. Liang, M. Hada, M. Ehara, K. Toyota, R. Fukuda, 
 J. Hasegawa, M. Ishida, T. Nakajima, Y. Honda, O. Kitao, H. Nakai, 
 T. Vreven, K. Throssell, J. A. Montgomery, Jr., J. E. Peralta, 
 F. Ogliaro, M. J. Bearpark, J. J. Heyd, E. N. Brothers, K. N. Kudin, 
 V. N. Staroverov, T. A. Keith, R. Kobayashi, J. Normand, 
 K. Raghavachari, A. P. Rendell, J. C. Burant, S. S. Iyengar, 
 J. Tomasi, M. Cossi, J. M. Millam, M. Klene, C. Adamo, R. Cammi, 
 J. W. Ochterski, R. L. Martin, K. Morokuma, O. Farkas, 
 J. B. Foresman, and D. J. Fox, Gaussian, Inc., Wallingford CT, 2019.
 
 ******************************************
 Gaussian 16:  ES64L-G16RevC.01  3-Jul-2019
                23-Jun-2022 
 ******************************************
 %mem=8gb
 %nproc=4
 Will use up to    4 processors via shared memory.
 %chk=conf-474.chk
 ----------------------------------------------------------------------
 # B3LYP/6-31G* empiricaldispersion=gd3bj guess=read geom=check nosymm 
 integral(ultrafinegrid)
 ----------------------------------------------------------------------
 1/29=2,38=1,172=1/1;
 2/12=2,15=1,40=1/2;
 3/5=1,6=6,7=1,11=2,14=-4,25=1,30=1,74=-5,75=-5,116=-2,124=41/1,2,3;
 4/5=1/1;
 5/5=2,38=6/2;
 6/7=2,8=2,9=2,10=2,28=1/1;
 99/5=1,9=1/99;
 ------------------------------------------------------
 Candidate Structure: Conf:474 Charge calc in gas phase
 ------------------------------------------------------
 Structure from the checkpoint file:  "conf-474.chk"
 Charge =  1 Multiplicity = 1
 Redundant internal coordinates found in file.  (old form).
 N,0,-2.5439134101,2.3744168678,0.8198629088
 H,0,-3.1856747415,2.0736425259,1.5541932027
 H,0,-2.482664068,3.3917496468,0.8890440778
 C,0,-3.1188365518,2.0581228803,-0.5022963396
 H,0,-4.1447871154,2.4372373053,-0.5820015593
 C,0,-3.1008861808,0.5545412962,-0.7700676304
 C,0,-2.2672625875,2.7488632465,-1.6012179938
 H,0,-1.2465704116,2.3598560745,-1.5310161225
 H,0,-2.6388300084,2.4454886929,-2.5831548874
 O,0,-2.2939115271,-0.2106772854,-0.2074764387
 C,0,-2.2785041435,4.250167767,-1.4483184933
 C,0,-1.2106023397,4.9192194903,-0.8374004281
 H,0,-0.3358523038,4.3543457705,-0.5216699351
 C,0,-3.3863731232,4.9957901727,-1.8728518658
 H,0,-4.2178387965,4.4911170809,-2.3600360202
 C,0,-1.2462410269,6.3030065868,-0.6540109302
 H,0,-0.4059800609,6.8089609451,-0.1879631463
 C,0,-3.42520045,6.376842424,-1.6919991879
 H,0,-4.2862128613,6.9426994847,-2.0347081766
 C,0,-2.3550180691,7.0336552137,-1.0797637319
 H,0,-2.3835470157,8.1101782189,-0.9429068334
 N,0,-3.9136912379,0.0871102648,-1.7334633873
 C,0,-3.5859764956,-1.202915478,-2.3725560324
 H,0,-3.6361113234,-2.0034172433,-1.6291401888
 C,0,-2.1739281308,-1.0616734516,-2.9716277426
 C,0,-4.6526438361,-1.3496294606,-3.4830624834
 H,0,-4.2151609403,-1.0549958886,-4.4411560831
 H,0,-5.0081471338,-2.3784903816,-3.5689070718
 O,0,-1.8885392537,-0.0589099686,-3.6221232857
 C,0,-5.7599387213,-0.3587178992,-3.0904435134
 H,0,-6.3595730738,-0.0344009851,-3.9441419101
 H,0,-6.4318564729,-0.8011681575,-2.3474214743
 C,0,-4.9791509383,0.795964495,-2.4589972903
 H,0,-5.5827152417,1.3966821881,-1.7750239714
 H,0,-4.5499730614,1.4489554378,-3.2284405927
 N,0,-1.3148181357,-2.0777562772,-2.7377595697
 H,0,-1.608768597,-2.8642980313,-2.1764950163
 C,0,0.0762802984,-2.038999973,-3.1834995198
 H,0,0.0885404051,-1.963185326,-4.2791442596
 C,0,0.7950615839,-3.3379973109,-2.8376994226
 C,0,0.8559432687,-0.829345091,-2.6261786473
 H,0,0.3936737181,0.064352613,-3.0501723469
 H,0,1.8809141071,-0.8945152708,-3.0015697413
 O,0,1.9940964904,-3.4685240767,-2.87367396
 C,0,0.8393608433,-0.7539003253,-1.0954186766
 H,0,-0.1678588906,-1.013965959,-0.7555089498
 H,0,1.5304592869,-1.4949299215,-0.6733726286
 C,0,1.2125816074,0.6451298907,-0.5870304556
 H,0,0.5952883246,1.4012964615,-1.0882395532
 H,0,2.2506976559,0.8765075352,-0.8531647816
 C,0,1.090352909,0.8111098605,0.9256982441
 H,0,1.6302620327,0.0158411206,1.4470373354
 H,0,1.4864700107,1.7720340471,1.2630518215
 N,0,-0.3432886055,0.7430578697,1.3826701818
 H,0,-0.4106454767,0.548925713,2.3844554392
 H,0,-0.9132484297,0.0419758152,0.8630223725
 H,0,-0.9510148575,1.5965065311,1.17999731
 O,0,-0.0522486086,-4.3374834666,-2.4913548894
 H,0,0.4976637032,-5.124681075,-2.3133633976
 Recover connectivity data from disk.
                           ----------------------------
                           !    Current Parameters    !
                           ! (Angstroms and Degrees)  !
 --------------------------                            --------------------------
 ! Name  Definition              Value                                          !
 --------------------------------------------------------------------------------
 ! R1    R(1,2)                  1.0206                                         !
 ! R2    R(1,3)                  1.0215                                         !
 ! R3    R(1,4)                  1.476                                          !
 ! R4    R(4,5)                  1.0967                                         !
 ! R5    R(4,6)                  1.5273                                         !
 ! R6    R(4,7)                  1.5524                                         !
 ! R7    R(6,10)                 1.2463                                         !
 ! R8    R(6,22)                 1.3443                                         !
 ! R9    R(7,8)                  1.0946                                         !
 ! R10   R(7,9)                  1.0928                                         !
 ! R11   R(7,11)                 1.5091                                         !
 ! R12   R(11,12)                1.4005                                         !
 ! R13   R(11,14)                1.4013                                         !
 ! R14   R(12,13)                1.0881                                         !
 ! R15   R(12,16)                1.3963                                         !
 ! R16   R(14,15)                1.0878                                         !
 ! R17   R(14,18)                1.3934                                         !
 ! R18   R(16,17)                1.0859                                         !
 ! R19   R(16,20)                1.3945                                         !
 ! R20   R(18,19)                1.0858                                         !
 ! R21   R(18,20)                1.397                                          !
 ! R22   R(20,21)                1.0856                                         !
 ! R23   R(22,23)                1.4765                                         !
 ! R24   R(22,33)                1.4711                                         !
 ! R25   R(23,24)                1.0936                                         !
 ! R26   R(23,25)                1.5404                                         !
 ! R27   R(23,26)                1.5468                                         !
 ! R28   R(25,29)                1.2289                                         !
 ! R29   R(25,36)                1.351                                          !
 ! R30   R(26,27)                1.0937                                         !
 ! R31   R(26,28)                1.0919                                         !
 ! R32   R(26,30)                1.5369                                         !
 ! R33   R(30,31)                1.0925                                         !
 ! R34   R(30,32)                1.0951                                         !
 ! R35   R(30,33)                1.5302                                         !
 ! R36   R(33,34)                1.0922                                         !
 ! R37   R(33,35)                1.0966                                         !
 ! R38   R(36,37)                1.01                                           !
 ! R39   R(36,38)                1.4613                                         !
 ! R40   R(38,39)                1.0983                                         !
 ! R41   R(38,40)                1.5243                                         !
 ! R42   R(38,41)                1.5433                                         !
 ! R43   R(40,44)                1.2067                                         !
 ! R44   R(40,58)                1.3553                                         !
 ! R45   R(41,42)                1.0919                                         !
 ! R46   R(41,43)                1.0935                                         !
 ! R47   R(41,45)                1.5327                                         !
 ! R48   R(45,46)                1.0944                                         !
 ! R49   R(45,47)                1.0977                                         !
 ! R50   R(45,48)                1.5346                                         !
 ! R51   R(48,49)                1.0973                                         !
 ! R52   R(48,50)                1.0964                                         !
 ! R53   R(48,51)                1.5267                                         !
 ! R54   R(51,52)                1.0935                                         !
 ! R55   R(51,53)                1.0927                                         !
 ! R56   R(51,54)                1.5062                                         !
 ! R57   R(54,55)                1.0226                                         !
 ! R58   R(54,56)                1.0423                                         !
 ! R59   R(54,57)                1.0671                                         !
 ! R60   R(58,59)                0.9766                                         !
 ! A1    A(2,1,3)              106.4082                                         !
 ! A2    A(2,1,4)              109.6598                                         !
 ! A3    A(3,1,4)              107.303                                          !
 ! A4    A(1,4,5)              110.819                                          !
 ! A5    A(1,4,6)              111.3101                                         !
 ! A6    A(1,4,7)              108.9704                                         !
 ! A7    A(5,4,6)              109.7901                                         !
 ! A8    A(5,4,7)              107.9338                                         !
 ! A9    A(6,4,7)              107.9072                                         !
 ! A10   A(4,6,10)             122.2021                                         !
 ! A11   A(4,6,22)             117.4402                                         !
 ! A12   A(10,6,22)            120.0983                                         !
 ! A13   A(4,7,8)              107.9385                                         !
 ! A14   A(4,7,9)              109.0275                                         !
 ! A15   A(4,7,11)             111.521                                          !
 ! A16   A(8,7,9)              106.0231                                         !
 ! A17   A(8,7,11)             110.7327                                         !
 ! A18   A(9,7,11)             111.3872                                         !
 ! A19   A(7,11,12)            120.9163                                         !
 ! A20   A(7,11,14)            120.3012                                         !
 ! A21   A(12,11,14)           118.7398                                         !
 ! A22   A(11,12,13)           119.4453                                         !
 ! A23   A(11,12,16)           120.7488                                         !
 ! A24   A(13,12,16)           119.7938                                         !
 ! A25   A(11,14,15)           119.5459                                         !
 ! A26   A(11,14,18)           120.6707                                         !
 ! A27   A(15,14,18)           119.7785                                         !
 ! A28   A(12,16,17)           119.8908                                         !
 ! A29   A(12,16,20)           119.9637                                         !
 ! A30   A(17,16,20)           120.1431                                         !
 ! A31   A(14,18,19)           119.845                                          !
 ! A32   A(14,18,20)           120.1022                                         !
 ! A33   A(19,18,20)           120.0512                                         !
 ! A34   A(16,20,18)           119.7744                                         !
 ! A35   A(16,20,21)           120.1331                                         !
 ! A36   A(18,20,21)           120.0909                                         !
 ! A37   A(6,22,23)            118.6713                                         !
 ! A38   A(6,22,33)            128.5938                                         !
 ! A39   A(23,22,33)           111.6099                                         !
 ! A40   A(22,23,24)           109.5802                                         !
 ! A41   A(22,23,25)           106.9594                                         !
 ! A42   A(22,23,26)           103.9203                                         !
 ! A43   A(24,23,25)           111.9329                                         !
 ! A44   A(24,23,26)           112.7682                                         !
 ! A45   A(25,23,26)           111.2007                                         !
 ! A46   A(23,25,29)           119.5764                                         !
 ! A47   A(23,25,36)           116.5289                                         !
 ! A48   A(29,25,36)           123.8947                                         !
 ! A49   A(23,26,27)           109.1195                                         !
 ! A50   A(23,26,28)           111.7362                                         !
 ! A51   A(23,26,30)           104.6121                                         !
 ! A52   A(27,26,28)           108.3727                                         !
 ! A53   A(27,26,30)           109.7726                                         !
 ! A54   A(28,26,30)           113.1423                                         !
 ! A55   A(26,30,31)           112.7811                                         !
 ! A56   A(26,30,32)           110.7858                                         !
 ! A57   A(26,30,33)           102.9621                                         !
 ! A58   A(31,30,32)           108.2615                                         !
 ! A59   A(31,30,33)           112.2408                                         !
 ! A60   A(32,30,33)           109.7518                                         !
 ! A61   A(22,33,30)           102.0911                                         !
 ! A62   A(22,33,34)           110.8792                                         !
 ! A63   A(22,33,35)           110.4578                                         !
 ! A64   A(30,33,34)           113.0452                                         !
 ! A65   A(30,33,35)           111.0674                                         !
 ! A66   A(34,33,35)           109.1563                                         !
 ! A67   A(25,36,37)           119.7905                                         !
 ! A68   A(25,36,38)           122.1824                                         !
 ! A69   A(37,36,38)           117.8548                                         !
 ! A70   A(36,38,39)           108.4661                                         !
 ! A71   A(36,38,40)           110.9216                                         !
 ! A72   A(36,38,41)           113.0519                                         !
 ! A73   A(39,38,40)           106.2516                                         !
 ! A74   A(39,38,41)           107.4875                                         !
 ! A75   A(40,38,41)           110.3531                                         !
 ! A76   A(38,40,44)           123.6402                                         !
 ! A77   A(38,40,58)           113.0552                                         !
 ! A78   A(44,40,58)           123.3037                                         !
 ! A79   A(38,41,42)           106.7047                                         !
 ! A80   A(38,41,43)           107.6289                                         !
 ! A81   A(38,41,45)           113.1901                                         !
 ! A82   A(42,41,43)           108.1991                                         !
 ! A83   A(42,41,45)           110.0572                                         !
 ! A84   A(43,41,45)           110.8507                                         !
 ! A85   A(41,45,46)           107.9665                                         !
 ! A86   A(41,45,47)           110.1186                                         !
 ! A87   A(41,45,48)           111.9071                                         !
 ! A88   A(46,45,47)           107.4344                                         !
 ! A89   A(46,45,48)           109.7295                                         !
 ! A90   A(47,45,48)           109.5698                                         !
 ! A91   A(45,48,49)           109.8831                                         !
 ! A92   A(45,48,50)           110.0144                                         !
 ! A93   A(45,48,51)           114.0723                                         !
 ! A94   A(49,48,50)           106.043                                          !
 ! A95   A(49,48,51)           109.4284                                         !
 ! A96   A(50,48,51)           107.0604                                         !
 ! A97   A(48,51,52)           110.7199                                         !
 ! A98   A(48,51,53)           111.8684                                         !
 ! A99   A(48,51,54)           111.8326                                         !
 ! A100  A(52,51,53)           108.2623                                         !
 ! A101  A(52,51,54)           107.0043                                         !
 ! A102  A(53,51,54)           106.9234                                         !
 ! A103  A(51,54,55)           111.6209                                         !
 ! A104  A(51,54,56)           113.5533                                         !
 ! A105  A(51,54,57)           116.6339                                         !
 ! A106  A(55,54,56)           108.9464                                         !
 ! A107  A(55,54,57)           107.4792                                         !
 ! A108  A(56,54,57)            97.5757                                         !
 ! A109  A(40,58,59)           106.7968                                         !
 ! D1    D(2,1,4,5)             51.0219                                         !
 ! D2    D(2,1,4,6)            -71.4671                                         !
 ! D3    D(2,1,4,7)            169.6456                                         !
 ! D4    D(3,1,4,5)            -64.1591                                         !
 ! D5    D(3,1,4,6)            173.352                                          !
 ! D6    D(3,1,4,7)             54.4646                                         !
 ! D7    D(1,4,6,10)           -24.2698                                         !
 ! D8    D(1,4,6,22)           161.5804                                         !
 ! D9    D(5,4,6,10)          -147.3498                                         !
 ! D10   D(5,4,6,22)            38.5004                                         !
 ! D11   D(7,4,6,10)            95.2517                                         !
 ! D12   D(7,4,6,22)           -78.8981                                         !
 ! D13   D(1,4,7,8)             60.3833                                         !
 ! D14   D(1,4,7,9)            175.1258                                         !
 ! D15   D(1,4,7,11)           -61.4629                                         !
 ! D16   D(5,4,7,8)           -179.2007                                         !
 ! D17   D(5,4,7,9)            -64.4583                                         !
 ! D18   D(5,4,7,11)            58.953                                          !
 ! D19   D(6,4,7,8)            -60.6093                                         !
 ! D20   D(6,4,7,9)             54.1332                                         !
 ! D21   D(6,4,7,11)           177.5445                                         !
 ! D22   D(4,6,22,23)          157.1412                                         !
 ! D23   D(4,6,22,33)           -9.6354                                         !
 ! D24   D(10,6,22,23)         -17.1374                                         !
 ! D25   D(10,6,22,33)         176.0859                                         !
 ! D26   D(4,7,11,12)           99.6355                                         !
 ! D27   D(4,7,11,14)          -77.9586                                         !
 ! D28   D(8,7,11,12)          -20.5808                                         !
 ! D29   D(8,7,11,14)          161.8251                                         !
 ! D30   D(9,7,11,12)         -138.3044                                         !
 ! D31   D(9,7,11,14)           44.1015                                         !
 ! D32   D(7,11,12,13)           3.6085                                         !
 ! D33   D(7,11,12,16)        -177.6561                                         !
 ! D34   D(14,11,12,13)       -178.7605                                         !
 ! D35   D(14,11,12,16)         -0.0251                                         !
 ! D36   D(7,11,14,15)          -3.1053                                         !
 ! D37   D(7,11,14,18)         177.697                                          !
 ! D38   D(12,11,14,15)        179.2488                                         !
 ! D39   D(12,11,14,18)          0.051                                          !
 ! D40   D(11,12,16,17)       -179.3651                                         !
 ! D41   D(11,12,16,20)          0.0843                                         !
 ! D42   D(13,12,16,17)         -0.6341                                         !
 ! D43   D(13,12,16,20)        178.8154                                         !
 ! D44   D(11,14,18,19)        179.4126                                         !
 ! D45   D(11,14,18,20)         -0.1361                                         !
 ! D46   D(15,14,18,19)          0.2167                                         !
 ! D47   D(15,14,18,20)       -179.332                                          !
 ! D48   D(12,16,20,18)         -0.1681                                         !
 ! D49   D(12,16,20,21)       -179.7039                                         !
 ! D50   D(17,16,20,18)        179.28                                           !
 ! D51   D(17,16,20,21)         -0.2559                                         !
 ! D52   D(14,18,20,16)          0.194                                          !
 ! D53   D(14,18,20,21)        179.7301                                         !
 ! D54   D(19,18,20,16)       -179.3537                                         !
 ! D55   D(19,18,20,21)          0.1823                                         !
 ! D56   D(6,22,23,24)          63.7429                                         !
 ! D57   D(6,22,23,25)         -57.7868                                         !
 ! D58   D(6,22,23,26)        -175.5037                                         !
 ! D59   D(33,22,23,24)       -127.3442                                         !
 ! D60   D(33,22,23,25)        111.126                                          !
 ! D61   D(33,22,23,26)         -6.5908                                         !
 ! D62   D(6,22,33,30)        -164.3476                                         !
 ! D63   D(6,22,33,34)         -43.6712                                         !
 ! D64   D(6,22,33,35)          77.47                                           !
 ! D65   D(23,22,33,30)         28.1192                                         !
 ! D66   D(23,22,33,34)        148.7955                                         !
 ! D67   D(23,22,33,35)        -90.0633                                         !
 ! D68   D(22,23,25,29)        -46.1541                                         !
 ! D69   D(22,23,25,36)        133.8663                                         !
 ! D70   D(24,23,25,29)       -166.1868                                         !
 ! D71   D(24,23,25,36)         13.8336                                         !
 ! D72   D(26,23,25,29)         66.6796                                         !
 ! D73   D(26,23,25,36)       -113.3                                            !
 ! D74   D(22,23,26,27)         99.6542                                         !
 ! D75   D(22,23,26,28)       -140.5215                                         !
 ! D76   D(22,23,26,30)        -17.7575                                         !
 ! D77   D(24,23,26,27)       -141.7603                                         !
 ! D78   D(24,23,26,28)        -21.9361                                         !
 ! D79   D(24,23,26,30)        100.8279                                         !
 ! D80   D(25,23,26,27)        -15.0841                                         !
 ! D81   D(25,23,26,28)        104.7402                                         !
 ! D82   D(25,23,26,30)       -132.4958                                         !
 ! D83   D(23,25,36,37)         -1.3909                                         !
 ! D84   D(23,25,36,38)       -176.5157                                         !
 ! D85   D(29,25,36,37)        178.6305                                         !
 ! D86   D(29,25,36,38)          3.5057                                         !
 ! D87   D(23,26,30,31)        155.7865                                         !
 ! D88   D(23,26,30,32)        -82.6836                                         !
 ! D89   D(23,26,30,33)         34.5934                                         !
 ! D90   D(27,26,30,31)         38.8237                                         !
 ! D91   D(27,26,30,32)        160.3535                                         !
 ! D92   D(27,26,30,33)        -82.3694                                         !
 ! D93   D(28,26,30,31)        -82.3679                                         !
 ! D94   D(28,26,30,32)         39.1619                                         !
 ! D95   D(28,26,30,33)        156.4389                                         !
 ! D96   D(26,30,33,22)        -37.7476                                         !
 ! D97   D(26,30,33,34)       -156.906                                          !
 ! D98   D(26,30,33,35)         79.9995                                         !
 ! D99   D(31,30,33,22)       -159.308                                          !
 ! D100  D(31,30,33,34)         81.5336                                         !
 ! D101  D(31,30,33,35)        -41.5609                                         !
 ! D102  D(32,30,33,22)         80.2586                                         !
 ! D103  D(32,30,33,34)        -38.8998                                         !
 ! D104  D(32,30,33,35)       -161.9943                                         !
 ! D105  D(25,36,38,39)        -61.2437                                         !
 ! D106  D(25,36,38,40)       -177.5734                                         !
 ! D107  D(25,36,38,41)         57.861                                          !
 ! D108  D(37,36,38,39)        123.5414                                         !
 ! D109  D(37,36,38,40)          7.2117                                         !
 ! D110  D(37,36,38,41)       -117.3538                                         !
 ! D111  D(36,38,40,44)       -165.9459                                         !
 ! D112  D(36,38,40,58)         14.3885                                         !
 ! D113  D(39,38,40,44)         76.3662                                         !
 ! D114  D(39,38,40,58)       -103.2994                                         !
 ! D115  D(41,38,40,44)        -39.8644                                         !
 ! D116  D(41,38,40,58)        140.47                                           !
 ! D117  D(36,38,41,42)        -64.7865                                         !
 ! D118  D(36,38,41,43)        179.2681                                         !
 ! D119  D(36,38,41,45)         56.4187                                         !
 ! D120  D(39,38,41,42)         54.8821                                         !
 ! D121  D(39,38,41,43)        -61.0633                                         !
 ! D122  D(39,38,41,45)        176.0873                                         !
 ! D123  D(40,38,41,42)        170.3389                                         !
 ! D124  D(40,38,41,43)         54.3936                                         !
 ! D125  D(40,38,41,45)        -68.4558                                         !
 ! D126  D(38,40,58,59)        178.5331                                         !
 ! D127  D(44,40,58,59)         -1.1338                                         !
 ! D128  D(38,41,45,46)        -40.9377                                         !
 ! D129  D(38,41,45,47)         76.0776                                         !
 ! D130  D(38,41,45,48)       -161.7956                                         !
 ! D131  D(42,41,45,46)         78.357                                          !
 ! D132  D(42,41,45,47)       -164.6277                                         !
 ! D133  D(42,41,45,48)        -42.5009                                         !
 ! D134  D(43,41,45,46)       -161.9836                                         !
 ! D135  D(43,41,45,47)        -44.9683                                         !
 ! D136  D(43,41,45,48)         77.1585                                         !
 ! D137  D(41,45,48,49)         51.5049                                         !
 ! D138  D(41,45,48,50)        -64.8866                                         !
 ! D139  D(41,45,48,51)        174.8017                                         !
 ! D140  D(46,45,48,49)        -68.3249                                         !
 ! D141  D(46,45,48,50)        175.2836                                         !
 ! D142  D(46,45,48,51)         54.9719                                         !
 ! D143  D(47,45,48,49)        173.9452                                         !
 ! D144  D(47,45,48,50)         57.5537                                         !
 ! D145  D(47,45,48,51)        -62.758                                          !
 ! D146  D(45,48,51,52)         51.6978                                         !
 ! D147  D(45,48,51,53)        172.5507                                         !
 ! D148  D(45,48,51,54)        -67.5357                                         !
 ! D149  D(49,48,51,52)        175.2407                                         !
 ! D150  D(49,48,51,53)        -63.9065                                         !
 ! D151  D(49,48,51,54)         56.0072                                         !
 ! D152  D(50,48,51,52)        -70.2541                                         !
 ! D153  D(50,48,51,53)         50.5987                                         !
 ! D154  D(50,48,51,54)        170.5124                                         !
 ! D155  D(48,51,54,55)        161.4731                                         !
 ! D156  D(48,51,54,56)         37.8468                                         !
 ! D157  D(48,51,54,57)        -74.4562                                         !
 ! D158  D(52,51,54,55)         40.0685                                         !
 ! D159  D(52,51,54,56)        -83.5578                                         !
 ! D160  D(52,51,54,57)        164.1392                                         !
 ! D161  D(53,51,54,55)        -75.7535                                         !
 ! D162  D(53,51,54,56)        160.6202                                         !
 ! D163  D(53,51,54,57)         48.3172                                         !
 --------------------------------------------------------------------------------
 Symmetry turned off by external request.
 Stoichiometry    C20H31N4O4(1+)
 Framework group  C1[X(C20H31N4O4)]
 Deg. of freedom   171
 Full point group                 C1      NOp   1
                          Input orientation:                          
 ---------------------------------------------------------------------
 Center     Atomic      Atomic             Coordinates (Angstroms)
 Number     Number       Type             X           Y           Z
 ---------------------------------------------------------------------
      1          7           0       -2.543913    2.374417    0.819863
      2          1           0       -3.185675    2.073643    1.554193
      3          1           0       -2.482664    3.391750    0.889044
      4          6           0       -3.118837    2.058123   -0.502296
      5          1           0       -4.144787    2.437237   -0.582002
      6          6           0       -3.100886    0.554541   -0.770068
      7          6           0       -2.267263    2.748863   -1.601218
      8          1           0       -1.246570    2.359856   -1.531016
      9          1           0       -2.638830    2.445489   -2.583155
     10          8           0       -2.293912   -0.210677   -0.207476
     11          6           0       -2.278504    4.250168   -1.448318
     12          6           0       -1.210602    4.919219   -0.837400
     13          1           0       -0.335852    4.354346   -0.521670
     14          6           0       -3.386373    4.995790   -1.872852
     15          1           0       -4.217839    4.491117   -2.360036
     16          6           0       -1.246241    6.303007   -0.654011
     17          1           0       -0.405980    6.808961   -0.187963
     18          6           0       -3.425200    6.376842   -1.691999
     19          1           0       -4.286213    6.942699   -2.034708
     20          6           0       -2.355018    7.033655   -1.079764
     21          1           0       -2.383547    8.110178   -0.942907
     22          7           0       -3.913691    0.087110   -1.733463
     23          6           0       -3.585976   -1.202915   -2.372556
     24          1           0       -3.636111   -2.003417   -1.629140
     25          6           0       -2.173928   -1.061673   -2.971628
     26          6           0       -4.652644   -1.349629   -3.483062
     27          1           0       -4.215161   -1.054996   -4.441156
     28          1           0       -5.008147   -2.378490   -3.568907
     29          8           0       -1.888539   -0.058910   -3.622123
     30          6           0       -5.759939   -0.358718   -3.090444
     31          1           0       -6.359573   -0.034401   -3.944142
     32          1           0       -6.431856   -0.801168   -2.347421
     33          6           0       -4.979151    0.795964   -2.458997
     34          1           0       -5.582715    1.396682   -1.775024
     35          1           0       -4.549973    1.448955   -3.228441
     36          7           0       -1.314818   -2.077756   -2.737760
     37          1           0       -1.608769   -2.864298   -2.176495
     38          6           0        0.076280   -2.039000   -3.183500
     39          1           0        0.088540   -1.963185   -4.279144
     40          6           0        0.795062   -3.337997   -2.837699
     41          6           0        0.855943   -0.829345   -2.626179
     42          1           0        0.393674    0.064353   -3.050172
     43          1           0        1.880914   -0.894515   -3.001570
     44          8           0        1.994096   -3.468524   -2.873674
     45          6           0        0.839361   -0.753900   -1.095419
     46          1           0       -0.167859   -1.013966   -0.755509
     47          1           0        1.530459   -1.494930   -0.673373
     48          6           0        1.212582    0.645130   -0.587030
     49          1           0        0.595288    1.401296   -1.088240
     50          1           0        2.250698    0.876508   -0.853165
     51          6           0        1.090353    0.811110    0.925698
     52          1           0        1.630262    0.015841    1.447037
     53          1           0        1.486470    1.772034    1.263052
     54          7           0       -0.343289    0.743058    1.382670
     55          1           0       -0.410645    0.548926    2.384455
     56          1           0       -0.913248    0.041976    0.863022
     57          1           0       -0.951015    1.596507    1.179997
     58          8           0       -0.052249   -4.337483   -2.491355
     59          1           0        0.497664   -5.124681   -2.313363
 ---------------------------------------------------------------------
 Rotational constants (GHZ):           0.2488112           0.1152240           0.0925575
 Standard basis: 6-31G(d) (6D, 7F)
   482 basis functions,   908 primitive gaussians,   482 cartesian basis functions
   105 alpha electrons      105 beta electrons
       nuclear repulsion energy      2875.7396437662 Hartrees.
 NAtoms=   59 NActive=   59 NUniq=   59 SFac= 1.00D+00 NAtFMM=   60 NAOKFM=F Big=F
 Integral buffers will be    131072 words long.
 Raffenetti 2 integral format.
 Two-electron integral symmetry is turned off.
 Nuclear repulsion after empirical dispersion term =     2875.6094710102 Hartrees.
 One-electron integrals computed using PRISM.
 NBasis=   482 RedAO= T EigKep=  4.59D-04  NBF=   482
 NBsUse=   482 1.00D-06 EigRej= -1.00D+00 NBFU=   482
 Initial guess from the checkpoint file:  "conf-474.chk"
 B after Tr=     0.000000    0.000000    0.000000
         Rot=    1.000000    0.000000    0.000000    0.000000 Ang=   0.00 deg.
 Requested convergence on RMS density matrix=1.00D-08 within 128 cycles.
 Requested convergence on MAX density matrix=1.00D-06.
 Requested convergence on             energy=1.00D-06.
 No special actions if energy rises.
 SCF Done:  E(RB3LYP) =  -1300.68644990     A.U. after    3 cycles
            NFock=  3  Conv=0.89D-09     -V/T= 2.0095

 **********************************************************************

            Population analysis using the SCF Density.

 **********************************************************************

 Alpha  occ. eigenvalues --  -19.30054 -19.24605 -19.23752 -19.21508 -14.54727
 Alpha  occ. eigenvalues --  -14.48314 -14.46893 -14.46534 -10.42170 -10.41094
 Alpha  occ. eigenvalues --  -10.38840 -10.36867 -10.35386 -10.34127 -10.34002
 Alpha  occ. eigenvalues --  -10.33359 -10.31077 -10.30369 -10.29522 -10.29317
 Alpha  occ. eigenvalues --  -10.29295 -10.28968 -10.28618 -10.28339 -10.28188
 Alpha  occ. eigenvalues --  -10.28113 -10.28060 -10.27850  -1.20742  -1.16386
 Alpha  occ. eigenvalues --   -1.13542  -1.11688  -1.10212  -1.06001  -1.03126
 Alpha  occ. eigenvalues --   -1.03020  -0.95039  -0.92067  -0.91004  -0.88476
 Alpha  occ. eigenvalues --   -0.88381  -0.85735  -0.83755  -0.82874  -0.82468
 Alpha  occ. eigenvalues --   -0.77363  -0.76572  -0.74370  -0.72468  -0.71066
 Alpha  occ. eigenvalues --   -0.69972  -0.69562  -0.69106  -0.68243  -0.67555
 Alpha  occ. eigenvalues --   -0.66564  -0.66324  -0.64169  -0.63132  -0.62540
 Alpha  occ. eigenvalues --   -0.61554  -0.61415  -0.60414  -0.58860  -0.58460
 Alpha  occ. eigenvalues --   -0.58037  -0.57631  -0.56822  -0.55345  -0.55232
 Alpha  occ. eigenvalues --   -0.54613  -0.54555  -0.54038  -0.53671  -0.52111
 Alpha  occ. eigenvalues --   -0.51755  -0.51527  -0.51269  -0.51132  -0.50604
 Alpha  occ. eigenvalues --   -0.50448  -0.50200  -0.49442  -0.48530  -0.48377
 Alpha  occ. eigenvalues --   -0.47708  -0.47153  -0.45881  -0.45578  -0.44934
 Alpha  occ. eigenvalues --   -0.44640  -0.44318  -0.44053  -0.43587  -0.43421
 Alpha  occ. eigenvalues --   -0.43215  -0.41803  -0.40140  -0.38574  -0.37548
 Alpha  occ. eigenvalues --   -0.37017  -0.35677  -0.34776  -0.34380  -0.33812
 Alpha virt. eigenvalues --   -0.11758  -0.09598  -0.09415  -0.09013  -0.07746
 Alpha virt. eigenvalues --   -0.07482  -0.04069  -0.03894  -0.02732  -0.01757
 Alpha virt. eigenvalues --   -0.00413  -0.00303   0.00039   0.00835   0.01326
 Alpha virt. eigenvalues --    0.01870   0.02356   0.02387   0.03330   0.03656
 Alpha virt. eigenvalues --    0.04055   0.04665   0.04967   0.05097   0.06188
 Alpha virt. eigenvalues --    0.06463   0.06874   0.06898   0.07197   0.07927
 Alpha virt. eigenvalues --    0.07980   0.08412   0.08950   0.09464   0.09646
 Alpha virt. eigenvalues --    0.09843   0.10347   0.10607   0.11245   0.11491
 Alpha virt. eigenvalues --    0.11769   0.12289   0.12663   0.13312   0.14464
 Alpha virt. eigenvalues --    0.15116   0.15634   0.16169   0.16649   0.16914
 Alpha virt. eigenvalues --    0.17247   0.19020   0.19941   0.20430   0.21546
 Alpha virt. eigenvalues --    0.21717   0.23483   0.24040   0.25854   0.26669
 Alpha virt. eigenvalues --    0.27986   0.29899   0.30505   0.33032   0.34532
 Alpha virt. eigenvalues --    0.36805   0.38080   0.38553   0.38915   0.39871
 Alpha virt. eigenvalues --    0.40602   0.41305   0.42121   0.43006   0.43451
 Alpha virt. eigenvalues --    0.43724   0.44463   0.44959   0.45578   0.46031
 Alpha virt. eigenvalues --    0.46844   0.47408   0.48059   0.48694   0.49052
 Alpha virt. eigenvalues --    0.49629   0.50281   0.50426   0.50648   0.50991
 Alpha virt. eigenvalues --    0.51970   0.52395   0.52518   0.52745   0.52956
 Alpha virt. eigenvalues --    0.53143   0.54423   0.54788   0.55122   0.55835
 Alpha virt. eigenvalues --    0.56190   0.57075   0.57349   0.57603   0.58280
 Alpha virt. eigenvalues --    0.59934   0.60480   0.61733   0.62530   0.62846
 Alpha virt. eigenvalues --    0.63873   0.65053   0.65403   0.65985   0.66689
 Alpha virt. eigenvalues --    0.67284   0.67638   0.69119   0.69932   0.71152
 Alpha virt. eigenvalues --    0.71303   0.72044   0.72703   0.72961   0.73211
 Alpha virt. eigenvalues --    0.73374   0.73875   0.74289   0.74669   0.75087
 Alpha virt. eigenvalues --    0.75546   0.76008   0.76485   0.76904   0.77028
 Alpha virt. eigenvalues --    0.77159   0.78052   0.78537   0.78849   0.79262
 Alpha virt. eigenvalues --    0.80150   0.80425   0.80775   0.81524   0.81813
 Alpha virt. eigenvalues --    0.82585   0.83275   0.83595   0.84330   0.85074
 Alpha virt. eigenvalues --    0.85176   0.85866   0.86320   0.87124   0.87612
 Alpha virt. eigenvalues --    0.88583   0.89316   0.90573   0.91395   0.92057
 Alpha virt. eigenvalues --    0.93023   0.94012   0.95150   0.95382   0.95689
 Alpha virt. eigenvalues --    0.95991   0.98127   0.98668   0.99901   1.00657
 Alpha virt. eigenvalues --    1.01719   1.02471   1.02938   1.03592   1.04599
 Alpha virt. eigenvalues --    1.05589   1.06285   1.07782   1.08821   1.10441
 Alpha virt. eigenvalues --    1.12145   1.13612   1.14676   1.15385   1.18066
 Alpha virt. eigenvalues --    1.18410   1.19441   1.20822   1.21854   1.23018
 Alpha virt. eigenvalues --    1.24297   1.25464   1.26848   1.28014   1.29748
 Alpha virt. eigenvalues --    1.30931   1.32861   1.33610   1.34335   1.34704
 Alpha virt. eigenvalues --    1.35099   1.37084   1.37484   1.38440   1.39040
 Alpha virt. eigenvalues --    1.39795   1.40597   1.40986   1.41986   1.42590
 Alpha virt. eigenvalues --    1.44641   1.45891   1.47327   1.48559   1.49423
 Alpha virt. eigenvalues --    1.50803   1.52487   1.53901   1.56301   1.58292
 Alpha virt. eigenvalues --    1.59355   1.60563   1.61905   1.62648   1.63946
 Alpha virt. eigenvalues --    1.65174   1.66247   1.66621   1.68112   1.68464
 Alpha virt. eigenvalues --    1.69153   1.69373   1.70040   1.70687   1.71413
 Alpha virt. eigenvalues --    1.71791   1.72640   1.73262   1.75176   1.75325
 Alpha virt. eigenvalues --    1.76422   1.77105   1.77606   1.78188   1.78278
 Alpha virt. eigenvalues --    1.79837   1.80346   1.80788   1.81312   1.81820
 Alpha virt. eigenvalues --    1.82935   1.84043   1.85759   1.86503   1.86859
 Alpha virt. eigenvalues --    1.87662   1.88227   1.88566   1.88751   1.89594
 Alpha virt. eigenvalues --    1.89940   1.90968   1.91824   1.92328   1.93490
 Alpha virt. eigenvalues --    1.94357   1.94752   1.95786   1.96425   1.96855
 Alpha virt. eigenvalues --    1.97691   1.98362   2.00830   2.02715   2.03375
 Alpha virt. eigenvalues --    2.04992   2.05250   2.05944   2.06511   2.07351
 Alpha virt. eigenvalues --    2.09157   2.09799   2.10963   2.11768   2.13213
 Alpha virt. eigenvalues --    2.15023   2.15612   2.17343   2.18203   2.18754
 Alpha virt. eigenvalues --    2.19634   2.21678   2.22029   2.23276   2.24507
 Alpha virt. eigenvalues --    2.25522   2.26292   2.27460   2.28694   2.29308
 Alpha virt. eigenvalues --    2.30251   2.31705   2.32675   2.34002   2.34586
 Alpha virt. eigenvalues --    2.35217   2.37088   2.37692   2.39325   2.40488
 Alpha virt. eigenvalues --    2.41695   2.44222   2.44968   2.45927   2.48154
 Alpha virt. eigenvalues --    2.49231   2.49499   2.50761   2.51884   2.52815
 Alpha virt. eigenvalues --    2.54092   2.55466   2.56528   2.57003   2.58216
 Alpha virt. eigenvalues --    2.59681   2.61179   2.63364   2.64935   2.65459
 Alpha virt. eigenvalues --    2.65977   2.67253   2.67829   2.69333   2.70929
 Alpha virt. eigenvalues --    2.73038   2.75210   2.77125   2.81225   2.84337
 Alpha virt. eigenvalues --    2.89803   2.90051   2.93199   2.95551   2.97218
 Alpha virt. eigenvalues --    3.02546   3.09632   3.10814   3.31905   3.75320
 Alpha virt. eigenvalues --    3.76970   3.78014   3.90276   3.97620   4.00514
 Alpha virt. eigenvalues --    4.03031   4.03953   4.07626   4.09306   4.11047
 Alpha virt. eigenvalues --    4.13548   4.15818   4.19362   4.22760   4.24846
 Alpha virt. eigenvalues --    4.25840   4.31337   4.34183   4.35903   4.36895
 Alpha virt. eigenvalues --    4.40457   4.46616   4.47780   4.55889   4.57380
 Alpha virt. eigenvalues --    4.61803   4.63092
          Condensed to atoms (all electrons):
 Mulliken charges:
               1
     1  N   -0.786156
     2  H    0.334281
     3  H    0.350298
     4  C   -0.067406
     5  H    0.164394
     6  C    0.629670
     7  C   -0.395940
     8  H    0.171939
     9  H    0.206835
    10  O   -0.590082
    11  C    0.161270
    12  C   -0.199100
    13  H    0.116785
    14  C   -0.179725
    15  H    0.131998
    16  C   -0.124694
    17  H    0.150944
    18  C   -0.125880
    19  H    0.155646
    20  C   -0.125944
    21  H    0.157397
    22  N   -0.423831
    23  C   -0.033121
    24  H    0.166448
    25  C    0.639592
    26  C   -0.319702
    27  H    0.189748
    28  H    0.176344
    29  O   -0.537531
    30  C   -0.295038
    31  H    0.179077
    32  H    0.169013
    33  C   -0.145823
    34  H    0.172592
    35  H    0.184322
    36  N   -0.626855
    37  H    0.359475
    38  C   -0.038122
    39  H    0.214768
    40  C    0.588293
    41  C   -0.286060
    42  H    0.186620
    43  H    0.182799
    44  O   -0.443041
    45  C   -0.304182
    46  H    0.163780
    47  H    0.160233
    48  C   -0.301030
    49  H    0.172092
    50  H    0.186339
    51  C   -0.177229
    52  H    0.197412
    53  H    0.196361
    54  N   -0.785291
    55  H    0.383894
    56  H    0.438217
    57  H    0.423900
    58  O   -0.582000
    59  H    0.431006
 Sum of Mulliken charges =   1.00000
 Mulliken charges with hydrogens summed into heavy atoms:
               1
     1  N   -0.101578
     4  C    0.096988
     6  C    0.629670
     7  C   -0.017166
    10  O   -0.590082
    11  C    0.161270
    12  C   -0.082315
    14  C   -0.047727
    16  C    0.026250
    18  C    0.029766
    20  C    0.031452
    22  N   -0.423831
    23  C    0.133326
    25  C    0.639592
    26  C    0.046390
    29  O   -0.537531
    30  C    0.053052
    33  C    0.211091
    36  N   -0.267380
    38  C    0.176646
    40  C    0.588293
    41  C    0.083360
    44  O   -0.443041
    45  C    0.019832
    48  C    0.057401
    51  C    0.216545
    54  N    0.460720
    58  O   -0.150994
 Electronic spatial extent (au):  <R**2>=          16435.5721
 Charge=              1.0000 electrons
 Dipole moment (field-independent basis, Debye):
    X=             -9.8097    Y=              3.6313    Z=              0.5398  Tot=             10.4742
 Quadrupole moment (field-independent basis, Debye-Ang):
   XX=           -114.2919   YY=           -110.4390   ZZ=           -146.5162
   XY=             -9.9710   XZ=             20.1374   YZ=             10.7752
 Traceless Quadrupole moment (field-independent basis, Debye-Ang):
   XX=              9.4571   YY=             13.3100   ZZ=            -22.7672
   XY=             -9.9710   XZ=             20.1374   YZ=             10.7752
 Octapole moment (field-independent basis, Debye-Ang**2):
  XXX=            592.8818  YYY=           -304.5650  ZZZ=            789.3407  XYY=            176.9040
  XXY=            -63.0532  XXZ=            164.7328  XZZ=            218.2223  YZZ=           -165.8010
  YYZ=            207.9231  XYZ=             -6.1021
 Hexadecapole moment (field-independent basis, Debye-Ang**3):
 XXXX=          -6176.4528 YYYY=          -7310.4292 ZZZZ=          -4479.9463 XXXY=           1437.6744
 XXXZ=          -1011.3215 YYYX=           1039.4521 YYYZ=           -122.0876 ZZZX=          -1528.7012
 ZZZY=            -28.4166 XXYY=          -2492.7912 XXZZ=          -1666.3915 YYZZ=          -2316.6855
 XXYZ=           -167.5662 YYXZ=           -340.6042 ZZXY=            566.8042
 N-N= 2.875609471010D+03 E-N=-8.754534207295D+03  KE= 1.288509292090D+03
 Unable to Open any file for archive entry.
 1\1\GINC-SKL-155\SP\RB3LYP\6-31G(d)\C20H31N4O4(1+)\KENGMITH\23-Jun-202
 2\0\\# B3LYP/6-31G* empiricaldispersion=gd3bj guess=read geom=check no
 symm integral(ultrafinegrid)\\Candidate Structure: Conf:474 Charge cal
 c in gas phase\\1,1\N,0,-2.5439134101,2.3744168678,0.8198629088\H,0,-3
 .1856747415,2.0736425259,1.5541932027\H,0,-2.482664068,3.3917496468,0.
 8890440778\C,0,-3.1188365518,2.0581228803,-0.5022963396\H,0,-4.1447871
 154,2.4372373053,-0.5820015593\C,0,-3.1008861808,0.5545412962,-0.77006
 76304\C,0,-2.2672625875,2.7488632465,-1.6012179938\H,0,-1.2465704116,2
 .3598560745,-1.5310161225\H,0,-2.6388300084,2.4454886929,-2.5831548874
 \O,0,-2.2939115271,-0.2106772854,-0.2074764387\C,0,-2.2785041435,4.250
 167767,-1.4483184933\C,0,-1.2106023397,4.9192194903,-0.8374004281\H,0,
 -0.3358523038,4.3543457705,-0.5216699351\C,0,-3.3863731232,4.995790172
 7,-1.8728518658\H,0,-4.2178387965,4.4911170809,-2.3600360202\C,0,-1.24
 62410269,6.3030065868,-0.6540109302\H,0,-0.4059800609,6.8089609451,-0.
 1879631463\C,0,-3.42520045,6.376842424,-1.6919991879\H,0,-4.2862128613
 ,6.9426994847,-2.0347081766\C,0,-2.3550180691,7.0336552137,-1.07976373
 19\H,0,-2.3835470157,8.1101782189,-0.9429068334\N,0,-3.9136912379,0.08
 71102648,-1.7334633873\C,0,-3.5859764956,-1.202915478,-2.3725560324\H,
 0,-3.6361113234,-2.0034172433,-1.6291401888\C,0,-2.1739281308,-1.06167
 34516,-2.9716277426\C,0,-4.6526438361,-1.3496294606,-3.4830624834\H,0,
 -4.2151609403,-1.0549958886,-4.4411560831\H,0,-5.0081471338,-2.3784903
 816,-3.5689070718\O,0,-1.8885392537,-0.0589099686,-3.6221232857\C,0,-5
 .7599387213,-0.3587178992,-3.0904435134\H,0,-6.3595730738,-0.034400985
 1,-3.9441419101\H,0,-6.4318564729,-0.8011681575,-2.3474214743\C,0,-4.9
 791509383,0.795964495,-2.4589972903\H,0,-5.5827152417,1.3966821881,-1.
 7750239714\H,0,-4.5499730614,1.4489554378,-3.2284405927\N,0,-1.3148181
 357,-2.0777562772,-2.7377595697\H,0,-1.608768597,-2.8642980313,-2.1764
 950163\C,0,0.0762802984,-2.038999973,-3.1834995198\H,0,0.0885404051,-1
 .963185326,-4.2791442596\C,0,0.7950615839,-3.3379973109,-2.8376994226\
 C,0,0.8559432687,-0.829345091,-2.6261786473\H,0,0.3936737181,0.0643526
 13,-3.0501723469\H,0,1.8809141071,-0.8945152708,-3.0015697413\O,0,1.99
 40964904,-3.4685240767,-2.87367396\C,0,0.8393608433,-0.7539003253,-1.0
 954186766\H,0,-0.1678588906,-1.013965959,-0.7555089498\H,0,1.530459286
 9,-1.4949299215,-0.6733726286\C,0,1.2125816074,0.6451298907,-0.5870304
 556\H,0,0.5952883246,1.4012964615,-1.0882395532\H,0,2.2506976559,0.876
 5075352,-0.8531647816\C,0,1.090352909,0.8111098605,0.9256982441\H,0,1.
 6302620327,0.0158411206,1.4470373354\H,0,1.4864700107,1.7720340471,1.2
 630518215\N,0,-0.3432886055,0.7430578697,1.3826701818\H,0,-0.410645476
 7,0.548925713,2.3844554392\H,0,-0.9132484297,0.0419758152,0.8630223725
 \H,0,-0.9510148575,1.5965065311,1.17999731\O,0,-0.0522486086,-4.337483
 4666,-2.4913548894\H,0,0.4976637032,-5.124681075,-2.3133633976\\Versio
 n=ES64L-G16RevC.01\HF=-1300.6864499\RMSD=8.902e-10\Dipole=-0.621213,-0
 .0006149,3.2140747\Quadrupole=7.0311553,9.8956676,-16.9268228,-7.41317
 09,14.9716759,8.0110841\PG=C01 [X(C20H31N4O4)]\\@
 The archive entry for this job was punched.


0EVERYBODY IS IGNORANT, ONLY ON DIFFERENT SUBJECTS.
0          WILL ROGERS
 Job cpu time:       0 days  0 hours  2 minutes 26.5 seconds.
 Elapsed time:       0 days  0 hours  0 minutes 37.2 seconds.
 File lengths (MBytes):  RWF=    240 Int=      0 D2E=      0 Chk=     32 Scr=     16
 Normal termination of Gaussian 16 at Thu Jun 23 11:08:49 2022.
