 Entering Gaussian System, Link 0=/opt/software/Gaussian/g16-AVX2-C.01/g16/g16
 Input=charge-conf-535.com
 Output=charge-conf-535.log
 Initial command:
 /opt/software/Gaussian/g16-AVX2-C.01/g16/l1.exe "/mnt/gs18/scratch/users/kengmith/Gau-12865.inp" -scrdir="/mnt/gs18/scratch/users/kengmith/"
 Entering Link 1 = /opt/software/Gaussian/g16-AVX2-C.01/g16/l1.exe PID=     12875.
  
 Copyright (c) 1988-2019, Gaussian, Inc.  All Rights Reserved.
  
 This is part of the Gaussian(R) 16 program.  It is based on
 the Gaussian(R) 09 system (copyright 2009, Gaussian, Inc.),
 the Gaussian(R) 03 system (copyright 2003, Gaussian, Inc.),
 the Gaussian(R) 98 system (copyright 1998, Gaussian, Inc.),
 the Gaussian(R) 94 system (copyright 1995, Gaussian, Inc.),
 the Gaussian 92(TM) system (copyright 1992, Gaussian, Inc.),
 the Gaussian 90(TM) system (copyright 1990, Gaussian, Inc.),
 the Gaussian 88(TM) system (copyright 1988, Gaussian, Inc.),
 the Gaussian 86(TM) system (copyright 1986, Carnegie Mellon
 University), and the Gaussian 82(TM) system (copyright 1983,
 Carnegie Mellon University). Gaussian is a federally registered
 trademark of Gaussian, Inc.
  
 This software contains proprietary and confidential information,
 including trade secrets, belonging to Gaussian, Inc.
  
 This software is provided under written license and may be
 used, copied, transmitted, or stored only in accord with that
 written license.
  
 The following legend is applicable only to US Government
 contracts under FAR:
  
                    RESTRICTED RIGHTS LEGEND
  
 Use, reproduction and disclosure by the US Government is
 subject to restrictions as set forth in subparagraphs (a)
 and (c) of the Commercial Computer Software - Restricted
 Rights clause in FAR 52.227-19.
  
 Gaussian, Inc.
 340 Quinnipiac St., Bldg. 40, Wallingford CT 06492
  
  
 ---------------------------------------------------------------
 Warning -- This program may not be used in any manner that
 competes with the business of Gaussian, Inc. or will provide
 assistance to any competitor of Gaussian, Inc.  The licensee
 of this program is prohibited from giving any competitor of
 Gaussian, Inc. access to this program.  By using this program,
 the user acknowledges that Gaussian, Inc. is engaged in the
 business of creating and licensing software in the field of
 computational chemistry and represents and warrants to the
 licensee that it is not a competitor of Gaussian, Inc. and that
 it will not use this program in any manner prohibited above.
 ---------------------------------------------------------------
  

 Cite this work as:
 Gaussian 16, Revision C.01,
 M. J. Frisch, G. W. Trucks, H. B. Schlegel, G. E. Scuseria, 
 M. A. Robb, J. R. Cheeseman, G. Scalmani, V. Barone, 
 G. A. Petersson, H. Nakatsuji, X. Li, M. Caricato, A. V. Marenich, 
 J. Bloino, B. G. Janesko, R. Gomperts, B. Mennucci, H. P. Hratchian, 
 J. V. Ortiz, A. F. Izmaylov, J. L. Sonnenberg, D. Williams-Young, 
 F. Ding, F. Lipparini, F. Egidi, J. Goings, B. Peng, A. Petrone, 
 T. Henderson, D. Ranasinghe, V. G. Zakrzewski, J. Gao, N. Rega, 
 G. Zheng, W. Liang, M. Hada, M. Ehara, K. Toyota, R. Fukuda, 
 J. Hasegawa, M. Ishida, T. Nakajima, Y. Honda, O. Kitao, H. Nakai, 
 T. Vreven, K. Throssell, J. A. Montgomery, Jr., J. E. Peralta, 
 F. Ogliaro, M. J. Bearpark, J. J. Heyd, E. N. Brothers, K. N. Kudin, 
 V. N. Staroverov, T. A. Keith, R. Kobayashi, J. Normand, 
 K. Raghavachari, A. P. Rendell, J. C. Burant, S. S. Iyengar, 
 J. Tomasi, M. Cossi, J. M. Millam, M. Klene, C. Adamo, R. Cammi, 
 J. W. Ochterski, R. L. Martin, K. Morokuma, O. Farkas, 
 J. B. Foresman, and D. J. Fox, Gaussian, Inc., Wallingford CT, 2019.
 
 ******************************************
 Gaussian 16:  ES64L-G16RevC.01  3-Jul-2019
                23-Jun-2022 
 ******************************************
 %mem=8gb
 %nproc=4
 Will use up to    4 processors via shared memory.
 %chk=conf-535.chk
 ----------------------------------------------------------------------
 # B3LYP/6-31G* empiricaldispersion=gd3bj guess=read geom=check nosymm 
 integral(ultrafinegrid)
 ----------------------------------------------------------------------
 1/29=2,38=1,172=1/1;
 2/12=2,15=1,40=1/2;
 3/5=1,6=6,7=1,11=2,14=-4,25=1,30=1,74=-5,75=-5,116=-2,124=41/1,2,3;
 4/5=1/1;
 5/5=2,38=6/2;
 6/7=2,8=2,9=2,10=2,28=1/1;
 99/5=1,9=1/99;
 ------------------------------------------------------
 Candidate Structure: Conf:535 Charge calc in gas phase
 ------------------------------------------------------
 Structure from the checkpoint file:  "conf-535.chk"
 Charge =  1 Multiplicity = 1
 Redundant internal coordinates found in file.  (old form).
 N,0,-4.0898173631,0.135162565,4.1751968079
 H,0,-3.5542621074,-0.7299420243,4.094478037
 H,0,-4.9805951928,-0.0498991393,3.7155879158
 C,0,-3.3651026024,1.1682408748,3.4403756462
 H,0,-4.0397965909,2.0140709072,3.2851026438
 C,0,-2.8299580629,0.6396817685,2.0989366923
 C,0,-2.1673003967,1.6454354215,4.3060554817
 H,0,-2.5772725161,1.918264119,5.2823142096
 H,0,-1.5093716177,0.7800449872,4.4557339138
 O,0,-2.3514760761,-0.5112425442,2.0632884638
 C,0,-1.4050871702,2.7933441505,3.690823722
 C,0,-1.6779338959,4.1188659049,4.0482545692
 H,0,-2.3910561985,4.3217402736,4.8435867699
 C,0,-0.4789508338,2.5573846704,2.6672527813
 H,0,-0.2741342299,1.5334973522,2.3765546082
 C,0,-1.0559358934,5.1786460668,3.3846634134
 H,0,-1.2800539226,6.2013330751,3.6738972046
 C,0,0.131479696,3.6090096363,1.9863925807
 H,0,0.8084924921,3.3989450164,1.1631974277
 C,0,-0.158627035,4.9274738596,2.3450359705
 H,0,0.310567664,5.7529225822,1.8180002246
 N,0,-2.8565801794,1.4387843782,1.0136892741
 C,0,-2.4004404632,0.9618294937,-0.3107560486
 H,0,-2.7822821547,-0.0521473143,-0.464735856
 C,0,-0.8574678314,0.9116384085,-0.4123083865
 C,0,-2.9944204301,1.9881710964,-1.2799144752
 H,0,-2.4018144956,2.0690364097,-2.1915554948
 H,0,-4.014899974,1.6896006914,-1.542960804
 O,0,-0.2019208244,1.7193792906,-1.0585529275
 C,0,-3.000941938,3.2821799261,-0.45545381
 H,0,-1.9917649669,3.7018532844,-0.425790284
 H,0,-3.6835773582,4.040812146,-0.8459826612
 C,0,-3.407476513,2.8110002879,0.9432933195
 H,0,-4.4987844497,2.7754518456,1.0520254342
 H,0,-2.992630033,3.4369759867,1.7329039757
 N,0,-0.2977477889,-0.1425813342,0.2536629455
 H,0,-0.9096076114,-0.6557470834,0.8940489754
 C,0,1.1223504809,-0.4048118026,0.1817484419
 H,0,1.5150002076,0.328750687,-0.5331187526
 C,0,1.3474086478,-1.7980413788,-0.4089970739
 C,0,1.8378433262,-0.2631527657,1.5304735489
 H,0,1.4609525952,-1.0442113704,2.2024670164
 H,0,1.542460128,0.690701556,1.9717906542
 O,0,1.9532331238,-2.7036811554,0.1409436537
 C,0,3.3764598616,-0.3200587858,1.4168247303
 H,0,3.6808032208,-0.7684861905,0.4652601046
 H,0,3.7829427074,0.6957086945,1.4196326659
 C,0,4.0442786511,-1.1032964772,2.5606921792
 H,0,3.6419881128,-0.7549469283,3.522827524
 H,0,5.1237555626,-0.9015959821,2.5666733471
 C,0,3.8112592056,-2.6004428396,2.4106247976
 H,0,2.7578479868,-2.8711086041,2.3629030198
 H,0,4.3002736269,-3.0125703867,1.5269375941
 N,0,4.4033993295,-3.3455312946,3.6123570295
 H,0,4.2736190476,-4.3610896675,3.5336115755
 H,0,3.9601239539,-3.0403353392,4.4869981
 H,0,5.4102052957,-3.1636467295,3.7029879227
 O,0,0.7905767716,-1.9269302075,-1.6181168728
 H,0,0.9574547116,-2.8387360091,-1.9245546763
 Recover connectivity data from disk.
                           ----------------------------
                           !    Current Parameters    !
                           ! (Angstroms and Degrees)  !
 --------------------------                            --------------------------
 ! Name  Definition              Value                                          !
 --------------------------------------------------------------------------------
 ! R1    R(1,2)                  1.0207                                         !
 ! R2    R(1,3)                  1.0193                                         !
 ! R3    R(1,4)                  1.4603                                         !
 ! R4    R(4,5)                  1.093                                          !
 ! R5    R(4,6)                  1.5379                                         !
 ! R6    R(4,7)                  1.553                                          !
 ! R7    R(6,10)                 1.2469                                         !
 ! R8    R(6,22)                 1.348                                          !
 ! R9    R(7,8)                  1.0934                                         !
 ! R10   R(7,9)                  1.0973                                         !
 ! R11   R(7,11)                 1.509                                          !
 ! R12   R(11,12)                1.3997                                         !
 ! R13   R(11,14)                1.4004                                         !
 ! R14   R(12,13)                1.0873                                         !
 ! R15   R(12,16)                1.3966                                         !
 ! R16   R(14,15)                1.0839                                         !
 ! R17   R(14,18)                1.3936                                         !
 ! R18   R(16,17)                1.0862                                         !
 ! R19   R(16,20)                1.3961                                         !
 ! R20   R(18,19)                1.0863                                         !
 ! R21   R(18,20)                1.3968                                         !
 ! R22   R(20,21)                1.0859                                         !
 ! R23   R(22,23)                1.4798                                         !
 ! R24   R(22,33)                1.4803                                         !
 ! R25   R(23,24)                1.0944                                         !
 ! R26   R(23,25)                1.5471                                         !
 ! R27   R(23,26)                1.5315                                         !
 ! R28   R(25,29)                1.2247                                         !
 ! R29   R(25,36)                1.3668                                         !
 ! R30   R(26,27)                1.0903                                         !
 ! R31   R(26,28)                1.0953                                         !
 ! R32   R(26,30)                1.5344                                         !
 ! R33   R(30,31)                1.0934                                         !
 ! R34   R(30,32)                1.0927                                         !
 ! R35   R(30,33)                1.5309                                         !
 ! R36   R(33,34)                1.0973                                         !
 ! R37   R(33,35)                1.0897                                         !
 ! R38   R(36,37)                1.0236                                         !
 ! R39   R(36,38)                1.4459                                         !
 ! R40   R(38,39)                1.097                                          !
 ! R41   R(38,40)                1.5299                                         !
 ! R42   R(38,41)                1.5333                                         !
 ! R43   R(40,44)                1.2205                                         !
 ! R44   R(40,58)                1.3374                                         !
 ! R45   R(41,42)                1.0971                                         !
 ! R46   R(41,43)                1.0917                                         !
 ! R47   R(41,45)                1.5439                                         !
 ! R48   R(45,46)                1.0951                                         !
 ! R49   R(45,47)                1.0941                                         !
 ! R50   R(45,48)                1.5388                                         !
 ! R51   R(48,49)                1.0995                                         !
 ! R52   R(48,50)                1.0982                                         !
 ! R53   R(48,51)                1.5226                                         !
 ! R54   R(51,52)                1.0887                                         !
 ! R55   R(51,53)                1.0908                                         !
 ! R56   R(51,54)                1.533                                          !
 ! R57   R(54,55)                1.0268                                         !
 ! R58   R(54,56)                1.027                                          !
 ! R59   R(54,57)                1.0271                                         !
 ! R60   R(58,59)                0.9763                                         !
 ! A1    A(2,1,3)              105.6052                                         !
 ! A2    A(2,1,4)              107.4233                                         !
 ! A3    A(3,1,4)              109.5879                                         !
 ! A4    A(1,4,5)              108.2155                                         !
 ! A5    A(1,4,6)              111.621                                          !
 ! A6    A(1,4,7)              108.642                                          !
 ! A7    A(5,4,6)              110.9057                                         !
 ! A8    A(5,4,7)              108.5111                                         !
 ! A9    A(6,4,7)              108.8705                                         !
 ! A10   A(4,6,10)             118.4037                                         !
 ! A11   A(4,6,22)             119.4472                                         !
 ! A12   A(10,6,22)            122.1227                                         !
 ! A13   A(4,7,8)              106.5691                                         !
 ! A14   A(4,7,9)              107.226                                          !
 ! A15   A(4,7,11)             113.3315                                         !
 ! A16   A(8,7,9)              107.445                                          !
 ! A17   A(8,7,11)             111.3207                                         !
 ! A18   A(9,7,11)             110.6506                                         !
 ! A19   A(7,11,12)            121.1849                                         !
 ! A20   A(7,11,14)            120.2561                                         !
 ! A21   A(12,11,14)           118.3675                                         !
 ! A22   A(11,12,13)           119.4277                                         !
 ! A23   A(11,12,16)           120.6953                                         !
 ! A24   A(13,12,16)           119.8731                                         !
 ! A25   A(11,14,15)           118.6966                                         !
 ! A26   A(11,14,18)           121.3077                                         !
 ! A27   A(15,14,18)           119.9364                                         !
 ! A28   A(12,16,17)           119.7403                                         !
 ! A29   A(12,16,20)           120.2366                                         !
 ! A30   A(17,16,20)           120.0205                                         !
 ! A31   A(14,18,19)           119.8203                                         !
 ! A32   A(14,18,20)           119.7266                                         !
 ! A33   A(19,18,20)           120.4321                                         !
 ! A34   A(16,20,18)           119.637                                          !
 ! A35   A(16,20,21)           120.1556                                         !
 ! A36   A(18,20,21)           120.2074                                         !
 ! A37   A(6,22,23)            121.5624                                         !
 ! A38   A(6,22,33)            126.5234                                         !
 ! A39   A(23,22,33)           111.7727                                         !
 ! A40   A(22,23,24)           108.4827                                         !
 ! A41   A(22,23,25)           112.1251                                         !
 ! A42   A(22,23,26)           103.3466                                         !
 ! A43   A(24,23,25)           107.9798                                         !
 ! A44   A(24,23,26)           113.3635                                         !
 ! A45   A(25,23,26)           111.5311                                         !
 ! A46   A(23,25,29)           123.1674                                         !
 ! A47   A(23,25,36)           113.6687                                         !
 ! A48   A(29,25,36)           123.1357                                         !
 ! A49   A(23,26,27)           111.5934                                         !
 ! A50   A(23,26,28)           109.3079                                         !
 ! A51   A(23,26,30)           103.1085                                         !
 ! A52   A(27,26,28)           109.0138                                         !
 ! A53   A(27,26,30)           112.8946                                         !
 ! A54   A(28,26,30)           110.7918                                         !
 ! A55   A(26,30,31)           109.5341                                         !
 ! A56   A(26,30,32)           113.3364                                         !
 ! A57   A(26,30,33)           103.4446                                         !
 ! A58   A(31,30,32)           108.6524                                         !
 ! A59   A(31,30,33)           109.7822                                         !
 ! A60   A(32,30,33)           111.9821                                         !
 ! A61   A(22,33,30)           103.2923                                         !
 ! A62   A(22,33,34)           109.5951                                         !
 ! A63   A(22,33,35)           110.8768                                         !
 ! A64   A(30,33,34)           111.3833                                         !
 ! A65   A(30,33,35)           112.5914                                         !
 ! A66   A(34,33,35)           108.9918                                         !
 ! A67   A(25,36,37)           116.533                                          !
 ! A68   A(25,36,38)           121.1882                                         !
 ! A69   A(37,36,38)           121.8211                                         !
 ! A70   A(36,38,39)           105.2297                                         !
 ! A71   A(36,38,40)           109.1983                                         !
 ! A72   A(36,38,41)           113.4408                                         !
 ! A73   A(39,38,40)           107.7392                                         !
 ! A74   A(39,38,41)           110.1462                                         !
 ! A75   A(40,38,41)           110.8013                                         !
 ! A76   A(38,40,44)           125.0821                                         !
 ! A77   A(38,40,58)           112.0614                                         !
 ! A78   A(44,40,58)           122.8553                                         !
 ! A79   A(38,41,42)           108.2218                                         !
 ! A80   A(38,41,43)           108.0617                                         !
 ! A81   A(38,41,45)           113.3839                                         !
 ! A82   A(42,41,43)           106.3478                                         !
 ! A83   A(42,41,45)           111.1744                                         !
 ! A84   A(43,41,45)           109.3666                                         !
 ! A85   A(41,45,46)           110.857                                          !
 ! A86   A(41,45,47)           109.6246                                         !
 ! A87   A(41,45,48)           113.3631                                         !
 ! A88   A(46,45,47)           106.2099                                         !
 ! A89   A(46,45,48)           108.4751                                         !
 ! A90   A(47,45,48)           108.0239                                         !
 ! A91   A(45,48,49)           109.2951                                         !
 ! A92   A(45,48,50)           109.7041                                         !
 ! A93   A(45,48,51)           111.1498                                         !
 ! A94   A(49,48,50)           107.2595                                         !
 ! A95   A(49,48,51)           109.9857                                         !
 ! A96   A(50,48,51)           109.3643                                         !
 ! A97   A(48,51,52)           113.3827                                         !
 ! A98   A(48,51,53)           112.5034                                         !
 ! A99   A(48,51,54)           109.9711                                         !
 ! A100  A(52,51,53)           107.7182                                         !
 ! A101  A(52,51,54)           106.6955                                         !
 ! A102  A(53,51,54)           106.1571                                         !
 ! A103  A(51,54,55)           111.8248                                         !
 ! A104  A(51,54,56)           110.8845                                         !
 ! A105  A(51,54,57)           111.2071                                         !
 ! A106  A(55,54,56)           107.7389                                         !
 ! A107  A(55,54,57)           107.806                                          !
 ! A108  A(56,54,57)           107.1773                                         !
 ! A109  A(40,58,59)           107.6146                                         !
 ! D1    D(2,1,4,5)            164.8838                                         !
 ! D2    D(2,1,4,6)             42.5725                                         !
 ! D3    D(2,1,4,7)            -77.486                                          !
 ! D4    D(3,1,4,5)             50.6201                                         !
 ! D5    D(3,1,4,6)            -71.6912                                         !
 ! D6    D(3,1,4,7)            168.2503                                         !
 ! D7    D(1,4,6,10)           -40.3246                                         !
 ! D8    D(1,4,6,22)           141.5019                                         !
 ! D9    D(5,4,6,10)          -161.078                                          !
 ! D10   D(5,4,6,22)            20.7486                                         !
 ! D11   D(7,4,6,10)            79.5994                                         !
 ! D12   D(7,4,6,22)           -98.574                                          !
 ! D13   D(1,4,7,8)            -52.7284                                         !
 ! D14   D(1,4,7,9)             62.0882                                         !
 ! D15   D(1,4,7,11)          -175.5108                                         !
 ! D16   D(5,4,7,8)             64.7136                                         !
 ! D17   D(5,4,7,9)            179.5301                                         !
 ! D18   D(5,4,7,11)           -58.0689                                         !
 ! D19   D(6,4,7,8)           -174.4817                                         !
 ! D20   D(6,4,7,9)            -59.6652                                         !
 ! D21   D(6,4,7,11)            62.7358                                         !
 ! D22   D(4,6,22,23)         -177.7046                                         !
 ! D23   D(4,6,22,33)           -2.3941                                         !
 ! D24   D(10,6,22,23)           4.1926                                         !
 ! D25   D(10,6,22,33)         179.503                                          !
 ! D26   D(4,7,11,12)           95.6915                                         !
 ! D27   D(4,7,11,14)          -79.1956                                         !
 ! D28   D(8,7,11,12)          -24.423                                          !
 ! D29   D(8,7,11,14)          160.6899                                         !
 ! D30   D(9,7,11,12)         -143.8299                                         !
 ! D31   D(9,7,11,14)           41.283                                          !
 ! D32   D(7,11,12,13)           5.2736                                         !
 ! D33   D(7,11,12,16)        -174.0043                                         !
 ! D34   D(14,11,12,13)       -179.7453                                         !
 ! D35   D(14,11,12,16)          0.9768                                         !
 ! D36   D(7,11,14,15)          -4.1129                                         !
 ! D37   D(7,11,14,18)         173.0845                                         !
 ! D38   D(12,11,14,15)       -179.1423                                         !
 ! D39   D(12,11,14,18)         -1.9448                                         !
 ! D40   D(11,12,16,17)        179.923                                          !
 ! D41   D(11,12,16,20)          0.5149                                         !
 ! D42   D(13,12,16,17)          0.6483                                         !
 ! D43   D(13,12,16,20)       -178.7598                                         !
 ! D44   D(11,14,18,19)       -176.9354                                         !
 ! D45   D(11,14,18,20)          1.4068                                         !
 ! D46   D(15,14,18,19)          0.2278                                         !
 ! D47   D(15,14,18,20)        178.57                                           !
 ! D48   D(12,16,20,18)         -1.0761                                         !
 ! D49   D(12,16,20,21)        178.8902                                         !
 ! D50   D(17,16,20,18)        179.5174                                         !
 ! D51   D(17,16,20,21)         -0.5162                                         !
 ! D52   D(14,18,20,16)          0.1282                                         !
 ! D53   D(14,18,20,21)       -179.8382                                         !
 ! D54   D(19,18,20,16)        178.4601                                         !
 ! D55   D(19,18,20,21)         -1.5062                                         !
 ! D56   D(6,22,23,24)          42.5815                                         !
 ! D57   D(6,22,23,25)         -76.5779                                         !
 ! D58   D(6,22,23,26)         163.1813                                         !
 ! D59   D(33,22,23,24)       -133.3616                                         !
 ! D60   D(33,22,23,25)        107.479                                          !
 ! D61   D(33,22,23,26)        -12.7618                                         !
 ! D62   D(6,22,33,30)         172.8183                                         !
 ! D63   D(6,22,33,34)         -68.3804                                         !
 ! D64   D(6,22,33,35)          51.983                                          !
 ! D65   D(23,22,33,30)        -11.4838                                         !
 ! D66   D(23,22,33,34)        107.3175                                         !
 ! D67   D(23,22,33,35)       -132.319                                          !
 ! D68   D(22,23,25,29)       -106.3791                                         !
 ! D69   D(22,23,25,36)         75.4978                                         !
 ! D70   D(24,23,25,29)        134.1665                                         !
 ! D71   D(24,23,25,36)        -43.9567                                         !
 ! D72   D(26,23,25,29)          8.98                                           !
 ! D73   D(26,23,25,36)       -169.1431                                         !
 ! D74   D(22,23,26,27)        153.1312                                         !
 ! D75   D(22,23,26,28)        -86.2093                                         !
 ! D76   D(22,23,26,30)         31.6807                                         !
 ! D77   D(24,23,26,27)        -89.649                                          !
 ! D78   D(24,23,26,28)         31.0105                                         !
 ! D79   D(24,23,26,30)        148.9005                                         !
 ! D80   D(25,23,26,27)         32.4856                                         !
 ! D81   D(25,23,26,28)        153.1451                                         !
 ! D82   D(25,23,26,30)        -88.9649                                         !
 ! D83   D(23,25,36,37)        -12.412                                          !
 ! D84   D(23,25,36,38)        175.2153                                         !
 ! D85   D(29,25,36,37)        169.4642                                         !
 ! D86   D(29,25,36,38)         -2.9086                                         !
 ! D87   D(23,26,30,31)         77.8141                                         !
 ! D88   D(23,26,30,32)       -160.6754                                         !
 ! D89   D(23,26,30,33)        -39.1896                                         !
 ! D90   D(27,26,30,31)        -42.751                                          !
 ! D91   D(27,26,30,32)         78.7595                                         !
 ! D92   D(27,26,30,33)       -159.7547                                         !
 ! D93   D(28,26,30,31)       -165.3423                                         !
 ! D94   D(28,26,30,32)        -43.8317                                         !
 ! D95   D(28,26,30,33)         77.654                                          !
 ! D96   D(26,30,33,22)         31.0116                                         !
 ! D97   D(26,30,33,34)        -86.5422                                         !
 ! D98   D(26,30,33,35)        150.6748                                         !
 ! D99   D(31,30,33,22)        -85.8175                                         !
 ! D100  D(31,30,33,34)        156.6286                                         !
 ! D101  D(31,30,33,35)         33.8457                                         !
 ! D102  D(32,30,33,22)        153.4043                                         !
 ! D103  D(32,30,33,34)         35.8504                                         !
 ! D104  D(32,30,33,35)        -86.9325                                         !
 ! D105  D(25,36,38,39)         -4.6051                                         !
 ! D106  D(25,36,38,40)       -120.0199                                         !
 ! D107  D(25,36,38,41)        115.8661                                         !
 ! D108  D(37,36,38,39)       -176.5715                                         !
 ! D109  D(37,36,38,40)         68.0138                                         !
 ! D110  D(37,36,38,41)        -56.1003                                         !
 ! D111  D(36,38,40,44)       -122.1002                                         !
 ! D112  D(36,38,40,58)         57.5213                                         !
 ! D113  D(39,38,40,44)        124.1069                                         !
 ! D114  D(39,38,40,58)        -56.2716                                         !
 ! D115  D(41,38,40,44)          3.5529                                         !
 ! D116  D(41,38,40,58)       -176.8256                                         !
 ! D117  D(36,38,41,42)         65.3736                                         !
 ! D118  D(36,38,41,43)        -49.4006                                         !
 ! D119  D(36,38,41,45)       -170.8014                                         !
 ! D120  D(39,38,41,42)       -176.9781                                         !
 ! D121  D(39,38,41,43)         68.2478                                         !
 ! D122  D(39,38,41,45)        -53.1531                                         !
 ! D123  D(40,38,41,42)        -57.8648                                         !
 ! D124  D(40,38,41,43)       -172.639                                          !
 ! D125  D(40,38,41,45)         65.9602                                         !
 ! D126  D(38,40,58,59)       -178.9277                                         !
 ! D127  D(44,40,58,59)          0.7036                                         !
 ! D128  D(38,41,45,46)        -18.4161                                         !
 ! D129  D(38,41,45,47)         98.5209                                         !
 ! D130  D(38,41,45,48)       -140.6912                                         !
 ! D131  D(42,41,45,46)        103.7815                                         !
 ! D132  D(42,41,45,47)       -139.2815                                         !
 ! D133  D(42,41,45,48)        -18.4936                                         !
 ! D134  D(43,41,45,46)       -139.0822                                         !
 ! D135  D(43,41,45,47)        -22.1453                                         !
 ! D136  D(43,41,45,48)         98.6427                                         !
 ! D137  D(41,45,48,49)        -48.707                                          !
 ! D138  D(41,45,48,50)       -166.0483                                         !
 ! D139  D(41,45,48,51)         72.8752                                         !
 ! D140  D(46,45,48,49)       -172.2965                                         !
 ! D141  D(46,45,48,50)         70.3622                                         !
 ! D142  D(46,45,48,51)        -50.7143                                         !
 ! D143  D(47,45,48,49)         72.9807                                         !
 ! D144  D(47,45,48,50)        -44.3606                                         !
 ! D145  D(47,45,48,51)       -165.4371                                         !
 ! D146  D(45,48,51,52)        -56.766                                          !
 ! D147  D(45,48,51,53)         65.783                                          !
 ! D148  D(45,48,51,54)       -176.1159                                         !
 ! D149  D(49,48,51,52)         64.4121                                         !
 ! D150  D(49,48,51,53)       -173.0388                                         !
 ! D151  D(49,48,51,54)        -54.9377                                         !
 ! D152  D(50,48,51,52)       -178.0417                                         !
 ! D153  D(50,48,51,53)        -55.4927                                         !
 ! D154  D(50,48,51,54)         62.6084                                         !
 ! D155  D(48,51,54,55)       -179.1886                                         !
 ! D156  D(48,51,54,56)         60.5409                                         !
 ! D157  D(48,51,54,57)        -58.6098                                         !
 ! D158  D(52,51,54,55)         57.4553                                         !
 ! D159  D(52,51,54,56)        -62.8152                                         !
 ! D160  D(52,51,54,57)        178.0341                                         !
 ! D161  D(53,51,54,55)        -57.2334                                         !
 ! D162  D(53,51,54,56)       -177.504                                          !
 ! D163  D(53,51,54,57)         63.3454                                         !
 --------------------------------------------------------------------------------
 Symmetry turned off by external request.
 Stoichiometry    C20H31N4O4(1+)
 Framework group  C1[X(C20H31N4O4)]
 Deg. of freedom   171
 Full point group                 C1      NOp   1
                          Input orientation:                          
 ---------------------------------------------------------------------
 Center     Atomic      Atomic             Coordinates (Angstroms)
 Number     Number       Type             X           Y           Z
 ---------------------------------------------------------------------
      1          7           0       -4.089817    0.135163    4.175197
      2          1           0       -3.554262   -0.729942    4.094478
      3          1           0       -4.980595   -0.049899    3.715588
      4          6           0       -3.365103    1.168241    3.440376
      5          1           0       -4.039797    2.014071    3.285103
      6          6           0       -2.829958    0.639682    2.098937
      7          6           0       -2.167300    1.645435    4.306055
      8          1           0       -2.577273    1.918264    5.282314
      9          1           0       -1.509372    0.780045    4.455734
     10          8           0       -2.351476   -0.511243    2.063288
     11          6           0       -1.405087    2.793344    3.690824
     12          6           0       -1.677934    4.118866    4.048255
     13          1           0       -2.391056    4.321740    4.843587
     14          6           0       -0.478951    2.557385    2.667253
     15          1           0       -0.274134    1.533497    2.376555
     16          6           0       -1.055936    5.178646    3.384663
     17          1           0       -1.280054    6.201333    3.673897
     18          6           0        0.131480    3.609010    1.986393
     19          1           0        0.808492    3.398945    1.163197
     20          6           0       -0.158627    4.927474    2.345036
     21          1           0        0.310568    5.752923    1.818000
     22          7           0       -2.856580    1.438784    1.013689
     23          6           0       -2.400440    0.961829   -0.310756
     24          1           0       -2.782282   -0.052147   -0.464736
     25          6           0       -0.857468    0.911638   -0.412308
     26          6           0       -2.994420    1.988171   -1.279914
     27          1           0       -2.401814    2.069036   -2.191555
     28          1           0       -4.014900    1.689601   -1.542961
     29          8           0       -0.201921    1.719379   -1.058553
     30          6           0       -3.000942    3.282180   -0.455454
     31          1           0       -1.991765    3.701853   -0.425790
     32          1           0       -3.683577    4.040812   -0.845983
     33          6           0       -3.407477    2.811000    0.943293
     34          1           0       -4.498784    2.775452    1.052025
     35          1           0       -2.992630    3.436976    1.732904
     36          7           0       -0.297748   -0.142581    0.253663
     37          1           0       -0.909608   -0.655747    0.894049
     38          6           0        1.122350   -0.404812    0.181748
     39          1           0        1.515000    0.328751   -0.533119
     40          6           0        1.347409   -1.798041   -0.408997
     41          6           0        1.837843   -0.263153    1.530474
     42          1           0        1.460953   -1.044211    2.202467
     43          1           0        1.542460    0.690702    1.971791
     44          8           0        1.953233   -2.703681    0.140944
     45          6           0        3.376460   -0.320059    1.416825
     46          1           0        3.680803   -0.768486    0.465260
     47          1           0        3.782943    0.695709    1.419633
     48          6           0        4.044279   -1.103296    2.560692
     49          1           0        3.641988   -0.754947    3.522828
     50          1           0        5.123756   -0.901596    2.566673
     51          6           0        3.811259   -2.600443    2.410625
     52          1           0        2.757848   -2.871109    2.362903
     53          1           0        4.300274   -3.012570    1.526938
     54          7           0        4.403399   -3.345531    3.612357
     55          1           0        4.273619   -4.361090    3.533612
     56          1           0        3.960124   -3.040335    4.486998
     57          1           0        5.410205   -3.163647    3.702988
     58          8           0        0.790577   -1.926930   -1.618117
     59          1           0        0.957455   -2.838736   -1.924555
 ---------------------------------------------------------------------
 Rotational constants (GHZ):           0.2319135           0.1146083           0.1031245
 Standard basis: 6-31G(d) (6D, 7F)
   482 basis functions,   908 primitive gaussians,   482 cartesian basis functions
   105 alpha electrons      105 beta electrons
       nuclear repulsion energy      2875.5576641716 Hartrees.
 NAtoms=   59 NActive=   59 NUniq=   59 SFac= 1.00D+00 NAtFMM=   60 NAOKFM=F Big=F
 Integral buffers will be    131072 words long.
 Raffenetti 2 integral format.
 Two-electron integral symmetry is turned off.
 Nuclear repulsion after empirical dispersion term =     2875.4272002819 Hartrees.
 One-electron integrals computed using PRISM.
 NBasis=   482 RedAO= T EigKep=  4.43D-04  NBF=   482
 NBsUse=   482 1.00D-06 EigRej= -1.00D+00 NBFU=   482
 Initial guess from the checkpoint file:  "conf-535.chk"
 B after Tr=     0.000000    0.000000    0.000000
         Rot=    1.000000    0.000000    0.000000    0.000000 Ang=   0.00 deg.
 Requested convergence on RMS density matrix=1.00D-08 within 128 cycles.
 Requested convergence on MAX density matrix=1.00D-06.
 Requested convergence on             energy=1.00D-06.
 No special actions if energy rises.
 SCF Done:  E(RB3LYP) =  -1300.64406447     A.U. after    1 cycles
            NFock=  1  Conv=0.42D-08     -V/T= 2.0094

 **********************************************************************

            Population analysis using the SCF Density.

 **********************************************************************

 Alpha  occ. eigenvalues --  -19.29852 -19.24991 -19.19706 -19.19619 -14.64564
 Alpha  occ. eigenvalues --  -14.44610 -14.43632 -14.38002 -10.42651 -10.40636
 Alpha  occ. eigenvalues --  -10.36526 -10.35901 -10.34469 -10.33370 -10.31237
 Alpha  occ. eigenvalues --  -10.30765 -10.29797 -10.29430 -10.29221 -10.26313
 Alpha  occ. eigenvalues --  -10.25817 -10.25687 -10.25651 -10.25577 -10.25483
 Alpha  occ. eigenvalues --  -10.25470 -10.25459 -10.25402  -1.21198  -1.18453
 Alpha  occ. eigenvalues --   -1.12100  -1.11893  -1.10900  -1.01999  -1.01014
 Alpha  occ. eigenvalues --   -0.95651  -0.95311  -0.92217  -0.89178  -0.86972
 Alpha  occ. eigenvalues --   -0.84584  -0.84430  -0.81898  -0.81105  -0.79253
 Alpha  occ. eigenvalues --   -0.78064  -0.77090  -0.76388  -0.73522  -0.72286
 Alpha  occ. eigenvalues --   -0.70350  -0.68980  -0.67584  -0.67243  -0.66641
 Alpha  occ. eigenvalues --   -0.65906  -0.64976  -0.63248  -0.61803  -0.61022
 Alpha  occ. eigenvalues --   -0.59771  -0.58985  -0.58490  -0.57879  -0.57618
 Alpha  occ. eigenvalues --   -0.56791  -0.54563  -0.54396  -0.53779  -0.53314
 Alpha  occ. eigenvalues --   -0.53027  -0.52557  -0.52248  -0.51803  -0.51238
 Alpha  occ. eigenvalues --   -0.50645  -0.49778  -0.49048  -0.48815  -0.48479
 Alpha  occ. eigenvalues --   -0.48186  -0.47488  -0.47227  -0.46418  -0.45949
 Alpha  occ. eigenvalues --   -0.45726  -0.45139  -0.44802  -0.43776  -0.43200
 Alpha  occ. eigenvalues --   -0.42577  -0.42271  -0.42004  -0.40835  -0.40722
 Alpha  occ. eigenvalues --   -0.40474  -0.40114  -0.38895  -0.34904  -0.34033
 Alpha  occ. eigenvalues --   -0.33354  -0.32141  -0.31485  -0.30831  -0.30209
 Alpha virt. eigenvalues --   -0.15131  -0.10354  -0.08559  -0.08387  -0.07282
 Alpha virt. eigenvalues --   -0.06929  -0.06564  -0.05429  -0.05216  -0.02044
 Alpha virt. eigenvalues --   -0.01856  -0.00868   0.00416   0.00830   0.02093
 Alpha virt. eigenvalues --    0.02395   0.03336   0.03668   0.03853   0.04870
 Alpha virt. eigenvalues --    0.05329   0.05695   0.06382   0.06749   0.06842
 Alpha virt. eigenvalues --    0.07486   0.07970   0.08276   0.08869   0.09140
 Alpha virt. eigenvalues --    0.09774   0.10164   0.10605   0.10806   0.11200
 Alpha virt. eigenvalues --    0.11331   0.12009   0.12478   0.12724   0.13258
 Alpha virt. eigenvalues --    0.13574   0.14060   0.14823   0.15196   0.15815
 Alpha virt. eigenvalues --    0.16107   0.16778   0.17891   0.18768   0.19271
 Alpha virt. eigenvalues --    0.19673   0.20638   0.22133   0.22905   0.23853
 Alpha virt. eigenvalues --    0.24871   0.25657   0.26462   0.27090   0.28033
 Alpha virt. eigenvalues --    0.29240   0.30290   0.32001   0.35368   0.36156
 Alpha virt. eigenvalues --    0.36916   0.37135   0.39028   0.39335   0.39944
 Alpha virt. eigenvalues --    0.42185   0.42713   0.44472   0.45427   0.45730
 Alpha virt. eigenvalues --    0.46120   0.46529   0.46814   0.47066   0.48009
 Alpha virt. eigenvalues --    0.48496   0.48810   0.49279   0.49586   0.50547
 Alpha virt. eigenvalues --    0.50626   0.51484   0.52481   0.52905   0.53395
 Alpha virt. eigenvalues --    0.53649   0.54034   0.54817   0.55240   0.55499
 Alpha virt. eigenvalues --    0.55702   0.56541   0.56698   0.57088   0.57582
 Alpha virt. eigenvalues --    0.57919   0.59391   0.60155   0.60416   0.60930
 Alpha virt. eigenvalues --    0.61204   0.62312   0.62384   0.62586   0.63792
 Alpha virt. eigenvalues --    0.63913   0.64957   0.65790   0.66436   0.66716
 Alpha virt. eigenvalues --    0.67407   0.67669   0.68119   0.69062   0.69341
 Alpha virt. eigenvalues --    0.71264   0.72019   0.72652   0.73311   0.74091
 Alpha virt. eigenvalues --    0.74477   0.75185   0.75568   0.76449   0.77073
 Alpha virt. eigenvalues --    0.77662   0.77870   0.78249   0.78517   0.79264
 Alpha virt. eigenvalues --    0.79544   0.79787   0.80076   0.80216   0.80511
 Alpha virt. eigenvalues --    0.80901   0.81469   0.82063   0.82481   0.82946
 Alpha virt. eigenvalues --    0.83249   0.84457   0.84928   0.85625   0.86290
 Alpha virt. eigenvalues --    0.87092   0.87419   0.87723   0.88467   0.88712
 Alpha virt. eigenvalues --    0.89346   0.89871   0.89999   0.91213   0.91961
 Alpha virt. eigenvalues --    0.93068   0.93827   0.94979   0.95447   0.96009
 Alpha virt. eigenvalues --    0.98103   0.99166   0.99636   0.99837   1.00313
 Alpha virt. eigenvalues --    1.01002   1.02434   1.03674   1.05531   1.06619
 Alpha virt. eigenvalues --    1.07389   1.09530   1.10096   1.10701   1.11872
 Alpha virt. eigenvalues --    1.13888   1.14298   1.14978   1.17357   1.18473
 Alpha virt. eigenvalues --    1.19707   1.20419   1.22458   1.23412   1.23959
 Alpha virt. eigenvalues --    1.26203   1.27923   1.28945   1.29963   1.30439
 Alpha virt. eigenvalues --    1.32184   1.32871   1.34557   1.34839   1.35678
 Alpha virt. eigenvalues --    1.36683   1.38036   1.38895   1.41102   1.41398
 Alpha virt. eigenvalues --    1.42013   1.42355   1.43983   1.44741   1.46056
 Alpha virt. eigenvalues --    1.46502   1.48266   1.49055   1.50103   1.51412
 Alpha virt. eigenvalues --    1.52965   1.54343   1.55574   1.56604   1.58008
 Alpha virt. eigenvalues --    1.60192   1.61127   1.61172   1.62787   1.64925
 Alpha virt. eigenvalues --    1.65605   1.66656   1.67075   1.68620   1.68910
 Alpha virt. eigenvalues --    1.70018   1.70162   1.71553   1.71960   1.73290
 Alpha virt. eigenvalues --    1.73993   1.74261   1.75027   1.75442   1.77125
 Alpha virt. eigenvalues --    1.77289   1.78063   1.78134   1.78362   1.79691
 Alpha virt. eigenvalues --    1.81897   1.82429   1.82626   1.83432   1.84205
 Alpha virt. eigenvalues --    1.84352   1.85439   1.86000   1.86253   1.86884
 Alpha virt. eigenvalues --    1.87988   1.88928   1.90210   1.90571   1.91065
 Alpha virt. eigenvalues --    1.92937   1.94339   1.94900   1.96052   1.96377
 Alpha virt. eigenvalues --    1.97418   1.98727   1.99660   2.00285   2.01903
 Alpha virt. eigenvalues --    2.02473   2.03709   2.04587   2.05075   2.05478
 Alpha virt. eigenvalues --    2.06583   2.08047   2.08749   2.09206   2.09593
 Alpha virt. eigenvalues --    2.09987   2.11479   2.11746   2.12967   2.14110
 Alpha virt. eigenvalues --    2.15046   2.17011   2.17174   2.18623   2.20466
 Alpha virt. eigenvalues --    2.21318   2.21737   2.22348   2.24657   2.26119
 Alpha virt. eigenvalues --    2.26282   2.26518   2.28122   2.29022   2.30071
 Alpha virt. eigenvalues --    2.32307   2.33505   2.34173   2.35895   2.36124
 Alpha virt. eigenvalues --    2.36722   2.37439   2.39334   2.40528   2.42690
 Alpha virt. eigenvalues --    2.44111   2.44880   2.46534   2.47801   2.49449
 Alpha virt. eigenvalues --    2.50664   2.52064   2.52935   2.53928   2.55380
 Alpha virt. eigenvalues --    2.56080   2.57293   2.58835   2.59830   2.60950
 Alpha virt. eigenvalues --    2.62529   2.63131   2.65908   2.67032   2.67615
 Alpha virt. eigenvalues --    2.68314   2.69099   2.70595   2.71659   2.73897
 Alpha virt. eigenvalues --    2.77648   2.78985   2.82141   2.87836   2.88693
 Alpha virt. eigenvalues --    2.89578   2.92528   2.96710   2.97923   3.00041
 Alpha virt. eigenvalues --    3.00837   3.06891   3.14052   3.34694   3.54562
 Alpha virt. eigenvalues --    3.74730   3.76030   3.92903   3.96686   4.02406
 Alpha virt. eigenvalues --    4.04738   4.07676   4.09424   4.10565   4.12670
 Alpha virt. eigenvalues --    4.17308   4.19542   4.20686   4.21778   4.27633
 Alpha virt. eigenvalues --    4.31694   4.32305   4.36064   4.37967   4.39122
 Alpha virt. eigenvalues --    4.40321   4.49792   4.52649   4.55595   4.62864
 Alpha virt. eigenvalues --    4.65074   4.67555
          Condensed to atoms (all electrons):
 Mulliken charges:
               1
     1  N   -0.695173
     2  H    0.311184
     3  H    0.305649
     4  C   -0.063352
     5  H    0.152828
     6  C    0.591257
     7  C   -0.341362
     8  H    0.173506
     9  H    0.142290
    10  O   -0.592444
    11  C    0.146953
    12  C   -0.192755
    13  H    0.139318
    14  C   -0.194430
    15  H    0.131664
    16  C   -0.126915
    17  H    0.145718
    18  C   -0.144914
    19  H    0.143680
    20  C   -0.136455
    21  H    0.143550
    22  N   -0.426185
    23  C   -0.071787
    24  H    0.178291
    25  C    0.626511
    26  C   -0.293163
    27  H    0.185118
    28  H    0.153285
    29  O   -0.513984
    30  C   -0.311419
    31  H    0.185442
    32  H    0.162327
    33  C   -0.138663
    34  H    0.160354
    35  H    0.192366
    36  N   -0.632919
    37  H    0.381396
    38  C   -0.043076
    39  H    0.215925
    40  C    0.596127
    41  C   -0.282933
    42  H    0.136025
    43  H    0.186479
    44  O   -0.506410
    45  C   -0.270203
    46  H    0.165638
    47  H    0.181411
    48  C   -0.303422
    49  H    0.165286
    50  H    0.166216
    51  C   -0.198972
    52  H    0.247990
    53  H    0.232136
    54  N   -0.733658
    55  H    0.431193
    56  H    0.423860
    57  H    0.423123
    58  O   -0.533676
    59  H    0.424173
 Sum of Mulliken charges =   1.00000
 Mulliken charges with hydrogens summed into heavy atoms:
               1
     1  N   -0.078340
     4  C    0.089476
     6  C    0.591257
     7  C   -0.025566
    10  O   -0.592444
    11  C    0.146953
    12  C   -0.053436
    14  C   -0.062766
    16  C    0.018803
    18  C   -0.001234
    20  C    0.007095
    22  N   -0.426185
    23  C    0.106504
    25  C    0.626511
    26  C    0.045240
    29  O   -0.513984
    30  C    0.036350
    33  C    0.214057
    36  N   -0.251523
    38  C    0.172849
    40  C    0.596127
    41  C    0.039571
    44  O   -0.506410
    45  C    0.076846
    48  C    0.028081
    51  C    0.281155
    54  N    0.544518
    58  O   -0.109503
 Electronic spatial extent (au):  <R**2>=          13965.5147
 Charge=              1.0000 electrons
 Dipole moment (field-independent basis, Debye):
    X=             14.6839    Y=            -10.6053    Z=             13.6412  Tot=             22.6753
 Quadrupole moment (field-independent basis, Debye-Ang):
   XX=            -63.4519   YY=           -102.6776   ZZ=           -113.3406
   XY=            -68.0936   XZ=             63.6907   YZ=            -34.9303
 Traceless Quadrupole moment (field-independent basis, Debye-Ang):
   XX=             29.7048   YY=             -9.5209   ZZ=            -20.1839
   XY=            -68.0936   XZ=             63.6907   YZ=            -34.9303
 Octapole moment (field-independent basis, Debye-Ang**2):
  XXX=            528.6927  YYY=           -524.5449  ZZZ=           -602.9321  XYY=            230.7473
  XXY=           -364.6716  XXZ=             29.3182  XZZ=            326.0179  YZZ=           -324.4673
  YYZ=            -67.1877  XYZ=           -224.1487
 Hexadecapole moment (field-independent basis, Debye-Ang**3):
 XXXX=          -4263.7800 YYYY=          -4817.1650 ZZZZ=          -5171.7987 XXXY=            469.0619
 XXXZ=           1720.5462 YYYX=            929.4374 YYYZ=          -1347.0960 ZZZX=           1448.9330
 ZZZY=          -1645.9157 XXYY=          -1065.5879 XXZZ=          -1057.5994 YYZZ=          -1163.1721
 XXYZ=          -1266.8035 YYXZ=            739.4875 ZZXY=           -302.7542
 N-N= 2.875427200282D+03 E-N=-8.757656370648D+03  KE= 1.288500587245D+03
 Unable to Open any file for archive entry.
 1\1\GINC-SKL-158\SP\RB3LYP\6-31G(d)\C20H31N4O4(1+)\KENGMITH\23-Jun-202
 2\0\\# B3LYP/6-31G* empiricaldispersion=gd3bj guess=read geom=check no
 symm integral(ultrafinegrid)\\Candidate Structure: Conf:535 Charge cal
 c in gas phase\\1,1\N,0,-4.0898173631,0.135162565,4.1751968079\H,0,-3.
 5542621074,-0.7299420243,4.094478037\H,0,-4.9805951928,-0.0498991393,3
 .7155879158\C,0,-3.3651026024,1.1682408748,3.4403756462\H,0,-4.0397965
 909,2.0140709072,3.2851026438\C,0,-2.8299580629,0.6396817685,2.0989366
 923\C,0,-2.1673003967,1.6454354215,4.3060554817\H,0,-2.5772725161,1.91
 8264119,5.2823142096\H,0,-1.5093716177,0.7800449872,4.4557339138\O,0,-
 2.3514760761,-0.5112425442,2.0632884638\C,0,-1.4050871702,2.7933441505
 ,3.690823722\C,0,-1.6779338959,4.1188659049,4.0482545692\H,0,-2.391056
 1985,4.3217402736,4.8435867699\C,0,-0.4789508338,2.5573846704,2.667252
 7813\H,0,-0.2741342299,1.5334973522,2.3765546082\C,0,-1.0559358934,5.1
 786460668,3.3846634134\H,0,-1.2800539226,6.2013330751,3.6738972046\C,0
 ,0.131479696,3.6090096363,1.9863925807\H,0,0.8084924921,3.3989450164,1
 .1631974277\C,0,-0.158627035,4.9274738596,2.3450359705\H,0,0.310567664
 ,5.7529225822,1.8180002246\N,0,-2.8565801794,1.4387843782,1.0136892741
 \C,0,-2.4004404632,0.9618294937,-0.3107560486\H,0,-2.7822821547,-0.052
 1473143,-0.464735856\C,0,-0.8574678314,0.9116384085,-0.4123083865\C,0,
 -2.9944204301,1.9881710964,-1.2799144752\H,0,-2.4018144956,2.069036409
 7,-2.1915554948\H,0,-4.014899974,1.6896006914,-1.542960804\O,0,-0.2019
 208244,1.7193792906,-1.0585529275\C,0,-3.000941938,3.2821799261,-0.455
 45381\H,0,-1.9917649669,3.7018532844,-0.425790284\H,0,-3.6835773582,4.
 040812146,-0.8459826612\C,0,-3.407476513,2.8110002879,0.9432933195\H,0
 ,-4.4987844497,2.7754518456,1.0520254342\H,0,-2.992630033,3.4369759867
 ,1.7329039757\N,0,-0.2977477889,-0.1425813342,0.2536629455\H,0,-0.9096
 076114,-0.6557470834,0.8940489754\C,0,1.1223504809,-0.4048118026,0.181
 7484419\H,0,1.5150002076,0.328750687,-0.5331187526\C,0,1.3474086478,-1
 .7980413788,-0.4089970739\C,0,1.8378433262,-0.2631527657,1.5304735489\
 H,0,1.4609525952,-1.0442113704,2.2024670164\H,0,1.542460128,0.69070155
 6,1.9717906542\O,0,1.9532331238,-2.7036811554,0.1409436537\C,0,3.37645
 98616,-0.3200587858,1.4168247303\H,0,3.6808032208,-0.7684861905,0.4652
 601046\H,0,3.7829427074,0.6957086945,1.4196326659\C,0,4.0442786511,-1.
 1032964772,2.5606921792\H,0,3.6419881128,-0.7549469283,3.522827524\H,0
 ,5.1237555626,-0.9015959821,2.5666733471\C,0,3.8112592056,-2.600442839
 6,2.4106247976\H,0,2.7578479868,-2.8711086041,2.3629030198\H,0,4.30027
 36269,-3.0125703867,1.5269375941\N,0,4.4033993295,-3.3455312946,3.6123
 570295\H,0,4.2736190476,-4.3610896675,3.5336115755\H,0,3.9601239539,-3
 .0403353392,4.4869981\H,0,5.4102052957,-3.1636467295,3.7029879227\O,0,
 0.7905767716,-1.9269302075,-1.6181168728\H,0,0.9574547116,-2.838736009
 1,-1.9245546763\\Version=ES64L-G16RevC.01\HF=-1300.6440645\RMSD=4.201e
 -09\Dipole=6.4890116,-5.6138607,2.4768193\Quadrupole=22.0847953,-7.078
 5447,-15.0062506,-50.6259352,47.352492,-25.9697997\PG=C01 [X(C20H31N4O
 4)]\\@
 The archive entry for this job was punched.


 LIFE IS A CONTINUAL STRUGGLE AGAINST THE TENDENCY TO PRODUCE ENTROPY.
 Job cpu time:       0 days  0 hours  1 minutes  2.8 seconds.
 Elapsed time:       0 days  0 hours  0 minutes 16.3 seconds.
 File lengths (MBytes):  RWF=    240 Int=      0 D2E=      0 Chk=     32 Scr=     16
 Normal termination of Gaussian 16 at Thu Jun 23 11:08:28 2022.
