 Entering Gaussian System, Link 0=/opt/software/Gaussian/g16-AVX2-C.01/g16/g16
 Input=charge-conf-102.com
 Output=charge-conf-102.log
 Initial command:
 /opt/software/Gaussian/g16-AVX2-C.01/g16/l1.exe "/mnt/gs18/scratch/users/kengmith/Gau-47560.inp" -scrdir="/mnt/gs18/scratch/users/kengmith/"
 Entering Link 1 = /opt/software/Gaussian/g16-AVX2-C.01/g16/l1.exe PID=     47571.
  
 Copyright (c) 1988-2019, Gaussian, Inc.  All Rights Reserved.
  
 This is part of the Gaussian(R) 16 program.  It is based on
 the Gaussian(R) 09 system (copyright 2009, Gaussian, Inc.),
 the Gaussian(R) 03 system (copyright 2003, Gaussian, Inc.),
 the Gaussian(R) 98 system (copyright 1998, Gaussian, Inc.),
 the Gaussian(R) 94 system (copyright 1995, Gaussian, Inc.),
 the Gaussian 92(TM) system (copyright 1992, Gaussian, Inc.),
 the Gaussian 90(TM) system (copyright 1990, Gaussian, Inc.),
 the Gaussian 88(TM) system (copyright 1988, Gaussian, Inc.),
 the Gaussian 86(TM) system (copyright 1986, Carnegie Mellon
 University), and the Gaussian 82(TM) system (copyright 1983,
 Carnegie Mellon University). Gaussian is a federally registered
 trademark of Gaussian, Inc.
  
 This software contains proprietary and confidential information,
 including trade secrets, belonging to Gaussian, Inc.
  
 This software is provided under written license and may be
 used, copied, transmitted, or stored only in accord with that
 written license.
  
 The following legend is applicable only to US Government
 contracts under FAR:
  
                    RESTRICTED RIGHTS LEGEND
  
 Use, reproduction and disclosure by the US Government is
 subject to restrictions as set forth in subparagraphs (a)
 and (c) of the Commercial Computer Software - Restricted
 Rights clause in FAR 52.227-19.
  
 Gaussian, Inc.
 340 Quinnipiac St., Bldg. 40, Wallingford CT 06492
  
  
 ---------------------------------------------------------------
 Warning -- This program may not be used in any manner that
 competes with the business of Gaussian, Inc. or will provide
 assistance to any competitor of Gaussian, Inc.  The licensee
 of this program is prohibited from giving any competitor of
 Gaussian, Inc. access to this program.  By using this program,
 the user acknowledges that Gaussian, Inc. is engaged in the
 business of creating and licensing software in the field of
 computational chemistry and represents and warrants to the
 licensee that it is not a competitor of Gaussian, Inc. and that
 it will not use this program in any manner prohibited above.
 ---------------------------------------------------------------
  

 Cite this work as:
 Gaussian 16, Revision C.01,
 M. J. Frisch, G. W. Trucks, H. B. Schlegel, G. E. Scuseria, 
 M. A. Robb, J. R. Cheeseman, G. Scalmani, V. Barone, 
 G. A. Petersson, H. Nakatsuji, X. Li, M. Caricato, A. V. Marenich, 
 J. Bloino, B. G. Janesko, R. Gomperts, B. Mennucci, H. P. Hratchian, 
 J. V. Ortiz, A. F. Izmaylov, J. L. Sonnenberg, D. Williams-Young, 
 F. Ding, F. Lipparini, F. Egidi, J. Goings, B. Peng, A. Petrone, 
 T. Henderson, D. Ranasinghe, V. G. Zakrzewski, J. Gao, N. Rega, 
 G. Zheng, W. Liang, M. Hada, M. Ehara, K. Toyota, R. Fukuda, 
 J. Hasegawa, M. Ishida, T. Nakajima, Y. Honda, O. Kitao, H. Nakai, 
 T. Vreven, K. Throssell, J. A. Montgomery, Jr., J. E. Peralta, 
 F. Ogliaro, M. J. Bearpark, J. J. Heyd, E. N. Brothers, K. N. Kudin, 
 V. N. Staroverov, T. A. Keith, R. Kobayashi, J. Normand, 
 K. Raghavachari, A. P. Rendell, J. C. Burant, S. S. Iyengar, 
 J. Tomasi, M. Cossi, J. M. Millam, M. Klene, C. Adamo, R. Cammi, 
 J. W. Ochterski, R. L. Martin, K. Morokuma, O. Farkas, 
 J. B. Foresman, and D. J. Fox, Gaussian, Inc., Wallingford CT, 2019.
 
 ******************************************
 Gaussian 16:  ES64L-G16RevC.01  3-Jul-2019
                23-Jun-2022 
 ******************************************
 %mem=8gb
 %nproc=4
 Will use up to    4 processors via shared memory.
 %chk=conf-102.chk
 ----------------------------------------------------------------------
 # B3LYP/6-31G* empiricaldispersion=gd3bj guess=read geom=check nosymm 
 integral(ultrafinegrid)
 ----------------------------------------------------------------------
 1/29=2,38=1,172=1/1;
 2/12=2,15=1,40=1/2;
 3/5=1,6=6,7=1,11=2,14=-4,25=1,30=1,74=-5,75=-5,116=-2,124=41/1,2,3;
 4/5=1/1;
 5/5=2,38=6/2;
 6/7=2,8=2,9=2,10=2,28=1/1;
 99/5=1,9=1/99;
 ------------------------------------------------------
 Candidate Structure: Conf:102 Charge calc in gas phase
 ------------------------------------------------------
 Structure from the checkpoint file:  "conf-102.chk"
 Charge =  1 Multiplicity = 1
 Redundant internal coordinates found in file.  (old form).
 N,0,-2.9727818984,-2.0701364046,3.4215172773
 H,0,-3.0571234415,-2.300160158,4.4090017086
 H,0,-2.2127001518,-2.6215738589,3.0290124198
 C,0,-2.6604636203,-0.6584078702,3.258428209
 H,0,-3.5538514592,-0.0797490826,3.5044261514
 C,0,-2.2515884942,-0.4532550059,1.7994816824
 C,0,-1.4970401446,-0.1305391398,4.1612285257
 H,0,-1.7381922658,-0.4114857078,5.1932137737
 H,0,-0.5849903217,-0.6711884113,3.8791969714
 O,0,-1.5022892194,-1.3050695005,1.2795831894
 C,0,-1.3034496798,1.3615620906,4.0564197864
 C,0,-0.4621486114,1.9121982519,3.0827320137
 H,0,0.1176775507,1.2500472413,2.4467021812
 C,0,-2.0526859365,2.2326227672,4.8571872417
 H,0,-2.709146835,1.8238154942,5.6218783136
 C,0,-0.3863988398,3.2901643963,2.8881235919
 H,0,0.2441641084,3.6874985675,2.0993752483
 C,0,-1.9706583347,3.6141036247,4.6811835372
 H,0,-2.5566976441,4.2743710069,5.3138176976
 C,0,-1.1435818503,4.1465393561,3.6900948268
 H,0,-1.088199183,5.2211821655,3.5445667204
 N,0,-2.6350742848,0.6600072307,1.1422487092
 C,0,-2.2049883654,0.9112330414,-0.2556515203
 H,0,-2.3724395932,-0.0053048636,-0.8305218135
 C,0,-0.701885448,1.2655903087,-0.3124510599
 C,0,-3.0846486819,2.0815753375,-0.7268214651
 H,0,-2.494534937,2.9998760956,-0.6699306243
 H,0,-3.4087747112,1.9474947357,-1.7614236525
 O,0,-0.2731613163,2.4091061032,-0.334535515
 C,0,-4.2483583433,2.1232584371,0.2727224484
 H,0,-4.7071147813,3.1126077961,0.3442965794
 H,0,-5.0270450109,1.4034743825,-0.0022367842
 C,0,-3.5885953861,1.6966345486,1.5841421544
 H,0,-4.2961865906,1.2892423336,2.3047912944
 H,0,-3.0449232674,2.5231802427,2.0524838949
 N,0,0.1087809185,0.1571657656,-0.3333084725
 H,0,-0.3442316374,-0.6899454665,0.0272951576
 C,0,1.5365013262,0.3047309967,-0.1318901572
 H,0,1.720648707,1.3696649832,0.0603104518
 C,0,2.2426136245,-0.0427784289,-1.440851138
 C,0,2.0381618209,-0.5647527938,1.0227454112
 H,0,1.89315204,-1.617410436,0.7476317021
 H,0,1.3785683522,-0.4063916017,1.8796501864
 O,0,2.985170483,-1.0097131239,-1.6251260227
 C,0,3.4968544047,-0.2674513249,1.4247547394
 H,0,4.0660606307,0.1077504126,0.5646228683
 H,0,3.493846648,0.548058751,2.154078257
 C,0,4.241335487,-1.475151486,2.0240306242
 H,0,3.5586556904,-2.0897184772,2.6259912333
 H,0,5.0215160634,-1.13235606,2.7125584292
 C,0,4.9640031369,-2.3448049861,0.9985408843
 H,0,5.6945357218,-1.7617455638,0.432175654
 H,0,5.4764765405,-3.1862124605,1.4704285603
 N,0,4.0217347793,-2.9264521591,-0.0370501661
 H,0,4.52507333,-3.5270506029,-0.6980518225
 H,0,3.5459475803,-2.1607425513,-0.6034541512
 H,0,3.2944176587,-3.4982699652,0.403559815
 O,0,1.95743254,0.8059442319,-2.4140407627
 H,0,2.3983927133,0.5064423946,-3.2332864647
 Recover connectivity data from disk.
                           ----------------------------
                           !    Current Parameters    !
                           ! (Angstroms and Degrees)  !
 --------------------------                            --------------------------
 ! Name  Definition              Value                                          !
 --------------------------------------------------------------------------------
 ! R1    R(1,2)                  1.0174                                         !
 ! R2    R(1,3)                  1.0178                                         !
 ! R3    R(1,4)                  1.455                                          !
 ! R4    R(4,5)                  1.0925                                         !
 ! R5    R(4,6)                  1.529                                          !
 ! R6    R(4,7)                  1.5644                                         !
 ! R7    R(6,10)                 1.2479                                         !
 ! R8    R(6,22)                 1.3485                                         !
 ! R9    R(7,8)                  1.0964                                         !
 ! R10   R(7,9)                  1.0971                                         !
 ! R11   R(7,11)                 1.5083                                         !
 ! R12   R(11,12)                1.3997                                         !
 ! R13   R(11,14)                1.4005                                         !
 ! R14   R(12,13)                1.0859                                         !
 ! R15   R(12,16)                1.3937                                         !
 ! R16   R(14,15)                1.0876                                         !
 ! R17   R(14,18)                1.3951                                         !
 ! R18   R(16,17)                1.0852                                         !
 ! R19   R(16,20)                1.3964                                         !
 ! R20   R(18,19)                1.0861                                         !
 ! R21   R(18,20)                1.3964                                         !
 ! R22   R(20,21)                1.0859                                         !
 ! R23   R(22,23)                1.484                                          !
 ! R24   R(22,33)                1.4762                                         !
 ! R25   R(23,24)                1.0948                                         !
 ! R26   R(23,25)                1.5454                                         !
 ! R27   R(23,26)                1.538                                          !
 ! R28   R(25,29)                1.2214                                         !
 ! R29   R(25,36)                1.3734                                         !
 ! R30   R(26,27)                1.093                                          !
 ! R31   R(26,28)                1.0924                                         !
 ! R32   R(26,30)                1.5346                                         !
 ! R33   R(30,31)                1.0929                                         !
 ! R34   R(30,32)                1.0955                                         !
 ! R35   R(30,33)                1.5288                                         !
 ! R36   R(33,34)                1.089                                          !
 ! R37   R(33,35)                1.0946                                         !
 ! R38   R(36,37)                1.0261                                         !
 ! R39   R(36,38)                1.4494                                         !
 ! R40   R(38,39)                1.0977                                         !
 ! R41   R(38,40)                1.5273                                         !
 ! R42   R(38,41)                1.53                                           !
 ! R43   R(40,44)                1.233                                          !
 ! R44   R(40,58)                1.3224                                         !
 ! R45   R(41,42)                1.0976                                         !
 ! R46   R(41,43)                1.0929                                         !
 ! R47   R(41,45)                1.542                                          !
 ! R48   R(45,46)                1.0975                                         !
 ! R49   R(45,47)                1.0941                                         !
 ! R50   R(45,48)                1.5401                                         !
 ! R51   R(48,49)                1.0982                                         !
 ! R52   R(48,50)                1.0956                                         !
 ! R53   R(48,51)                1.5265                                         !
 ! R54   R(51,52)                1.0929                                         !
 ! R55   R(51,53)                1.0924                                         !
 ! R56   R(51,54)                1.5161                                         !
 ! R57   R(54,55)                1.0252                                         !
 ! R58   R(54,56)                1.0647                                         !
 ! R59   R(54,57)                1.0247                                         !
 ! R60   R(58,59)                0.9774                                         !
 ! A1    A(2,1,3)              108.2833                                         !
 ! A2    A(2,1,4)              110.239                                          !
 ! A3    A(3,1,4)              108.7933                                         !
 ! A4    A(1,4,5)              108.2488                                         !
 ! A5    A(1,4,6)              107.1296                                         !
 ! A6    A(1,4,7)              114.9823                                         !
 ! A7    A(5,4,6)              111.2522                                         !
 ! A8    A(5,4,7)              107.4272                                         !
 ! A9    A(6,4,7)              107.8493                                         !
 ! A10   A(4,6,10)             117.8076                                         !
 ! A11   A(4,6,22)             119.986                                          !
 ! A12   A(10,6,22)            122.0883                                         !
 ! A13   A(4,7,8)              107.047                                          !
 ! A14   A(4,7,9)              107.6747                                         !
 ! A15   A(4,7,11)             112.9031                                         !
 ! A16   A(8,7,9)              107.3696                                         !
 ! A17   A(8,7,11)             110.3126                                         !
 ! A18   A(9,7,11)             111.2812                                         !
 ! A19   A(7,11,12)            120.9764                                         !
 ! A20   A(7,11,14)            120.4584                                         !
 ! A21   A(12,11,14)           118.3362                                         !
 ! A22   A(11,12,13)           119.2434                                         !
 ! A23   A(11,12,16)           121.2499                                         !
 ! A24   A(13,12,16)           119.4774                                         !
 ! A25   A(11,14,15)           119.4165                                         !
 ! A26   A(11,14,18)           120.8189                                         !
 ! A27   A(15,14,18)           119.7639                                         !
 ! A28   A(12,16,17)           119.6755                                         !
 ! A29   A(12,16,20)           119.7815                                         !
 ! A30   A(17,16,20)           120.5289                                         !
 ! A31   A(14,18,19)           119.788                                          !
 ! A32   A(14,18,20)           120.1302                                         !
 ! A33   A(19,18,20)           120.0809                                         !
 ! A34   A(16,20,18)           119.6678                                         !
 ! A35   A(16,20,21)           120.1535                                         !
 ! A36   A(18,20,21)           120.1786                                         !
 ! A37   A(6,22,23)            121.0952                                         !
 ! A38   A(6,22,33)            128.1374                                         !
 ! A39   A(23,22,33)           110.5062                                         !
 ! A40   A(22,23,24)           107.9737                                         !
 ! A41   A(22,23,25)           110.8141                                         !
 ! A42   A(22,23,26)           104.5745                                         !
 ! A43   A(24,23,25)           108.7502                                         !
 ! A44   A(24,23,26)           112.8739                                         !
 ! A45   A(25,23,26)           111.7501                                         !
 ! A46   A(23,25,29)           123.8308                                         !
 ! A47   A(23,25,36)           112.9308                                         !
 ! A48   A(29,25,36)           123.2383                                         !
 ! A49   A(23,26,27)           108.3345                                         !
 ! A50   A(23,26,28)           111.4955                                         !
 ! A51   A(23,26,30)           104.7643                                         !
 ! A52   A(27,26,28)           108.2152                                         !
 ! A53   A(27,26,30)           110.651                                          !
 ! A54   A(28,26,30)           113.2779                                         !
 ! A55   A(26,30,31)           112.6784                                         !
 ! A56   A(26,30,32)           110.9587                                         !
 ! A57   A(26,30,33)           102.9378                                         !
 ! A58   A(31,30,32)           108.2322                                         !
 ! A59   A(31,30,33)           112.1854                                         !
 ! A60   A(32,30,33)           109.799                                          !
 ! A61   A(22,33,30)           102.5884                                         !
 ! A62   A(22,33,34)           110.7989                                         !
 ! A63   A(22,33,35)           109.7265                                         !
 ! A64   A(30,33,34)           113.0567                                         !
 ! A65   A(30,33,35)           111.757                                          !
 ! A66   A(34,33,35)           108.7881                                         !
 ! A67   A(25,36,37)           113.6006                                         !
 ! A68   A(25,36,38)           119.8122                                         !
 ! A69   A(37,36,38)           118.0415                                         !
 ! A70   A(36,38,39)           106.7595                                         !
 ! A71   A(36,38,40)           108.2487                                         !
 ! A72   A(36,38,41)           111.7156                                         !
 ! A73   A(39,38,40)           107.052                                          !
 ! A74   A(39,38,41)           111.3578                                         !
 ! A75   A(40,38,41)           111.4619                                         !
 ! A76   A(38,40,44)           125.7984                                         !
 ! A77   A(38,40,58)           112.6423                                         !
 ! A78   A(44,40,58)           121.5468                                         !
 ! A79   A(38,41,42)           108.2123                                         !
 ! A80   A(38,41,43)           108.1483                                         !
 ! A81   A(38,41,45)           113.4126                                         !
 ! A82   A(42,41,43)           104.818                                          !
 ! A83   A(42,41,45)           112.0378                                         !
 ! A84   A(43,41,45)           109.7898                                         !
 ! A85   A(41,45,46)           110.6217                                         !
 ! A86   A(41,45,47)           108.355                                          !
 ! A87   A(41,45,48)           114.05                                           !
 ! A88   A(46,45,47)           105.6065                                         !
 ! A89   A(46,45,48)           108.8032                                         !
 ! A90   A(47,45,48)           109.0536                                         !
 ! A91   A(45,48,49)           110.5859                                         !
 ! A92   A(45,48,50)           110.0856                                         !
 ! A93   A(45,48,51)           114.4683                                         !
 ! A94   A(49,48,50)           105.8602                                         !
 ! A95   A(49,48,51)           110.1026                                         !
 ! A96   A(50,48,51)           105.2676                                         !
 ! A97   A(48,51,52)           111.1404                                         !
 ! A98   A(48,51,53)           111.7597                                         !
 ! A99   A(48,51,54)           112.5324                                         !
 ! A100  A(52,51,53)           108.7361                                         !
 ! A101  A(52,51,54)           105.4343                                         !
 ! A102  A(53,51,54)           106.9259                                         !
 ! A103  A(51,54,55)           111.1016                                         !
 ! A104  A(51,54,56)           111.4207                                         !
 ! A105  A(51,54,57)           111.192                                          !
 ! A106  A(55,54,56)           107.3219                                         !
 ! A107  A(55,54,57)           107.3852                                         !
 ! A108  A(56,54,57)           108.2333                                         !
 ! A109  A(40,58,59)           108.8374                                         !
 ! D1    D(2,1,4,5)            -72.0297                                         !
 ! D2    D(2,1,4,6)            167.9034                                         !
 ! D3    D(2,1,4,7)             48.0719                                         !
 ! D4    D(3,1,4,5)            169.3725                                         !
 ! D5    D(3,1,4,6)             49.3056                                         !
 ! D6    D(3,1,4,7)            -70.5259                                         !
 ! D7    D(1,4,6,10)           -42.4112                                         !
 ! D8    D(1,4,6,22)           141.4558                                         !
 ! D9    D(5,4,6,10)          -160.5402                                         !
 ! D10   D(5,4,6,22)            23.3268                                         !
 ! D11   D(7,4,6,10)            81.8896                                         !
 ! D12   D(7,4,6,22)           -94.2435                                         !
 ! D13   D(1,4,7,8)            -52.7011                                         !
 ! D14   D(1,4,7,9)             62.477                                          !
 ! D15   D(1,4,7,11)          -174.2827                                         !
 ! D16   D(5,4,7,8)             67.8524                                         !
 ! D17   D(5,4,7,9)           -176.9695                                         !
 ! D18   D(5,4,7,11)           -53.7292                                         !
 ! D19   D(6,4,7,8)           -172.134                                          !
 ! D20   D(6,4,7,9)            -56.9559                                         !
 ! D21   D(6,4,7,11)            66.2844                                         !
 ! D22   D(4,6,22,23)          177.4153                                         !
 ! D23   D(4,6,22,33)           -9.037                                          !
 ! D24   D(10,6,22,23)           1.4527                                         !
 ! D25   D(10,6,22,33)         175.0004                                         !
 ! D26   D(4,7,11,12)          -88.4038                                         !
 ! D27   D(4,7,11,14)           86.0067                                         !
 ! D28   D(8,7,11,12)          151.878                                          !
 ! D29   D(8,7,11,14)          -33.7114                                         !
 ! D30   D(9,7,11,12)           32.8127                                         !
 ! D31   D(9,7,11,14)         -152.7767                                         !
 ! D32   D(7,11,12,13)          -4.8417                                         !
 ! D33   D(7,11,12,16)         173.1796                                         !
 ! D34   D(14,11,12,13)       -179.3681                                         !
 ! D35   D(14,11,12,16)         -1.3467                                         !
 ! D36   D(7,11,14,15)           5.683                                          !
 ! D37   D(7,11,14,18)        -174.037                                          !
 ! D38   D(12,11,14,15)       -179.7613                                         !
 ! D39   D(12,11,14,18)          0.5188                                         !
 ! D40   D(11,12,16,17)       -177.5478                                         !
 ! D41   D(11,12,16,20)          1.0922                                         !
 ! D42   D(13,12,16,17)          0.469                                          !
 ! D43   D(13,12,16,20)        179.109                                          !
 ! D44   D(11,14,18,19)       -179.7984                                         !
 ! D45   D(11,14,18,20)          0.5559                                         !
 ! D46   D(15,14,18,19)          0.4826                                         !
 ! D47   D(15,14,18,20)       -179.1631                                         !
 ! D48   D(12,16,20,18)          0.0118                                         !
 ! D49   D(12,16,20,21)        179.9197                                         !
 ! D50   D(17,16,20,18)        178.6401                                         !
 ! D51   D(17,16,20,21)         -1.452                                          !
 ! D52   D(14,18,20,16)         -0.8245                                         !
 ! D53   D(14,18,20,21)        179.2676                                         !
 ! D54   D(19,18,20,16)        179.5309                                         !
 ! D55   D(19,18,20,21)         -0.377                                          !
 ! D56   D(6,22,23,24)          47.4218                                         !
 ! D57   D(6,22,23,25)         -71.581                                          !
 ! D58   D(6,22,23,26)         167.8583                                         !
 ! D59   D(33,22,23,24)       -127.1633                                         !
 ! D60   D(33,22,23,25)        113.8339                                         !
 ! D61   D(33,22,23,26)         -6.7268                                         !
 ! D62   D(6,22,33,30)        -146.0318                                         !
 ! D63   D(6,22,33,34)         -25.0953                                         !
 ! D64   D(6,22,33,35)          95.0504                                         !
 ! D65   D(23,22,33,30)         28.0713                                         !
 ! D66   D(23,22,33,34)        149.0078                                         !
 ! D67   D(23,22,33,35)        -90.8465                                         !
 ! D68   D(22,23,25,29)        -95.8704                                         !
 ! D69   D(22,23,25,36)         84.0191                                         !
 ! D70   D(24,23,25,29)        145.5962                                         !
 ! D71   D(24,23,25,36)        -34.5143                                         !
 ! D72   D(26,23,25,29)         20.3295                                         !
 ! D73   D(26,23,25,36)       -159.781                                          !
 ! D74   D(22,23,26,27)        100.6961                                         !
 ! D75   D(22,23,26,28)       -140.329                                          !
 ! D76   D(22,23,26,30)        -17.4393                                         !
 ! D77   D(24,23,26,27)       -142.1911                                         !
 ! D78   D(24,23,26,28)        -23.2162                                         !
 ! D79   D(24,23,26,30)         99.6735                                         !
 ! D80   D(25,23,26,27)        -19.2394                                         !
 ! D81   D(25,23,26,28)         99.7355                                         !
 ! D82   D(25,23,26,30)       -137.3748                                         !
 ! D83   D(23,25,36,37)        -21.0475                                         !
 ! D84   D(23,25,36,38)       -168.3579                                         !
 ! D85   D(29,25,36,37)        158.8428                                         !
 ! D86   D(29,25,36,38)         11.5323                                         !
 ! D87   D(23,26,30,31)        155.3045                                         !
 ! D88   D(23,26,30,32)        -83.1506                                         !
 ! D89   D(23,26,30,33)         34.2468                                         !
 ! D90   D(27,26,30,31)         38.755                                          !
 ! D91   D(27,26,30,32)        160.3                                            !
 ! D92   D(27,26,30,33)        -82.3026                                         !
 ! D93   D(28,26,30,31)        -82.9667                                         !
 ! D94   D(28,26,30,32)         38.5782                                         !
 ! D95   D(28,26,30,33)        155.9756                                         !
 ! D96   D(26,30,33,22)        -37.6929                                         !
 ! D97   D(26,30,33,34)       -157.0648                                         !
 ! D98   D(26,30,33,35)         79.7907                                         !
 ! D99   D(31,30,33,22)       -159.0862                                         !
 ! D100  D(31,30,33,34)         81.5419                                         !
 ! D101  D(31,30,33,35)        -41.6026                                         !
 ! D102  D(32,30,33,22)         80.5215                                         !
 ! D103  D(32,30,33,34)        -38.8504                                         !
 ! D104  D(32,30,33,35)       -161.9949                                         !
 ! D105  D(25,36,38,39)          2.5577                                         !
 ! D106  D(25,36,38,40)       -112.3882                                         !
 ! D107  D(25,36,38,41)        124.5183                                         !
 ! D108  D(37,36,38,39)       -143.3353                                         !
 ! D109  D(37,36,38,40)        101.7188                                         !
 ! D110  D(37,36,38,41)        -21.3747                                         !
 ! D111  D(36,38,40,44)       -113.6865                                         !
 ! D112  D(36,38,40,58)         65.0375                                         !
 ! D113  D(39,38,40,44)        131.5595                                         !
 ! D114  D(39,38,40,58)        -49.7164                                         !
 ! D115  D(41,38,40,44)          9.5605                                         !
 ! D116  D(41,38,40,58)       -171.7155                                         !
 ! D117  D(36,38,41,42)         64.6205                                         !
 ! D118  D(36,38,41,43)        -48.4075                                         !
 ! D119  D(36,38,41,45)       -170.426                                          !
 ! D120  D(39,38,41,42)       -176.104                                          !
 ! D121  D(39,38,41,43)         70.8681                                         !
 ! D122  D(39,38,41,45)        -51.1504                                         !
 ! D123  D(40,38,41,42)        -56.628                                          !
 ! D124  D(40,38,41,43)       -169.656                                          !
 ! D125  D(40,38,41,45)         68.3255                                         !
 ! D126  D(38,40,58,59)       -177.0621                                         !
 ! D127  D(44,40,58,59)          1.7235                                         !
 ! D128  D(38,41,45,46)        -28.3862                                         !
 ! D129  D(38,41,45,47)         86.936                                          !
 ! D130  D(38,41,45,48)       -151.4149                                         !
 ! D131  D(42,41,45,46)         94.4815                                         !
 ! D132  D(42,41,45,47)       -150.1963                                         !
 ! D133  D(42,41,45,48)        -28.5472                                         !
 ! D134  D(43,41,45,46)       -149.4861                                         !
 ! D135  D(43,41,45,47)        -34.1638                                         !
 ! D136  D(43,41,45,48)         87.4852                                         !
 ! D137  D(41,45,48,49)        -35.4594                                         !
 ! D138  D(41,45,48,50)       -152.0863                                         !
 ! D139  D(41,45,48,51)         89.5906                                         !
 ! D140  D(46,45,48,49)       -159.4718                                         !
 ! D141  D(46,45,48,50)         83.9013                                         !
 ! D142  D(46,45,48,51)        -34.4218                                         !
 ! D143  D(47,45,48,49)         85.803                                          !
 ! D144  D(47,45,48,50)        -30.8238                                         !
 ! D145  D(47,45,48,51)       -149.1469                                         !
 ! D146  D(45,48,51,52)         58.2864                                         !
 ! D147  D(45,48,51,53)        179.965                                          !
 ! D148  D(45,48,51,54)        -59.7051                                         !
 ! D149  D(49,48,51,52)       -176.4093                                         !
 ! D150  D(49,48,51,53)        -54.7307                                         !
 ! D151  D(49,48,51,54)         65.5991                                         !
 ! D152  D(50,48,51,52)        -62.7329                                         !
 ! D153  D(50,48,51,53)         58.9457                                         !
 ! D154  D(50,48,51,54)        179.2756                                         !
 ! D155  D(48,51,54,55)       -178.3954                                         !
 ! D156  D(48,51,54,56)         61.9867                                         !
 ! D157  D(48,51,54,57)        -58.8496                                         !
 ! D158  D(52,51,54,55)         60.2983                                         !
 ! D159  D(52,51,54,56)        -59.3196                                         !
 ! D160  D(52,51,54,57)        179.8441                                         !
 ! D161  D(53,51,54,55)        -55.3175                                         !
 ! D162  D(53,51,54,56)       -174.9354                                         !
 ! D163  D(53,51,54,57)         64.2284                                         !
 --------------------------------------------------------------------------------
 Symmetry turned off by external request.
 Stoichiometry    C20H31N4O4(1+)
 Framework group  C1[X(C20H31N4O4)]
 Deg. of freedom   171
 Full point group                 C1      NOp   1
                          Input orientation:                          
 ---------------------------------------------------------------------
 Center     Atomic      Atomic             Coordinates (Angstroms)
 Number     Number       Type             X           Y           Z
 ---------------------------------------------------------------------
      1          7           0       -2.972782   -2.070136    3.421517
      2          1           0       -3.057123   -2.300160    4.409002
      3          1           0       -2.212700   -2.621574    3.029012
      4          6           0       -2.660464   -0.658408    3.258428
      5          1           0       -3.553851   -0.079749    3.504426
      6          6           0       -2.251588   -0.453255    1.799482
      7          6           0       -1.497040   -0.130539    4.161229
      8          1           0       -1.738192   -0.411486    5.193214
      9          1           0       -0.584990   -0.671188    3.879197
     10          8           0       -1.502289   -1.305070    1.279583
     11          6           0       -1.303450    1.361562    4.056420
     12          6           0       -0.462149    1.912198    3.082732
     13          1           0        0.117678    1.250047    2.446702
     14          6           0       -2.052686    2.232623    4.857187
     15          1           0       -2.709147    1.823815    5.621878
     16          6           0       -0.386399    3.290164    2.888124
     17          1           0        0.244164    3.687499    2.099375
     18          6           0       -1.970658    3.614104    4.681184
     19          1           0       -2.556698    4.274371    5.313818
     20          6           0       -1.143582    4.146539    3.690095
     21          1           0       -1.088199    5.221182    3.544567
     22          7           0       -2.635074    0.660007    1.142249
     23          6           0       -2.204988    0.911233   -0.255652
     24          1           0       -2.372440   -0.005305   -0.830522
     25          6           0       -0.701885    1.265590   -0.312451
     26          6           0       -3.084649    2.081575   -0.726821
     27          1           0       -2.494535    2.999876   -0.669931
     28          1           0       -3.408775    1.947495   -1.761424
     29          8           0       -0.273161    2.409106   -0.334536
     30          6           0       -4.248358    2.123258    0.272722
     31          1           0       -4.707115    3.112608    0.344297
     32          1           0       -5.027045    1.403474   -0.002237
     33          6           0       -3.588595    1.696635    1.584142
     34          1           0       -4.296187    1.289242    2.304791
     35          1           0       -3.044923    2.523180    2.052484
     36          7           0        0.108781    0.157166   -0.333308
     37          1           0       -0.344232   -0.689945    0.027295
     38          6           0        1.536501    0.304731   -0.131890
     39          1           0        1.720649    1.369665    0.060310
     40          6           0        2.242614   -0.042778   -1.440851
     41          6           0        2.038162   -0.564753    1.022745
     42          1           0        1.893152   -1.617410    0.747632
     43          1           0        1.378568   -0.406392    1.879650
     44          8           0        2.985170   -1.009713   -1.625126
     45          6           0        3.496854   -0.267451    1.424755
     46          1           0        4.066061    0.107750    0.564623
     47          1           0        3.493847    0.548059    2.154078
     48          6           0        4.241335   -1.475151    2.024031
     49          1           0        3.558656   -2.089718    2.625991
     50          1           0        5.021516   -1.132356    2.712558
     51          6           0        4.964003   -2.344805    0.998541
     52          1           0        5.694536   -1.761746    0.432176
     53          1           0        5.476477   -3.186212    1.470429
     54          7           0        4.021735   -2.926452   -0.037050
     55          1           0        4.525073   -3.527051   -0.698052
     56          1           0        3.545948   -2.160743   -0.603454
     57          1           0        3.294418   -3.498270    0.403560
     58          8           0        1.957433    0.805944   -2.414041
     59          1           0        2.398393    0.506442   -3.233286
 ---------------------------------------------------------------------
 Rotational constants (GHZ):           0.2466666           0.1172118           0.1068884
 Standard basis: 6-31G(d) (6D, 7F)
   482 basis functions,   908 primitive gaussians,   482 cartesian basis functions
   105 alpha electrons      105 beta electrons
       nuclear repulsion energy      2901.3265838716 Hartrees.
 NAtoms=   59 NActive=   59 NUniq=   59 SFac= 1.00D+00 NAtFMM=   60 NAOKFM=F Big=F
 Integral buffers will be    131072 words long.
 Raffenetti 2 integral format.
 Two-electron integral symmetry is turned off.
 Nuclear repulsion after empirical dispersion term =     2901.1947554985 Hartrees.
 One-electron integrals computed using PRISM.
 NBasis=   482 RedAO= T EigKep=  4.37D-04  NBF=   482
 NBsUse=   482 1.00D-06 EigRej= -1.00D+00 NBFU=   482
 Initial guess from the checkpoint file:  "conf-102.chk"
 B after Tr=     0.000000    0.000000    0.000000
         Rot=    1.000000    0.000000    0.000000    0.000000 Ang=   0.00 deg.
 Requested convergence on RMS density matrix=1.00D-08 within 128 cycles.
 Requested convergence on MAX density matrix=1.00D-06.
 Requested convergence on             energy=1.00D-06.
 No special actions if energy rises.
 SCF Done:  E(RB3LYP) =  -1300.66199449     A.U. after    3 cycles
            NFock=  3  Conv=0.63D-09     -V/T= 2.0094

 **********************************************************************

            Population analysis using the SCF Density.

 **********************************************************************

 Alpha  occ. eigenvalues --  -19.33126 -19.29301 -19.21403 -19.20862 -14.60083
 Alpha  occ. eigenvalues --  -14.45866 -14.45128 -14.38618 -10.46378 -10.40079
 Alpha  occ. eigenvalues --  -10.37982 -10.37452 -10.35589 -10.33953 -10.32276
 Alpha  occ. eigenvalues --  -10.32106 -10.31967 -10.30401 -10.30072 -10.27134
 Alpha  occ. eigenvalues --  -10.27021 -10.26587 -10.26468 -10.26281 -10.26074
 Alpha  occ. eigenvalues --  -10.26049 -10.26019 -10.25899  -1.24953  -1.16034
 Alpha  occ. eigenvalues --   -1.14563  -1.13515  -1.12270  -1.03137  -1.02917
 Alpha  occ. eigenvalues --   -0.96446  -0.94964  -0.92791  -0.90526  -0.87926
 Alpha  occ. eigenvalues --   -0.85682  -0.85224  -0.82918  -0.81624  -0.79678
 Alpha  occ. eigenvalues --   -0.78833  -0.75632  -0.74730  -0.74112  -0.73054
 Alpha  occ. eigenvalues --   -0.71508  -0.70803  -0.68830  -0.67840  -0.66675
 Alpha  occ. eigenvalues --   -0.66080  -0.65040  -0.64865  -0.62939  -0.62369
 Alpha  occ. eigenvalues --   -0.61588  -0.60561  -0.59761  -0.59352  -0.58458
 Alpha  occ. eigenvalues --   -0.57544  -0.56700  -0.55702  -0.55210  -0.54051
 Alpha  occ. eigenvalues --   -0.54000  -0.53348  -0.53309  -0.52620  -0.52218
 Alpha  occ. eigenvalues --   -0.51308  -0.51064  -0.50597  -0.50080  -0.49400
 Alpha  occ. eigenvalues --   -0.49133  -0.48376  -0.48042  -0.47905  -0.47567
 Alpha  occ. eigenvalues --   -0.47029  -0.46945  -0.45727  -0.45646  -0.45072
 Alpha  occ. eigenvalues --   -0.44173  -0.43873  -0.43144  -0.42496  -0.42246
 Alpha  occ. eigenvalues --   -0.41316  -0.41110  -0.41015  -0.36285  -0.36155
 Alpha  occ. eigenvalues --   -0.34566  -0.33150  -0.32341  -0.31870  -0.30056
 Alpha virt. eigenvalues --   -0.13596  -0.11751  -0.07981  -0.07834  -0.07371
 Alpha virt. eigenvalues --   -0.06471  -0.06392  -0.04313  -0.03821  -0.03103
 Alpha virt. eigenvalues --   -0.02082  -0.00614   0.00507   0.00821   0.00966
 Alpha virt. eigenvalues --    0.01341   0.01995   0.02446   0.03305   0.04010
 Alpha virt. eigenvalues --    0.04238   0.04982   0.05300   0.05445   0.06512
 Alpha virt. eigenvalues --    0.06962   0.07287   0.07823   0.08275   0.08583
 Alpha virt. eigenvalues --    0.08974   0.09349   0.10022   0.10234   0.10657
 Alpha virt. eigenvalues --    0.11250   0.11466   0.11875   0.11900   0.12457
 Alpha virt. eigenvalues --    0.12940   0.13358   0.14159   0.14534   0.15200
 Alpha virt. eigenvalues --    0.15956   0.16504   0.17058   0.17899   0.18050
 Alpha virt. eigenvalues --    0.18726   0.20309   0.21115   0.22340   0.23148
 Alpha virt. eigenvalues --    0.24072   0.25270   0.25684   0.26105   0.26636
 Alpha virt. eigenvalues --    0.28001   0.29143   0.30367   0.34673   0.36472
 Alpha virt. eigenvalues --    0.36826   0.37245   0.38134   0.38947   0.40185
 Alpha virt. eigenvalues --    0.40509   0.40917   0.42008   0.43011   0.43580
 Alpha virt. eigenvalues --    0.44962   0.45449   0.45814   0.46871   0.47334
 Alpha virt. eigenvalues --    0.47610   0.48273   0.48775   0.49250   0.49799
 Alpha virt. eigenvalues --    0.50408   0.51301   0.51860   0.52064   0.52577
 Alpha virt. eigenvalues --    0.52892   0.53601   0.54008   0.54455   0.54860
 Alpha virt. eigenvalues --    0.55153   0.55385   0.55672   0.56324   0.56536
 Alpha virt. eigenvalues --    0.56902   0.57434   0.57649   0.58484   0.58924
 Alpha virt. eigenvalues --    0.59441   0.60971   0.61061   0.62276   0.62619
 Alpha virt. eigenvalues --    0.63823   0.64507   0.65496   0.65903   0.66453
 Alpha virt. eigenvalues --    0.67462   0.67983   0.68903   0.70206   0.70720
 Alpha virt. eigenvalues --    0.70836   0.71960   0.72977   0.73478   0.73579
 Alpha virt. eigenvalues --    0.73866   0.74445   0.74684   0.75855   0.76208
 Alpha virt. eigenvalues --    0.76774   0.76864   0.77239   0.77877   0.78262
 Alpha virt. eigenvalues --    0.78578   0.78900   0.79500   0.79873   0.80703
 Alpha virt. eigenvalues --    0.80947   0.81364   0.81631   0.82059   0.82137
 Alpha virt. eigenvalues --    0.83243   0.83846   0.84611   0.84888   0.85497
 Alpha virt. eigenvalues --    0.85861   0.87076   0.87209   0.87594   0.88437
 Alpha virt. eigenvalues --    0.89451   0.90098   0.90211   0.91101   0.91719
 Alpha virt. eigenvalues --    0.92718   0.93212   0.93837   0.94869   0.95788
 Alpha virt. eigenvalues --    0.96550   0.98233   0.99177   1.00013   1.00523
 Alpha virt. eigenvalues --    1.00984   1.02543   1.03260   1.04613   1.05016
 Alpha virt. eigenvalues --    1.06540   1.07922   1.08763   1.09375   1.10456
 Alpha virt. eigenvalues --    1.12736   1.13454   1.14607   1.15093   1.18021
 Alpha virt. eigenvalues --    1.18841   1.19282   1.19801   1.21116   1.22372
 Alpha virt. eigenvalues --    1.25242   1.25565   1.26466   1.29496   1.29744
 Alpha virt. eigenvalues --    1.30623   1.31304   1.33666   1.35296   1.35790
 Alpha virt. eigenvalues --    1.36381   1.37255   1.39858   1.40075   1.41316
 Alpha virt. eigenvalues --    1.41599   1.42340   1.42901   1.43830   1.44643
 Alpha virt. eigenvalues --    1.45857   1.48060   1.48481   1.48916   1.50276
 Alpha virt. eigenvalues --    1.52537   1.53236   1.54593   1.55854   1.58052
 Alpha virt. eigenvalues --    1.58337   1.58820   1.60325   1.61055   1.61867
 Alpha virt. eigenvalues --    1.64960   1.66609   1.67153   1.68004   1.68405
 Alpha virt. eigenvalues --    1.69202   1.69664   1.70460   1.72306   1.72643
 Alpha virt. eigenvalues --    1.73085   1.73887   1.74251   1.75063   1.75240
 Alpha virt. eigenvalues --    1.75688   1.75740   1.76437   1.77629   1.78090
 Alpha virt. eigenvalues --    1.78924   1.81273   1.81666   1.82513   1.84064
 Alpha virt. eigenvalues --    1.84546   1.85501   1.85898   1.87542   1.87981
 Alpha virt. eigenvalues --    1.89302   1.89904   1.90701   1.91051   1.91894
 Alpha virt. eigenvalues --    1.92773   1.92937   1.94048   1.94186   1.95234
 Alpha virt. eigenvalues --    1.96866   1.97057   1.98630   1.99220   1.99971
 Alpha virt. eigenvalues --    2.00727   2.00942   2.01647   2.03159   2.04249
 Alpha virt. eigenvalues --    2.05687   2.07266   2.07608   2.08279   2.09920
 Alpha virt. eigenvalues --    2.09995   2.11302   2.12218   2.12951   2.14115
 Alpha virt. eigenvalues --    2.15049   2.17040   2.17497   2.19449   2.20401
 Alpha virt. eigenvalues --    2.20876   2.22111   2.22868   2.23377   2.24379
 Alpha virt. eigenvalues --    2.25712   2.27005   2.27560   2.29376   2.30453
 Alpha virt. eigenvalues --    2.32070   2.33135   2.34304   2.35771   2.36380
 Alpha virt. eigenvalues --    2.36856   2.39182   2.39644   2.39996   2.41854
 Alpha virt. eigenvalues --    2.43466   2.44086   2.44600   2.47351   2.47862
 Alpha virt. eigenvalues --    2.49348   2.49986   2.51626   2.52275   2.53263
 Alpha virt. eigenvalues --    2.53780   2.55912   2.56146   2.58026   2.59208
 Alpha virt. eigenvalues --    2.60897   2.63103   2.64028   2.65850   2.65882
 Alpha virt. eigenvalues --    2.67381   2.67775   2.68142   2.71001   2.73469
 Alpha virt. eigenvalues --    2.75978   2.76842   2.79947   2.85733   2.86435
 Alpha virt. eigenvalues --    2.87878   2.90772   2.95288   2.96514   2.97078
 Alpha virt. eigenvalues --    2.99252   3.03886   3.13318   3.34164   3.65108
 Alpha virt. eigenvalues --    3.73607   3.80050   3.90838   3.94425   4.02612
 Alpha virt. eigenvalues --    4.06364   4.06831   4.08797   4.11421   4.14687
 Alpha virt. eigenvalues --    4.16182   4.17759   4.20197   4.25887   4.26398
 Alpha virt. eigenvalues --    4.30309   4.34290   4.34945   4.35666   4.38299
 Alpha virt. eigenvalues --    4.41954   4.44036   4.50043   4.53997   4.61787
 Alpha virt. eigenvalues --    4.64081   4.66245
          Condensed to atoms (all electrons):
 Mulliken charges:
               1
     1  N   -0.706591
     2  H    0.303714
     3  H    0.312363
     4  C   -0.045838
     5  H    0.155030
     6  C    0.634076
     7  C   -0.377534
     8  H    0.154106
     9  H    0.137678
    10  O   -0.599740
    11  C    0.165288
    12  C   -0.192928
    13  H    0.112565
    14  C   -0.190078
    15  H    0.134792
    16  C   -0.130497
    17  H    0.151436
    18  C   -0.127314
    19  H    0.147363
    20  C   -0.138875
    21  H    0.146759
    22  N   -0.433307
    23  C   -0.055204
    24  H    0.178432
    25  C    0.610819
    26  C   -0.317427
    27  H    0.196163
    28  H    0.166843
    29  O   -0.499045
    30  C   -0.295831
    31  H    0.169177
    32  H    0.162077
    33  C   -0.148367
    34  H    0.177348
    35  H    0.194524
    36  N   -0.629835
    37  H    0.386525
    38  C   -0.039960
    39  H    0.218701
    40  C    0.636906
    41  C   -0.312191
    42  H    0.113969
    43  H    0.205260
    44  O   -0.538486
    45  C   -0.294846
    46  H    0.154835
    47  H    0.192345
    48  C   -0.292071
    49  H    0.172611
    50  H    0.201145
    51  C   -0.200994
    52  H    0.218810
    53  H    0.215307
    54  N   -0.771736
    55  H    0.413049
    56  H    0.465933
    57  H    0.405159
    58  O   -0.508377
    59  H    0.435963
 Sum of Mulliken charges =   1.00000
 Mulliken charges with hydrogens summed into heavy atoms:
               1
     1  N   -0.090514
     4  C    0.109192
     6  C    0.634076
     7  C   -0.085750
    10  O   -0.599740
    11  C    0.165288
    12  C   -0.080362
    14  C   -0.055286
    16  C    0.020939
    18  C    0.020048
    20  C    0.007884
    22  N   -0.433307
    23  C    0.123228
    25  C    0.610819
    26  C    0.045578
    29  O   -0.499045
    30  C    0.035423
    33  C    0.223505
    36  N   -0.243310
    38  C    0.178741
    40  C    0.636906
    41  C    0.007038
    44  O   -0.538486
    45  C    0.052334
    48  C    0.081685
    51  C    0.233123
    54  N    0.512405
    58  O   -0.072413
 Electronic spatial extent (au):  <R**2>=          12752.7793
 Charge=              1.0000 electrons
 Dipole moment (field-independent basis, Debye):
    X=             12.8819    Y=             -7.5138    Z=              3.0655  Tot=             15.2249
 Quadrupole moment (field-independent basis, Debye-Ang):
   XX=            -78.8078   YY=           -129.6075   ZZ=           -132.6168
   XY=            -53.1237   XZ=             -6.5292   YZ=              1.3704
 Traceless Quadrupole moment (field-independent basis, Debye-Ang):
   XX=             34.8696   YY=            -15.9301   ZZ=            -18.9394
   XY=            -53.1237   XZ=             -6.5292   YZ=              1.3704
 Octapole moment (field-independent basis, Debye-Ang**2):
  XXX=            393.4027  YYY=           -335.8157  ZZZ=           -626.9397  XYY=            155.9274
  XXY=           -207.4268  XXZ=           -182.4927  XZZ=             14.4364  YZZ=            -87.1566
  YYZ=           -185.7557  XYZ=            -37.5912
 Hexadecapole moment (field-independent basis, Debye-Ang**3):
 XXXX=          -5437.9262 YYYY=          -3122.1150 ZZZZ=          -5364.1425 XXXY=            273.7831
 XXXZ=           1155.9480 YYYX=            699.2442 YYYZ=           -595.7568 ZZZX=            616.5346
 ZZZY=           -827.8407 XXYY=          -1187.1138 XXZZ=          -1841.9808 YYZZ=          -1447.5458
 XXYZ=           -224.6989 YYXZ=            281.3140 ZZXY=            322.5089
 N-N= 2.901194755498D+03 E-N=-8.806992914414D+03  KE= 1.288503981909D+03
 Unable to Open any file for archive entry.
 1\1\GINC-VIM-000\SP\RB3LYP\6-31G(d)\C20H31N4O4(1+)\KENGMITH\23-Jun-202
 2\0\\# B3LYP/6-31G* empiricaldispersion=gd3bj guess=read geom=check no
 symm integral(ultrafinegrid)\\Candidate Structure: Conf:102 Charge cal
 c in gas phase\\1,1\N,0,-2.9727818984,-2.0701364046,3.4215172773\H,0,-
 3.0571234415,-2.300160158,4.4090017086\H,0,-2.2127001518,-2.6215738589
 ,3.0290124198\C,0,-2.6604636203,-0.6584078702,3.258428209\H,0,-3.55385
 14592,-0.0797490826,3.5044261514\C,0,-2.2515884942,-0.4532550059,1.799
 4816824\C,0,-1.4970401446,-0.1305391398,4.1612285257\H,0,-1.7381922658
 ,-0.4114857078,5.1932137737\H,0,-0.5849903217,-0.6711884113,3.87919697
 14\O,0,-1.5022892194,-1.3050695005,1.2795831894\C,0,-1.3034496798,1.36
 15620906,4.0564197864\C,0,-0.4621486114,1.9121982519,3.0827320137\H,0,
 0.1176775507,1.2500472413,2.4467021812\C,0,-2.0526859365,2.2326227672,
 4.8571872417\H,0,-2.709146835,1.8238154942,5.6218783136\C,0,-0.3863988
 398,3.2901643963,2.8881235919\H,0,0.2441641084,3.6874985675,2.09937524
 83\C,0,-1.9706583347,3.6141036247,4.6811835372\H,0,-2.5566976441,4.274
 3710069,5.3138176976\C,0,-1.1435818503,4.1465393561,3.6900948268\H,0,-
 1.088199183,5.2211821655,3.5445667204\N,0,-2.6350742848,0.6600072307,1
 .1422487092\C,0,-2.2049883654,0.9112330414,-0.2556515203\H,0,-2.372439
 5932,-0.0053048636,-0.8305218135\C,0,-0.701885448,1.2655903087,-0.3124
 510599\C,0,-3.0846486819,2.0815753375,-0.7268214651\H,0,-2.494534937,2
 .9998760956,-0.6699306243\H,0,-3.4087747112,1.9474947357,-1.7614236525
 \O,0,-0.2731613163,2.4091061032,-0.334535515\C,0,-4.2483583433,2.12325
 84371,0.2727224484\H,0,-4.7071147813,3.1126077961,0.3442965794\H,0,-5.
 0270450109,1.4034743825,-0.0022367842\C,0,-3.5885953861,1.6966345486,1
 .5841421544\H,0,-4.2961865906,1.2892423336,2.3047912944\H,0,-3.0449232
 674,2.5231802427,2.0524838949\N,0,0.1087809185,0.1571657656,-0.3333084
 725\H,0,-0.3442316374,-0.6899454665,0.0272951576\C,0,1.5365013262,0.30
 47309967,-0.1318901572\H,0,1.720648707,1.3696649832,0.0603104518\C,0,2
 .2426136245,-0.0427784289,-1.440851138\C,0,2.0381618209,-0.5647527938,
 1.0227454112\H,0,1.89315204,-1.617410436,0.7476317021\H,0,1.3785683522
 ,-0.4063916017,1.8796501864\O,0,2.985170483,-1.0097131239,-1.625126022
 7\C,0,3.4968544047,-0.2674513249,1.4247547394\H,0,4.0660606307,0.10775
 04126,0.5646228683\H,0,3.493846648,0.548058751,2.154078257\C,0,4.24133
 5487,-1.475151486,2.0240306242\H,0,3.5586556904,-2.0897184772,2.625991
 2333\H,0,5.0215160634,-1.13235606,2.7125584292\C,0,4.9640031369,-2.344
 8049861,0.9985408843\H,0,5.6945357218,-1.7617455638,0.432175654\H,0,5.
 4764765405,-3.1862124605,1.4704285603\N,0,4.0217347793,-2.9264521591,-
 0.0370501661\H,0,4.52507333,-3.5270506029,-0.6980518225\H,0,3.54594758
 03,-2.1607425513,-0.6034541512\H,0,3.2944176587,-3.4982699652,0.403559
 815\O,0,1.95743254,0.8059442319,-2.4140407627\H,0,2.3983927133,0.50644
 23946,-3.2332864647\\Version=ES64L-G16RevC.01\HF=-1300.6619945\RMSD=6.
 261e-10\Dipole=5.3904901,-3.832672,-1.2588782\Quadrupole=25.9246607,-1
 1.8436533,-14.0810073,-39.4961348,-4.8542758,1.0188883\PG=C01 [X(C20H3
 1N4O4)]\\@
 The archive entry for this job was punched.


 You can't act like a skunk without someone's getting wind of it.
 -- Lorene Workman
 Job cpu time:       0 days  0 hours  3 minutes 39.2 seconds.
 Elapsed time:       0 days  0 hours  0 minutes 55.3 seconds.
 File lengths (MBytes):  RWF=    240 Int=      0 D2E=      0 Chk=     32 Scr=     16
 Normal termination of Gaussian 16 at Thu Jun 23 11:08:58 2022.
