 Entering Gaussian System, Link 0=/opt/software/Gaussian/g16-AVX2-C.01/g16/g16
 Input=charge-conf-981.com
 Output=charge-conf-981.log
 Initial command:
 /opt/software/Gaussian/g16-AVX2-C.01/g16/l1.exe "/mnt/gs18/scratch/users/kengmith/Gau-22852.inp" -scrdir="/mnt/gs18/scratch/users/kengmith/"
 Entering Link 1 = /opt/software/Gaussian/g16-AVX2-C.01/g16/l1.exe PID=     22862.
  
 Copyright (c) 1988-2019, Gaussian, Inc.  All Rights Reserved.
  
 This is part of the Gaussian(R) 16 program.  It is based on
 the Gaussian(R) 09 system (copyright 2009, Gaussian, Inc.),
 the Gaussian(R) 03 system (copyright 2003, Gaussian, Inc.),
 the Gaussian(R) 98 system (copyright 1998, Gaussian, Inc.),
 the Gaussian(R) 94 system (copyright 1995, Gaussian, Inc.),
 the Gaussian 92(TM) system (copyright 1992, Gaussian, Inc.),
 the Gaussian 90(TM) system (copyright 1990, Gaussian, Inc.),
 the Gaussian 88(TM) system (copyright 1988, Gaussian, Inc.),
 the Gaussian 86(TM) system (copyright 1986, Carnegie Mellon
 University), and the Gaussian 82(TM) system (copyright 1983,
 Carnegie Mellon University). Gaussian is a federally registered
 trademark of Gaussian, Inc.
  
 This software contains proprietary and confidential information,
 including trade secrets, belonging to Gaussian, Inc.
  
 This software is provided under written license and may be
 used, copied, transmitted, or stored only in accord with that
 written license.
  
 The following legend is applicable only to US Government
 contracts under FAR:
  
                    RESTRICTED RIGHTS LEGEND
  
 Use, reproduction and disclosure by the US Government is
 subject to restrictions as set forth in subparagraphs (a)
 and (c) of the Commercial Computer Software - Restricted
 Rights clause in FAR 52.227-19.
  
 Gaussian, Inc.
 340 Quinnipiac St., Bldg. 40, Wallingford CT 06492
  
  
 ---------------------------------------------------------------
 Warning -- This program may not be used in any manner that
 competes with the business of Gaussian, Inc. or will provide
 assistance to any competitor of Gaussian, Inc.  The licensee
 of this program is prohibited from giving any competitor of
 Gaussian, Inc. access to this program.  By using this program,
 the user acknowledges that Gaussian, Inc. is engaged in the
 business of creating and licensing software in the field of
 computational chemistry and represents and warrants to the
 licensee that it is not a competitor of Gaussian, Inc. and that
 it will not use this program in any manner prohibited above.
 ---------------------------------------------------------------
  

 Cite this work as:
 Gaussian 16, Revision C.01,
 M. J. Frisch, G. W. Trucks, H. B. Schlegel, G. E. Scuseria, 
 M. A. Robb, J. R. Cheeseman, G. Scalmani, V. Barone, 
 G. A. Petersson, H. Nakatsuji, X. Li, M. Caricato, A. V. Marenich, 
 J. Bloino, B. G. Janesko, R. Gomperts, B. Mennucci, H. P. Hratchian, 
 J. V. Ortiz, A. F. Izmaylov, J. L. Sonnenberg, D. Williams-Young, 
 F. Ding, F. Lipparini, F. Egidi, J. Goings, B. Peng, A. Petrone, 
 T. Henderson, D. Ranasinghe, V. G. Zakrzewski, J. Gao, N. Rega, 
 G. Zheng, W. Liang, M. Hada, M. Ehara, K. Toyota, R. Fukuda, 
 J. Hasegawa, M. Ishida, T. Nakajima, Y. Honda, O. Kitao, H. Nakai, 
 T. Vreven, K. Throssell, J. A. Montgomery, Jr., J. E. Peralta, 
 F. Ogliaro, M. J. Bearpark, J. J. Heyd, E. N. Brothers, K. N. Kudin, 
 V. N. Staroverov, T. A. Keith, R. Kobayashi, J. Normand, 
 K. Raghavachari, A. P. Rendell, J. C. Burant, S. S. Iyengar, 
 J. Tomasi, M. Cossi, J. M. Millam, M. Klene, C. Adamo, R. Cammi, 
 J. W. Ochterski, R. L. Martin, K. Morokuma, O. Farkas, 
 J. B. Foresman, and D. J. Fox, Gaussian, Inc., Wallingford CT, 2019.
 
 ******************************************
 Gaussian 16:  ES64L-G16RevC.01  3-Jul-2019
                27-May-2022 
 ******************************************
 %mem=8gb
 %nproc=4
 Will use up to    4 processors via shared memory.
 %chk=conf-981.chk
 -------------------------------------------------------------------
 # B3LYP/6-31G* guess=read geom=check nosymm integral(ultrafinegrid)
 -------------------------------------------------------------------
 1/29=2,38=1,172=1/1;
 2/12=2,15=1,40=1/2;
 3/5=1,6=6,7=1,11=2,14=-4,25=1,30=1,74=-5,75=-5,116=-2/1,2,3;
 4/5=1/1;
 5/5=2,38=6/2;
 6/7=2,8=2,9=2,10=2,28=1/1;
 99/5=1,9=1/99;
 ------------------------------------------------------
 Candidate Structure: Conf:981 Charge calc in gas phase
 ------------------------------------------------------
 Structure from the checkpoint file:  "conf-981.chk"
 Charge =  1 Multiplicity = 1
 Redundant internal coordinates found in file.  (old form).
 N,0,-0.9600477395,2.851696586,-1.7549048554
 H,0,-0.6295961375,3.7424048887,-1.3834739172
 H,0,-1.1432828269,3.0037068225,-2.7476465995
 C,0,-2.2339940087,2.4961347667,-1.1055529075
 H,0,-2.0049388911,2.2215954162,-0.0709455709
 C,0,-2.7677434594,1.2917953918,-1.8999031768
 C,0,-3.3021310736,3.6177132822,-1.0804428206
 H,0,-2.8423161162,4.5056528974,-0.6271948693
 H,0,-3.5550213302,3.8665757814,-2.1161742073
 O,0,-3.1656193895,1.4523627295,-3.0491509047
 C,0,-4.5441531209,3.2245851068,-0.3071766355
 C,0,-5.6494788209,2.6587628902,-0.9593460589
 H,0,-5.6222528157,2.5323278024,-2.0384290388
 C,0,-4.5967990604,3.3790097375,1.0861366676
 H,0,-3.7557459789,3.8335272427,1.6069234241
 C,0,-6.7773235072,2.2628773679,-0.2381835064
 H,0,-7.6295180013,1.8383184473,-0.7622673778
 C,0,-5.7224821597,2.9820991302,1.8098434833
 H,0,-5.7497428045,3.1226999678,2.8872843376
 C,0,-6.81725025,2.4221023691,1.1482992166
 H,0,-7.6990485096,2.1225110153,1.7080479326
 N,0,-2.7124553442,0.0390194295,-1.3419364098
 C,0,-2.4446820332,-0.298092781,0.0606405128
 H,0,-2.9233840856,0.4104190858,0.7433869921
 C,0,-0.9513141252,-0.293471696,0.4558587228
 C,0,-3.0778431551,-1.7014734794,0.2138048559
 H,0,-2.5844955474,-2.2816611051,0.9981535167
 H,0,-4.1302318566,-1.5872888208,0.4941900418
 O,0,-0.6461025009,-0.4717722161,1.6444004763
 C,0,-2.9645005201,-2.3060144264,-1.1946408683
 H,0,-1.9510969372,-2.6888473964,-1.3684280132
 H,0,-3.6655669126,-3.1275998913,-1.3642446981
 C,0,-3.2404582669,-1.1086471372,-2.1104013607
 H,0,-4.3124589385,-0.9656919252,-2.2922882659
 H,0,-2.7476111095,-1.1697668859,-3.0832534921
 N,0,-0.0747349106,-0.1066549991,-0.553149939
 H,0,-0.4746322124,0.0816636361,-1.4676141159
 C,0,1.3216352092,0.2975361519,-0.4369606274
 H,0,1.3683874992,1.3473631493,-0.1142036414
 C,0,1.9033004236,0.2649094752,-1.851254097
 C,0,2.1533747763,-0.5316072967,0.5619493832
 H,0,1.7208682818,-0.3443917388,1.5468359924
 H,0,3.1680433595,-0.1213618739,0.5676267246
 O,0,1.2952852088,-0.0707311944,-2.8407974855
 C,0,2.2022620844,-2.0443455958,0.2714837821
 H,0,1.2881095846,-2.3643306932,-0.2444942214
 H,0,3.030736686,-2.2738679459,-0.4063271768
 C,0,2.3739011884,-2.8703128198,1.5646339574
 H,0,3.1113469866,-2.3704200816,2.2099930109
 H,0,2.7682089522,-3.8690090102,1.3403050567
 C,0,1.0322048746,-2.9871726061,2.2864528766
 H,0,0.4741148273,-2.0439807143,2.2998379737
 H,0,0.3980164209,-3.7609886664,1.8464714177
 N,0,1.2238531163,-3.3970821322,3.7506635464
 H,0,0.3238080127,-3.4900743176,4.236610742
 H,0,1.7735502196,-2.6906323151,4.2540972095
 H,0,1.7224876655,-4.291041615,3.8362032287
 O,0,3.1882195323,0.6703530016,-1.8575505722
 H,0,3.4866299681,0.6605062575,-2.7874645203
 Recover connectivity data from disk.
                           ----------------------------
                           !    Current Parameters    !
                           ! (Angstroms and Degrees)  !
 --------------------------                            --------------------------
 ! Name  Definition              Value                                          !
 --------------------------------------------------------------------------------
 ! R1    R(1,2)                  1.0201                                         !
 ! R2    R(1,3)                  1.0209                                         !
 ! R3    R(1,4)                  1.4734                                         !
 ! R4    R(4,5)                  1.0946                                         !
 ! R5    R(4,6)                  1.5383                                         !
 ! R6    R(4,7)                  1.549                                          !
 ! R7    R(6,10)                 1.2267                                         !
 ! R8    R(6,22)                 1.3725                                         !
 ! R9    R(7,8)                  1.0979                                         !
 ! R10   R(7,9)                  1.0948                                         !
 ! R11   R(7,11)                 1.515                                          !
 ! R12   R(11,12)                1.4026                                         !
 ! R13   R(11,14)                1.4028                                         !
 ! R14   R(12,13)                1.0868                                         !
 ! R15   R(12,16)                1.396                                          !
 ! R16   R(14,15)                1.0887                                         !
 ! R17   R(14,18)                1.3959                                         !
 ! R18   R(16,17)                1.0868                                         !
 ! R19   R(16,20)                1.3962                                         !
 ! R20   R(18,19)                1.0869                                         !
 ! R21   R(18,20)                1.3963                                         !
 ! R22   R(20,21)                1.0866                                         !
 ! R23   R(22,23)                1.4672                                         !
 ! R24   R(22,33)                1.4787                                         !
 ! R25   R(23,24)                1.0942                                         !
 ! R26   R(23,25)                1.5448                                         !
 ! R27   R(23,26)                1.5472                                         !
 ! R28   R(25,29)                1.24                                           !
 ! R29   R(25,36)                1.3496                                         !
 ! R30   R(26,27)                1.0933                                         !
 ! R31   R(26,28)                1.0951                                         !
 ! R32   R(26,30)                1.5369                                         !
 ! R33   R(30,31)                1.0972                                         !
 ! R34   R(30,32)                1.0933                                         !
 ! R35   R(30,33)                1.5325                                         !
 ! R36   R(33,34)                1.0967                                         !
 ! R37   R(33,35)                1.0923                                         !
 ! R38   R(36,37)                1.0157                                         !
 ! R39   R(36,38)                1.4583                                         !
 ! R40   R(38,39)                1.0993                                         !
 ! R41   R(38,40)                1.5296                                         !
 ! R42   R(38,41)                1.5418                                         !
 ! R43   R(40,44)                1.2089                                         !
 ! R44   R(40,58)                1.3474                                         !
 ! R45   R(41,42)                1.0918                                         !
 ! R46   R(41,43)                1.0945                                         !
 ! R47   R(41,45)                1.5411                                         !
 ! R48   R(45,46)                1.0974                                         !
 ! R49   R(45,47)                1.0948                                         !
 ! R50   R(45,48)                1.544                                          !
 ! R51   R(48,49)                1.1001                                         !
 ! R52   R(48,50)                1.0969                                         !
 ! R53   R(48,51)                1.528                                          !
 ! R54   R(51,52)                1.096                                          !
 ! R55   R(51,53)                1.093                                          !
 ! R56   R(51,54)                1.5325                                         !
 ! R57   R(54,55)                1.0271                                         !
 ! R58   R(54,56)                1.027                                          !
 ! R59   R(54,57)                1.0272                                         !
 ! R60   R(58,59)                0.9767                                         !
 ! A1    A(2,1,3)              106.3924                                         !
 ! A2    A(2,1,4)              109.289                                          !
 ! A3    A(3,1,4)              108.0171                                         !
 ! A4    A(1,4,5)              107.2257                                         !
 ! A5    A(1,4,6)              105.1503                                         !
 ! A6    A(1,4,7)              115.3795                                         !
 ! A7    A(5,4,6)              111.3654                                         !
 ! A8    A(5,4,7)              108.0931                                         !
 ! A9    A(6,4,7)              109.6322                                         !
 ! A10   A(4,6,10)             119.593                                          !
 ! A11   A(4,6,22)             119.3867                                         !
 ! A12   A(10,6,22)            120.8896                                         !
 ! A13   A(4,7,8)              107.6677                                         !
 ! A14   A(4,7,9)              107.9705                                         !
 ! A15   A(4,7,11)             112.6876                                         !
 ! A16   A(8,7,9)              107.6658                                         !
 ! A17   A(8,7,11)             110.0308                                         !
 ! A18   A(9,7,11)             110.6394                                         !
 ! A19   A(7,11,12)            120.8931                                         !
 ! A20   A(7,11,14)            120.6077                                         !
 ! A21   A(12,11,14)           118.4673                                         !
 ! A22   A(11,12,13)           119.266                                          !
 ! A23   A(11,12,16)           120.7228                                         !
 ! A24   A(13,12,16)           120.011                                          !
 ! A25   A(11,14,15)           119.4784                                         !
 ! A26   A(11,14,18)           120.9245                                         !
 ! A27   A(15,14,18)           119.5852                                         !
 ! A28   A(12,16,17)           119.6811                                         !
 ! A29   A(12,16,20)           120.2497                                         !
 ! A30   A(17,16,20)           120.0666                                         !
 ! A31   A(14,18,19)           119.8272                                         !
 ! A32   A(14,18,20)           120.0446                                         !
 ! A33   A(19,18,20)           120.1228                                         !
 ! A34   A(16,20,18)           119.5907                                         !
 ! A35   A(16,20,21)           120.2213                                         !
 ! A36   A(18,20,21)           120.1844                                         !
 ! A37   A(6,22,23)            127.2796                                         !
 ! A38   A(6,22,33)            118.8668                                         !
 ! A39   A(23,22,33)           112.5604                                         !
 ! A40   A(22,23,24)           111.5844                                         !
 ! A41   A(22,23,25)           114.8552                                         !
 ! A42   A(22,23,26)           103.2006                                         !
 ! A43   A(24,23,25)           105.1504                                         !
 ! A44   A(24,23,26)           110.2746                                         !
 ! A45   A(25,23,26)           111.9005                                         !
 ! A46   A(23,25,29)           118.8646                                         !
 ! A47   A(23,25,36)           115.9148                                         !
 ! A48   A(29,25,36)           125.2155                                         !
 ! A49   A(23,26,27)           111.5749                                         !
 ! A50   A(23,26,28)           108.9079                                         !
 ! A51   A(23,26,30)           103.644                                          !
 ! A52   A(27,26,28)           107.7772                                         !
 ! A53   A(27,26,30)           114.5477                                         !
 ! A54   A(28,26,30)           110.2755                                         !
 ! A55   A(26,30,31)           110.5198                                         !
 ! A56   A(26,30,32)           112.9841                                         !
 ! A57   A(26,30,33)           103.1211                                         !
 ! A58   A(31,30,32)           107.7888                                         !
 ! A59   A(31,30,33)           110.1394                                         !
 ! A60   A(32,30,33)           112.2708                                         !
 ! A61   A(22,33,30)           103.3896                                         !
 ! A62   A(22,33,34)           109.5157                                         !
 ! A63   A(22,33,35)           110.1934                                         !
 ! A64   A(30,33,34)           112.1467                                         !
 ! A65   A(30,33,35)           114.033                                          !
 ! A66   A(34,33,35)           107.4956                                         !
 ! A67   A(25,36,37)           116.2998                                         !
 ! A68   A(25,36,38)           126.9215                                         !
 ! A69   A(37,36,38)           113.4118                                         !
 ! A70   A(36,38,39)           109.1958                                         !
 ! A71   A(36,38,40)           106.5314                                         !
 ! A72   A(36,38,41)           114.7787                                         !
 ! A73   A(39,38,40)           106.0017                                         !
 ! A74   A(39,38,41)           107.4822                                         !
 ! A75   A(40,38,41)           112.485                                          !
 ! A76   A(38,40,44)           124.8546                                         !
 ! A77   A(38,40,58)           111.134                                          !
 ! A78   A(44,40,58)           124.0098                                         !
 ! A79   A(38,41,42)           106.1718                                         !
 ! A80   A(38,41,43)           107.5724                                         !
 ! A81   A(38,41,45)           115.016                                          !
 ! A82   A(42,41,43)           107.3549                                         !
 ! A83   A(42,41,45)           110.5414                                         !
 ! A84   A(43,41,45)           109.8459                                         !
 ! A85   A(41,45,46)           110.3895                                         !
 ! A86   A(41,45,47)           110.2728                                         !
 ! A87   A(41,45,48)           111.7629                                         !
 ! A88   A(46,45,47)           106.1502                                         !
 ! A89   A(46,45,48)           109.2937                                         !
 ! A90   A(47,45,48)           108.8005                                         !
 ! A91   A(45,48,49)           108.8301                                         !
 ! A92   A(45,48,50)           110.8385                                         !
 ! A93   A(45,48,51)           109.8126                                         !
 ! A94   A(49,48,50)           107.0213                                         !
 ! A95   A(49,48,51)           110.2574                                         !
 ! A96   A(50,48,51)           110.0365                                         !
 ! A97   A(48,51,52)           112.7719                                         !
 ! A98   A(48,51,53)           111.9302                                         !
 ! A99   A(48,51,54)           111.2219                                         !
 ! A100  A(52,51,53)           108.5863                                         !
 ! A101  A(52,51,54)           106.3906                                         !
 ! A102  A(53,51,54)           105.5336                                         !
 ! A103  A(51,54,55)           111.5107                                         !
 ! A104  A(51,54,56)           110.5667                                         !
 ! A105  A(51,54,57)           111.9037                                         !
 ! A106  A(55,54,56)           107.4218                                         !
 ! A107  A(55,54,57)           107.8906                                         !
 ! A108  A(56,54,57)           107.3384                                         !
 ! A109  A(40,58,59)           107.025                                          !
 ! D1    D(2,1,4,5)            -71.1841                                         !
 ! D2    D(2,1,4,6)            170.1889                                         !
 ! D3    D(2,1,4,7)             49.2776                                         !
 ! D4    D(3,1,4,5)            173.4595                                         !
 ! D5    D(3,1,4,6)             54.8326                                         !
 ! D6    D(3,1,4,7)            -66.0788                                         !
 ! D7    D(1,4,6,10)           -69.5616                                         !
 ! D8    D(1,4,6,22)           106.3206                                         !
 ! D9    D(5,4,6,10)           174.6301                                         !
 ! D10   D(5,4,6,22)            -9.4877                                         !
 ! D11   D(7,4,6,10)            55.052                                          !
 ! D12   D(7,4,6,22)          -129.0658                                         !
 ! D13   D(1,4,7,8)            -54.0474                                         !
 ! D14   D(1,4,7,9)             61.9374                                         !
 ! D15   D(1,4,7,11)          -175.5667                                         !
 ! D16   D(5,4,7,8)             65.9403                                         !
 ! D17   D(5,4,7,9)           -178.0749                                         !
 ! D18   D(5,4,7,11)           -55.5791                                         !
 ! D19   D(6,4,7,8)           -172.4946                                         !
 ! D20   D(6,4,7,9)            -56.5099                                         !
 ! D21   D(6,4,7,11)            65.986                                          !
 ! D22   D(4,6,22,23)           13.4422                                         !
 ! D23   D(4,6,22,33)          179.4266                                         !
 ! D24   D(10,6,22,23)        -170.7304                                         !
 ! D25   D(10,6,22,33)          -4.746                                          !
 ! D26   D(4,7,11,12)          -93.3124                                         !
 ! D27   D(4,7,11,14)           84.6019                                         !
 ! D28   D(8,7,11,12)          146.5192                                         !
 ! D29   D(8,7,11,14)          -35.5664                                         !
 ! D30   D(9,7,11,12)           27.6719                                         !
 ! D31   D(9,7,11,14)         -154.4138                                         !
 ! D32   D(7,11,12,13)          -1.9913                                         !
 ! D33   D(7,11,12,16)         178.1709                                         !
 ! D34   D(14,11,12,13)       -179.9494                                         !
 ! D35   D(14,11,12,16)          0.2128                                         !
 ! D36   D(7,11,14,15)           3.1835                                         !
 ! D37   D(7,11,14,18)        -178.0775                                         !
 ! D38   D(12,11,14,15)       -178.8524                                         !
 ! D39   D(12,11,14,18)         -0.1134                                         !
 ! D40   D(11,12,16,17)        179.2006                                         !
 ! D41   D(11,12,16,20)         -0.2105                                         !
 ! D42   D(13,12,16,17)         -0.636                                          !
 ! D43   D(13,12,16,20)        179.9529                                         !
 ! D44   D(11,14,18,19)       -179.1507                                         !
 ! D45   D(11,14,18,20)          0.0107                                         !
 ! D46   D(15,14,18,19)         -0.413                                          !
 ! D47   D(15,14,18,20)        178.7484                                         !
 ! D48   D(12,16,20,18)          0.1035                                         !
 ! D49   D(12,16,20,21)        179.4186                                         !
 ! D50   D(17,16,20,18)       -179.3053                                         !
 ! D51   D(17,16,20,21)          0.0098                                         !
 ! D52   D(14,18,20,16)         -0.0044                                         !
 ! D53   D(14,18,20,21)       -179.3198                                         !
 ! D54   D(19,18,20,16)        179.1545                                         !
 ! D55   D(19,18,20,21)         -0.161                                          !
 ! D56   D(6,22,23,24)          38.6542                                         !
 ! D57   D(6,22,23,25)         -80.8848                                         !
 ! D58   D(6,22,23,26)         157.05                                           !
 ! D59   D(33,22,23,24)       -128.0683                                         !
 ! D60   D(33,22,23,25)        112.3928                                         !
 ! D61   D(33,22,23,26)         -9.6724                                         !
 ! D62   D(6,22,33,30)         178.261                                          !
 ! D63   D(6,22,33,34)         -62.0362                                         !
 ! D64   D(6,22,33,35)          56.0112                                         !
 ! D65   D(23,22,33,30)        -13.7836                                         !
 ! D66   D(23,22,33,34)        105.9192                                         !
 ! D67   D(23,22,33,35)       -136.0334                                         !
 ! D68   D(22,23,25,29)        174.7953                                         !
 ! D69   D(22,23,25,36)         -5.9819                                         !
 ! D70   D(24,23,25,29)         51.7399                                         !
 ! D71   D(24,23,25,36)       -129.0374                                         !
 ! D72   D(26,23,25,29)        -67.9807                                         !
 ! D73   D(26,23,25,36)        111.2421                                         !
 ! D74   D(22,23,26,27)        152.9303                                         !
 ! D75   D(22,23,26,28)        -88.2216                                         !
 ! D76   D(22,23,26,30)         29.1708                                         !
 ! D77   D(24,23,26,27)        -87.7646                                         !
 ! D78   D(24,23,26,28)         31.0835                                         !
 ! D79   D(24,23,26,30)        148.4759                                         !
 ! D80   D(25,23,26,27)         28.9016                                         !
 ! D81   D(25,23,26,28)        147.7497                                         !
 ! D82   D(25,23,26,30)        -94.8579                                         !
 ! D83   D(23,25,36,37)          4.332                                          !
 ! D84   D(23,25,36,38)        162.115                                          !
 ! D85   D(29,25,36,37)       -176.5011                                         !
 ! D86   D(29,25,36,38)        -18.7181                                         !
 ! D87   D(23,26,30,31)         79.8836                                         !
 ! D88   D(23,26,30,32)       -159.2467                                         !
 ! D89   D(23,26,30,33)        -37.8091                                         !
 ! D90   D(27,26,30,31)        -41.91                                           !
 ! D91   D(27,26,30,32)         78.9597                                         !
 ! D92   D(27,26,30,33)       -159.6028                                         !
 ! D93   D(28,26,30,31)       -163.6829                                         !
 ! D94   D(28,26,30,32)        -42.8132                                         !
 ! D95   D(28,26,30,33)         78.6243                                         !
 ! D96   D(26,30,33,22)         31.5008                                         !
 ! D97   D(26,30,33,34)        -86.3802                                         !
 ! D98   D(26,30,33,35)        151.1483                                         !
 ! D99   D(31,30,33,22)        -86.459                                          !
 ! D100  D(31,30,33,34)        155.66                                           !
 ! D101  D(31,30,33,35)         33.1885                                         !
 ! D102  D(32,30,33,22)        153.4202                                         !
 ! D103  D(32,30,33,34)         35.5391                                         !
 ! D104  D(32,30,33,35)        -86.9324                                         !
 ! D105  D(25,36,38,39)        -70.0827                                         !
 ! D106  D(25,36,38,40)        175.8496                                         !
 ! D107  D(25,36,38,41)         50.6521                                         !
 ! D108  D(37,36,38,39)         88.2395                                         !
 ! D109  D(37,36,38,40)        -25.8282                                         !
 ! D110  D(37,36,38,41)       -151.0257                                         !
 ! D111  D(36,38,40,44)         -1.6893                                         !
 ! D112  D(36,38,40,58)        177.8628                                         !
 ! D113  D(39,38,40,44)       -117.9156                                         !
 ! D114  D(39,38,40,58)         61.6365                                         !
 ! D115  D(41,38,40,44)        124.8951                                         !
 ! D116  D(41,38,40,58)        -55.5527                                         !
 ! D117  D(36,38,41,42)        -64.4107                                         !
 ! D118  D(36,38,41,43)       -179.095                                          !
 ! D119  D(36,38,41,45)         58.1699                                         !
 ! D120  D(39,38,41,42)         57.2619                                         !
 ! D121  D(39,38,41,43)        -57.4225                                         !
 ! D122  D(39,38,41,45)        179.8425                                         !
 ! D123  D(40,38,41,42)        173.5674                                         !
 ! D124  D(40,38,41,43)         58.8831                                         !
 ! D125  D(40,38,41,45)        -63.852                                          !
 ! D126  D(38,40,58,59)       -177.7891                                         !
 ! D127  D(44,40,58,59)          1.7676                                         !
 ! D128  D(38,41,45,46)        -28.7745                                         !
 ! D129  D(38,41,45,47)         88.2028                                         !
 ! D130  D(38,41,45,48)       -150.6404                                         !
 ! D131  D(42,41,45,46)         91.4293                                         !
 ! D132  D(42,41,45,47)       -151.5935                                         !
 ! D133  D(42,41,45,48)        -30.4367                                         !
 ! D134  D(43,41,45,46)       -150.2831                                         !
 ! D135  D(43,41,45,47)        -33.3058                                         !
 ! D136  D(43,41,45,48)         87.851                                          !
 ! D137  D(41,45,48,49)        -41.8279                                         !
 ! D138  D(41,45,48,50)       -159.262                                          !
 ! D139  D(41,45,48,51)         78.9487                                         !
 ! D140  D(46,45,48,49)       -164.3222                                         !
 ! D141  D(46,45,48,50)         78.2437                                         !
 ! D142  D(46,45,48,51)        -43.5456                                         !
 ! D143  D(47,45,48,49)         80.1788                                         !
 ! D144  D(47,45,48,50)        -37.2553                                         !
 ! D145  D(47,45,48,51)       -159.0446                                         !
 ! D146  D(45,48,51,52)        -42.6597                                         !
 ! D147  D(45,48,51,53)         80.1364                                         !
 ! D148  D(45,48,51,54)       -162.0865                                         !
 ! D149  D(49,48,51,52)         77.2513                                         !
 ! D150  D(49,48,51,53)       -159.9526                                         !
 ! D151  D(49,48,51,54)        -42.1755                                         !
 ! D152  D(50,48,51,52)       -164.9267                                         !
 ! D153  D(50,48,51,53)        -42.1307                                         !
 ! D154  D(50,48,51,54)         75.6465                                         !
 ! D155  D(48,51,54,55)       -179.1839                                         !
 ! D156  D(48,51,54,56)         61.3698                                         !
 ! D157  D(48,51,54,57)        -58.2294                                         !
 ! D158  D(52,51,54,55)         57.6527                                         !
 ! D159  D(52,51,54,56)        -61.7936                                         !
 ! D160  D(52,51,54,57)        178.6072                                         !
 ! D161  D(53,51,54,55)        -57.5985                                         !
 ! D162  D(53,51,54,56)       -177.0448                                         !
 ! D163  D(53,51,54,57)         63.356                                          !
 --------------------------------------------------------------------------------
 Symmetry turned off by external request.
 Stoichiometry    C20H31N4O4(1+)
 Framework group  C1[X(C20H31N4O4)]
 Deg. of freedom   171
 Full point group                 C1      NOp   1
                          Input orientation:                          
 ---------------------------------------------------------------------
 Center     Atomic      Atomic             Coordinates (Angstroms)
 Number     Number       Type             X           Y           Z
 ---------------------------------------------------------------------
      1          7           0       -0.960048    2.851697   -1.754905
      2          1           0       -0.629596    3.742405   -1.383474
      3          1           0       -1.143283    3.003707   -2.747647
      4          6           0       -2.233994    2.496135   -1.105553
      5          1           0       -2.004939    2.221595   -0.070946
      6          6           0       -2.767743    1.291795   -1.899903
      7          6           0       -3.302131    3.617713   -1.080443
      8          1           0       -2.842316    4.505653   -0.627195
      9          1           0       -3.555021    3.866576   -2.116174
     10          8           0       -3.165619    1.452363   -3.049151
     11          6           0       -4.544153    3.224585   -0.307177
     12          6           0       -5.649479    2.658763   -0.959346
     13          1           0       -5.622253    2.532328   -2.038429
     14          6           0       -4.596799    3.379010    1.086137
     15          1           0       -3.755746    3.833527    1.606923
     16          6           0       -6.777324    2.262877   -0.238184
     17          1           0       -7.629518    1.838318   -0.762267
     18          6           0       -5.722482    2.982099    1.809843
     19          1           0       -5.749743    3.122700    2.887284
     20          6           0       -6.817250    2.422102    1.148299
     21          1           0       -7.699049    2.122511    1.708048
     22          7           0       -2.712455    0.039019   -1.341936
     23          6           0       -2.444682   -0.298093    0.060641
     24          1           0       -2.923384    0.410419    0.743387
     25          6           0       -0.951314   -0.293472    0.455859
     26          6           0       -3.077843   -1.701473    0.213805
     27          1           0       -2.584496   -2.281661    0.998154
     28          1           0       -4.130232   -1.587289    0.494190
     29          8           0       -0.646103   -0.471772    1.644400
     30          6           0       -2.964501   -2.306014   -1.194641
     31          1           0       -1.951097   -2.688847   -1.368428
     32          1           0       -3.665567   -3.127600   -1.364245
     33          6           0       -3.240458   -1.108647   -2.110401
     34          1           0       -4.312459   -0.965692   -2.292288
     35          1           0       -2.747611   -1.169767   -3.083253
     36          7           0       -0.074735   -0.106655   -0.553150
     37          1           0       -0.474632    0.081664   -1.467614
     38          6           0        1.321635    0.297536   -0.436961
     39          1           0        1.368387    1.347363   -0.114204
     40          6           0        1.903300    0.264909   -1.851254
     41          6           0        2.153375   -0.531607    0.561949
     42          1           0        1.720868   -0.344392    1.546836
     43          1           0        3.168043   -0.121362    0.567627
     44          8           0        1.295285   -0.070731   -2.840797
     45          6           0        2.202262   -2.044346    0.271484
     46          1           0        1.288110   -2.364331   -0.244494
     47          1           0        3.030737   -2.273868   -0.406327
     48          6           0        2.373901   -2.870313    1.564634
     49          1           0        3.111347   -2.370420    2.209993
     50          1           0        2.768209   -3.869009    1.340305
     51          6           0        1.032205   -2.987173    2.286453
     52          1           0        0.474115   -2.043981    2.299838
     53          1           0        0.398016   -3.760989    1.846471
     54          7           0        1.223853   -3.397082    3.750664
     55          1           0        0.323808   -3.490074    4.236611
     56          1           0        1.773550   -2.690632    4.254097
     57          1           0        1.722488   -4.291042    3.836203
     58          8           0        3.188220    0.670353   -1.857551
     59          1           0        3.486630    0.660506   -2.787465
 ---------------------------------------------------------------------
 Rotational constants (GHZ):           0.2562341           0.1059999           0.0913908
 Standard basis: 6-31G(d) (6D, 7F)
   482 basis functions,   908 primitive gaussians,   482 cartesian basis functions
   105 alpha electrons      105 beta electrons
       nuclear repulsion energy      2834.3537892558 Hartrees.
 NAtoms=   59 NActive=   59 NUniq=   59 SFac= 1.00D+00 NAtFMM=   60 NAOKFM=F Big=F
 Integral buffers will be    131072 words long.
 Raffenetti 2 integral format.
 Two-electron integral symmetry is turned off.
 One-electron integrals computed using PRISM.
 NBasis=   482 RedAO= T EigKep=  4.71D-04  NBF=   482
 NBsUse=   482 1.00D-06 EigRej= -1.00D+00 NBFU=   482
 Initial guess from the checkpoint file:  "conf-981.chk"
 B after Tr=     0.000000    0.000000    0.000000
         Rot=    1.000000    0.000000    0.000000    0.000000 Ang=   0.00 deg.
 Requested convergence on RMS density matrix=1.00D-08 within 128 cycles.
 Requested convergence on MAX density matrix=1.00D-06.
 Requested convergence on             energy=1.00D-06.
 No special actions if energy rises.
 SCF Done:  E(RB3LYP) =  -1300.51494708     A.U. after    2 cycles
            NFock=  2  Conv=0.84D-08     -V/T= 2.0095

 **********************************************************************

            Population analysis using the SCF Density.

 **********************************************************************

 Alpha  occ. eigenvalues --  -19.29620 -19.24063 -19.21985 -19.18842 -14.64357
 Alpha  occ. eigenvalues --  -14.45985 -14.44601 -14.39714 -10.42099 -10.40140
 Alpha  occ. eigenvalues --  -10.38977 -10.35910 -10.34584 -10.34383 -10.32633
 Alpha  occ. eigenvalues --  -10.31341 -10.30162 -10.29877 -10.29707 -10.28585
 Alpha  occ. eigenvalues --  -10.27764 -10.25668 -10.25383 -10.24925 -10.24866
 Alpha  occ. eigenvalues --  -10.24686 -10.24627 -10.24452  -1.20625  -1.18166
 Alpha  occ. eigenvalues --   -1.13471  -1.11761  -1.11063  -1.03451  -1.01811
 Alpha  occ. eigenvalues --   -0.96463  -0.95185  -0.91268  -0.89631  -0.87985
 Alpha  occ. eigenvalues --   -0.85072  -0.84083  -0.82994  -0.80090  -0.79075
 Alpha  occ. eigenvalues --   -0.77961  -0.76815  -0.76044  -0.74438  -0.72627
 Alpha  occ. eigenvalues --   -0.71853  -0.69849  -0.67752  -0.66493  -0.66286
 Alpha  occ. eigenvalues --   -0.66252  -0.65269  -0.63838  -0.61995  -0.60834
 Alpha  occ. eigenvalues --   -0.60167  -0.59816  -0.58488  -0.57772  -0.56923
 Alpha  occ. eigenvalues --   -0.56703  -0.56070  -0.54264  -0.54060  -0.53120
 Alpha  occ. eigenvalues --   -0.52746  -0.52252  -0.51976  -0.51832  -0.51386
 Alpha  occ. eigenvalues --   -0.51261  -0.50740  -0.50197  -0.49456  -0.49219
 Alpha  occ. eigenvalues --   -0.48422  -0.47733  -0.47294  -0.46843  -0.46447
 Alpha  occ. eigenvalues --   -0.46062  -0.45858  -0.45190  -0.44135  -0.43630
 Alpha  occ. eigenvalues --   -0.43273  -0.42826  -0.42125  -0.41773  -0.41531
 Alpha  occ. eigenvalues --   -0.40046  -0.39524  -0.37642  -0.36602  -0.35969
 Alpha  occ. eigenvalues --   -0.33053  -0.32369  -0.31777  -0.30788  -0.29756
 Alpha virt. eigenvalues --   -0.14924  -0.09457  -0.08593  -0.08322  -0.07793
 Alpha virt. eigenvalues --   -0.06495  -0.06081  -0.05890  -0.05473  -0.02801
 Alpha virt. eigenvalues --   -0.01850  -0.00949   0.00341   0.00685   0.01859
 Alpha virt. eigenvalues --    0.02309   0.02768   0.03314   0.03615   0.04180
 Alpha virt. eigenvalues --    0.04425   0.05296   0.05768   0.06455   0.06950
 Alpha virt. eigenvalues --    0.07131   0.07343   0.07661   0.08304   0.08526
 Alpha virt. eigenvalues --    0.08865   0.09165   0.09664   0.09985   0.10316
 Alpha virt. eigenvalues --    0.11011   0.11463   0.11587   0.12362   0.12972
 Alpha virt. eigenvalues --    0.13239   0.13645   0.13899   0.14159   0.14379
 Alpha virt. eigenvalues --    0.14677   0.16059   0.16351   0.17482   0.17871
 Alpha virt. eigenvalues --    0.18411   0.19522   0.20754   0.21567   0.22122
 Alpha virt. eigenvalues --    0.24968   0.25241   0.26415   0.27640   0.28294
 Alpha virt. eigenvalues --    0.28863   0.29891   0.33111   0.34151   0.35671
 Alpha virt. eigenvalues --    0.37300   0.37747   0.39307   0.39401   0.40884
 Alpha virt. eigenvalues --    0.41092   0.42989   0.43268   0.44018   0.45156
 Alpha virt. eigenvalues --    0.45336   0.45756   0.46595   0.46807   0.47379
 Alpha virt. eigenvalues --    0.47964   0.48310   0.48487   0.49001   0.50084
 Alpha virt. eigenvalues --    0.50819   0.51380   0.51604   0.52526   0.52731
 Alpha virt. eigenvalues --    0.53664   0.53899   0.54012   0.54563   0.54844
 Alpha virt. eigenvalues --    0.55518   0.55766   0.56172   0.56815   0.57892
 Alpha virt. eigenvalues --    0.57974   0.58352   0.58821   0.58968   0.59612
 Alpha virt. eigenvalues --    0.60575   0.60988   0.61932   0.62871   0.63395
 Alpha virt. eigenvalues --    0.63757   0.64212   0.65165   0.65307   0.65788
 Alpha virt. eigenvalues --    0.66058   0.66807   0.67592   0.67969   0.70109
 Alpha virt. eigenvalues --    0.71020   0.71720   0.72085   0.72926   0.73315
 Alpha virt. eigenvalues --    0.73972   0.74645   0.74849   0.75263   0.75545
 Alpha virt. eigenvalues --    0.76381   0.76626   0.77208   0.77530   0.78300
 Alpha virt. eigenvalues --    0.78400   0.78811   0.79292   0.79570   0.79966
 Alpha virt. eigenvalues --    0.80336   0.81017   0.81339   0.82224   0.82707
 Alpha virt. eigenvalues --    0.82924   0.83202   0.83998   0.84447   0.84789
 Alpha virt. eigenvalues --    0.85114   0.86123   0.86291   0.87212   0.87541
 Alpha virt. eigenvalues --    0.88159   0.88697   0.89276   0.90137   0.90683
 Alpha virt. eigenvalues --    0.91082   0.91861   0.92884   0.93541   0.93962
 Alpha virt. eigenvalues --    0.95000   0.95800   0.96576   0.97847   0.99043
 Alpha virt. eigenvalues --    1.00070   1.01071   1.02775   1.03701   1.04472
 Alpha virt. eigenvalues --    1.05102   1.07493   1.07996   1.09306   1.09716
 Alpha virt. eigenvalues --    1.10938   1.12326   1.13089   1.13858   1.15784
 Alpha virt. eigenvalues --    1.17107   1.18081   1.18660   1.20477   1.23857
 Alpha virt. eigenvalues --    1.25613   1.26115   1.27305   1.28122   1.28996
 Alpha virt. eigenvalues --    1.29623   1.31742   1.33998   1.35259   1.35840
 Alpha virt. eigenvalues --    1.36923   1.37435   1.39115   1.39508   1.39903
 Alpha virt. eigenvalues --    1.42162   1.42556   1.43334   1.44505   1.45610
 Alpha virt. eigenvalues --    1.46311   1.48082   1.49375   1.49538   1.51203
 Alpha virt. eigenvalues --    1.52276   1.53433   1.54880   1.56131   1.56398
 Alpha virt. eigenvalues --    1.59924   1.60229   1.62811   1.63169   1.64301
 Alpha virt. eigenvalues --    1.64928   1.66644   1.67269   1.67623   1.68678
 Alpha virt. eigenvalues --    1.69373   1.70029   1.71585   1.71713   1.71936
 Alpha virt. eigenvalues --    1.72776   1.73786   1.74043   1.74701   1.75018
 Alpha virt. eigenvalues --    1.75765   1.77195   1.77754   1.78311   1.78582
 Alpha virt. eigenvalues --    1.79504   1.80040   1.81311   1.82021   1.83309
 Alpha virt. eigenvalues --    1.84321   1.84602   1.85737   1.86201   1.86984
 Alpha virt. eigenvalues --    1.87107   1.88875   1.89487   1.90657   1.91443
 Alpha virt. eigenvalues --    1.92124   1.93443   1.93750   1.94242   1.95336
 Alpha virt. eigenvalues --    1.96100   1.97015   1.97517   1.98689   1.99672
 Alpha virt. eigenvalues --    2.00734   2.01304   2.02479   2.02664   2.03925
 Alpha virt. eigenvalues --    2.04715   2.06907   2.07769   2.08734   2.09120
 Alpha virt. eigenvalues --    2.09382   2.10261   2.11598   2.12404   2.12465
 Alpha virt. eigenvalues --    2.14635   2.15567   2.16626   2.19179   2.20456
 Alpha virt. eigenvalues --    2.21096   2.22294   2.22698   2.23459   2.25087
 Alpha virt. eigenvalues --    2.25813   2.26723   2.27104   2.28924   2.29800
 Alpha virt. eigenvalues --    2.30636   2.31714   2.32615   2.34158   2.35225
 Alpha virt. eigenvalues --    2.36142   2.37026   2.38815   2.39687   2.40408
 Alpha virt. eigenvalues --    2.41811   2.43006   2.45039   2.46826   2.47631
 Alpha virt. eigenvalues --    2.51228   2.51564   2.51755   2.53062   2.54061
 Alpha virt. eigenvalues --    2.56173   2.56463   2.58476   2.60030   2.60493
 Alpha virt. eigenvalues --    2.62003   2.63927   2.65912   2.66502   2.67245
 Alpha virt. eigenvalues --    2.67651   2.68985   2.70283   2.71571   2.72488
 Alpha virt. eigenvalues --    2.74477   2.76266   2.77681   2.84456   2.86391
 Alpha virt. eigenvalues --    2.89605   2.92784   2.95157   2.96128   2.99631
 Alpha virt. eigenvalues --    3.01913   3.10520   3.13918   3.34916   3.54590
 Alpha virt. eigenvalues --    3.74565   3.78335   3.90876   3.99601   4.02352
 Alpha virt. eigenvalues --    4.03720   4.05938   4.06501   4.08328   4.12343
 Alpha virt. eigenvalues --    4.14423   4.16723   4.16982   4.21761   4.23492
 Alpha virt. eigenvalues --    4.26198   4.29056   4.33509   4.36127   4.37789
 Alpha virt. eigenvalues --    4.42031   4.42741   4.50983   4.52946   4.62642
 Alpha virt. eigenvalues --    4.65554   4.71357
          Condensed to atoms (all electrons):
 Mulliken charges:
               1
     1  N   -0.741907
     2  H    0.307983
     3  H    0.327415
     4  C   -0.046794
     5  H    0.132060
     6  C    0.606085
     7  C   -0.361022
     8  H    0.141719
     9  H    0.175263
    10  O   -0.518049
    11  C    0.151269
    12  C   -0.188318
    13  H    0.155214
    14  C   -0.190923
    15  H    0.121666
    16  C   -0.133253
    17  H    0.140518
    18  C   -0.130329
    19  H    0.134604
    20  C   -0.131896
    21  H    0.138259
    22  N   -0.492282
    23  C   -0.037817
    24  H    0.199200
    25  C    0.605740
    26  C   -0.298245
    27  H    0.139414
    28  H    0.176623
    29  O   -0.572979
    30  C   -0.309174
    31  H    0.145111
    32  H    0.169378
    33  C   -0.110415
    34  H    0.176632
    35  H    0.187114
    36  N   -0.609753
    37  H    0.385984
    38  C   -0.016690
    39  H    0.204788
    40  C    0.589655
    41  C   -0.293319
    42  H    0.166732
    43  H    0.182118
    44  O   -0.448893
    45  C   -0.280525
    46  H    0.170763
    47  H    0.180153
    48  C   -0.296780
    49  H    0.159070
    50  H    0.173802
    51  C   -0.244475
    52  H    0.285344
    53  H    0.215619
    54  N   -0.731290
    55  H    0.430776
    56  H    0.425166
    57  H    0.422126
    58  O   -0.568684
    59  H    0.430451
 Sum of Mulliken charges =   1.00000
 Mulliken charges with hydrogens summed into heavy atoms:
               1
     1  N   -0.106509
     4  C    0.085266
     6  C    0.606085
     7  C   -0.044040
    10  O   -0.518049
    11  C    0.151269
    12  C   -0.033104
    14  C   -0.069257
    16  C    0.007265
    18  C    0.004275
    20  C    0.006363
    22  N   -0.492282
    23  C    0.161382
    25  C    0.605740
    26  C    0.017792
    29  O   -0.572979
    30  C    0.005315
    33  C    0.253331
    36  N   -0.223769
    38  C    0.188098
    40  C    0.589655
    41  C    0.055531
    44  O   -0.448893
    45  C    0.070392
    48  C    0.036092
    51  C    0.256488
    54  N    0.546779
    58  O   -0.138233
 Electronic spatial extent (au):  <R**2>=          14219.7982
 Charge=              1.0000 electrons
 Dipole moment (field-independent basis, Debye):
    X=              5.2298    Y=            -12.5485    Z=             13.3778  Tot=             19.0730
 Quadrupole moment (field-independent basis, Debye-Ang):
   XX=           -130.6001   YY=           -101.8257   ZZ=           -113.1369
   XY=            -12.2111   XZ=              8.0411   YZ=            -48.3384
 Traceless Quadrupole moment (field-independent basis, Debye-Ang):
   XX=            -15.4125   YY=             13.3619   ZZ=              2.0507
   XY=            -12.2111   XZ=              8.0411   YZ=            -48.3384
 Octapole moment (field-independent basis, Debye-Ang**2):
  XXX=            733.3684  YYY=           -340.4971  ZZZ=            370.6435  XYY=            329.4184
  XXY=           -118.6637  XXZ=             63.8215  XZZ=            366.8240  YZZ=           -246.5644
  YYZ=            203.9046  XYZ=            -88.0964
 Hexadecapole moment (field-independent basis, Debye-Ang**3):
 XXXX=         -10131.2178 YYYY=          -3945.5479 ZZZZ=          -1998.8462 XXXY=           2168.2277
 XXXZ=           -522.6400 YYYX=           1980.8492 YYYZ=           -115.9832 ZZZX=           -264.8567
 ZZZY=           -148.6565 XXYY=          -2661.8020 XXZZ=          -2077.5488 YYZZ=           -510.9364
 XXYZ=            176.4762 YYXZ=            105.4266 ZZXY=            492.8075
 N-N= 2.834353789256D+03 E-N=-8.674451957804D+03  KE= 1.288282071071D+03
 Unable to Open any file for archive entry.
 1\1\GINC-LAC-304\SP\RB3LYP\6-31G(d)\C20H31N4O4(1+)\KENGMITH\27-May-202
 2\0\\# B3LYP/6-31G* guess=read geom=check nosymm integral(ultrafinegri
 d)\\Candidate Structure: Conf:981 Charge calc in gas phase\\1,1\N,0,-0
 .9600477395,2.851696586,-1.7549048554\H,0,-0.6295961375,3.7424048887,-
 1.3834739172\H,0,-1.1432828269,3.0037068225,-2.7476465995\C,0,-2.23399
 40087,2.4961347667,-1.1055529075\H,0,-2.0049388911,2.2215954162,-0.070
 9455709\C,0,-2.7677434594,1.2917953918,-1.8999031768\C,0,-3.3021310736
 ,3.6177132822,-1.0804428206\H,0,-2.8423161162,4.5056528974,-0.62719486
 93\H,0,-3.5550213302,3.8665757814,-2.1161742073\O,0,-3.1656193895,1.45
 23627295,-3.0491509047\C,0,-4.5441531209,3.2245851068,-0.3071766355\C,
 0,-5.6494788209,2.6587628902,-0.9593460589\H,0,-5.6222528157,2.5323278
 024,-2.0384290388\C,0,-4.5967990604,3.3790097375,1.0861366676\H,0,-3.7
 557459789,3.8335272427,1.6069234241\C,0,-6.7773235072,2.2628773679,-0.
 2381835064\H,0,-7.6295180013,1.8383184473,-0.7622673778\C,0,-5.7224821
 597,2.9820991302,1.8098434833\H,0,-5.7497428045,3.1226999678,2.8872843
 376\C,0,-6.81725025,2.4221023691,1.1482992166\H,0,-7.6990485096,2.1225
 110153,1.7080479326\N,0,-2.7124553442,0.0390194295,-1.3419364098\C,0,-
 2.4446820332,-0.298092781,0.0606405128\H,0,-2.9233840856,0.4104190858,
 0.7433869921\C,0,-0.9513141252,-0.293471696,0.4558587228\C,0,-3.077843
 1551,-1.7014734794,0.2138048559\H,0,-2.5844955474,-2.2816611051,0.9981
 535167\H,0,-4.1302318566,-1.5872888208,0.4941900418\O,0,-0.6461025009,
 -0.4717722161,1.6444004763\C,0,-2.9645005201,-2.3060144264,-1.19464086
 83\H,0,-1.9510969372,-2.6888473964,-1.3684280132\H,0,-3.6655669126,-3.
 1275998913,-1.3642446981\C,0,-3.2404582669,-1.1086471372,-2.1104013607
 \H,0,-4.3124589385,-0.9656919252,-2.2922882659\H,0,-2.7476111095,-1.16
 97668859,-3.0832534921\N,0,-0.0747349106,-0.1066549991,-0.553149939\H,
 0,-0.4746322124,0.0816636361,-1.4676141159\C,0,1.3216352092,0.29753615
 19,-0.4369606274\H,0,1.3683874992,1.3473631493,-0.1142036414\C,0,1.903
 3004236,0.2649094752,-1.851254097\C,0,2.1533747763,-0.5316072967,0.561
 9493832\H,0,1.7208682818,-0.3443917388,1.5468359924\H,0,3.1680433595,-
 0.1213618739,0.5676267246\O,0,1.2952852088,-0.0707311944,-2.8407974855
 \C,0,2.2022620844,-2.0443455958,0.2714837821\H,0,1.2881095846,-2.36433
 06932,-0.2444942214\H,0,3.030736686,-2.2738679459,-0.4063271768\C,0,2.
 3739011884,-2.8703128198,1.5646339574\H,0,3.1113469866,-2.3704200816,2
 .2099930109\H,0,2.7682089522,-3.8690090102,1.3403050567\C,0,1.03220487
 46,-2.9871726061,2.2864528766\H,0,0.4741148273,-2.0439807143,2.2998379
 737\H,0,0.3980164209,-3.7609886664,1.8464714177\N,0,1.2238531163,-3.39
 70821322,3.7506635464\H,0,0.3238080127,-3.4900743176,4.236610742\H,0,1
 .7735502196,-2.6906323151,4.2540972095\H,0,1.7224876655,-4.291041615,3
 .8362032287\O,0,3.1882195323,0.6703530016,-1.8575505722\H,0,3.48662996
 81,0.6605062575,-2.7874645203\\Version=ES64L-G16RevC.01\HF=-1300.51494
 71\RMSD=8.398e-09\Dipole=4.8849594,-5.5346437,5.7179009\Quadrupole=-11
 .4588484,9.9342167,1.5246317,-9.0786849,5.9783821,-35.9384372\PG=C01 [
 X(C20H31N4O4)]\\@
 The archive entry for this job was punched.


 "WHERE SHALL I START, PLEASE YOUR MAJESTY?" HE ASKED.
 "BEGIN AT THE BEGINNING," THE KING SAID GRAVELY,
 "AND GO ON TILL YOU COME TO THE END: THEN STOP." 

                                      -- LEWIS CARROLL
 Job cpu time:       0 days  0 hours  2 minutes  3.2 seconds.
 Elapsed time:       0 days  0 hours  0 minutes 31.3 seconds.
 File lengths (MBytes):  RWF=    240 Int=      0 D2E=      0 Chk=     32 Scr=     16
 Normal termination of Gaussian 16 at Fri May 27 03:53:52 2022.
