 Entering Gaussian System, Link 0=/opt/software/Gaussian/g16-AVX2-C.01/g16/g16
 Input=charge-conf-669.com
 Output=charge-conf-669.log
 Initial command:
 /opt/software/Gaussian/g16-AVX2-C.01/g16/l1.exe "/mnt/gs18/scratch/users/kengmith/Gau-81256.inp" -scrdir="/mnt/gs18/scratch/users/kengmith/"
 Entering Link 1 = /opt/software/Gaussian/g16-AVX2-C.01/g16/l1.exe PID=     81275.
  
 Copyright (c) 1988-2019, Gaussian, Inc.  All Rights Reserved.
  
 This is part of the Gaussian(R) 16 program.  It is based on
 the Gaussian(R) 09 system (copyright 2009, Gaussian, Inc.),
 the Gaussian(R) 03 system (copyright 2003, Gaussian, Inc.),
 the Gaussian(R) 98 system (copyright 1998, Gaussian, Inc.),
 the Gaussian(R) 94 system (copyright 1995, Gaussian, Inc.),
 the Gaussian 92(TM) system (copyright 1992, Gaussian, Inc.),
 the Gaussian 90(TM) system (copyright 1990, Gaussian, Inc.),
 the Gaussian 88(TM) system (copyright 1988, Gaussian, Inc.),
 the Gaussian 86(TM) system (copyright 1986, Carnegie Mellon
 University), and the Gaussian 82(TM) system (copyright 1983,
 Carnegie Mellon University). Gaussian is a federally registered
 trademark of Gaussian, Inc.
  
 This software contains proprietary and confidential information,
 including trade secrets, belonging to Gaussian, Inc.
  
 This software is provided under written license and may be
 used, copied, transmitted, or stored only in accord with that
 written license.
  
 The following legend is applicable only to US Government
 contracts under FAR:
  
                    RESTRICTED RIGHTS LEGEND
  
 Use, reproduction and disclosure by the US Government is
 subject to restrictions as set forth in subparagraphs (a)
 and (c) of the Commercial Computer Software - Restricted
 Rights clause in FAR 52.227-19.
  
 Gaussian, Inc.
 340 Quinnipiac St., Bldg. 40, Wallingford CT 06492
  
  
 ---------------------------------------------------------------
 Warning -- This program may not be used in any manner that
 competes with the business of Gaussian, Inc. or will provide
 assistance to any competitor of Gaussian, Inc.  The licensee
 of this program is prohibited from giving any competitor of
 Gaussian, Inc. access to this program.  By using this program,
 the user acknowledges that Gaussian, Inc. is engaged in the
 business of creating and licensing software in the field of
 computational chemistry and represents and warrants to the
 licensee that it is not a competitor of Gaussian, Inc. and that
 it will not use this program in any manner prohibited above.
 ---------------------------------------------------------------
  

 Cite this work as:
 Gaussian 16, Revision C.01,
 M. J. Frisch, G. W. Trucks, H. B. Schlegel, G. E. Scuseria, 
 M. A. Robb, J. R. Cheeseman, G. Scalmani, V. Barone, 
 G. A. Petersson, H. Nakatsuji, X. Li, M. Caricato, A. V. Marenich, 
 J. Bloino, B. G. Janesko, R. Gomperts, B. Mennucci, H. P. Hratchian, 
 J. V. Ortiz, A. F. Izmaylov, J. L. Sonnenberg, D. Williams-Young, 
 F. Ding, F. Lipparini, F. Egidi, J. Goings, B. Peng, A. Petrone, 
 T. Henderson, D. Ranasinghe, V. G. Zakrzewski, J. Gao, N. Rega, 
 G. Zheng, W. Liang, M. Hada, M. Ehara, K. Toyota, R. Fukuda, 
 J. Hasegawa, M. Ishida, T. Nakajima, Y. Honda, O. Kitao, H. Nakai, 
 T. Vreven, K. Throssell, J. A. Montgomery, Jr., J. E. Peralta, 
 F. Ogliaro, M. J. Bearpark, J. J. Heyd, E. N. Brothers, K. N. Kudin, 
 V. N. Staroverov, T. A. Keith, R. Kobayashi, J. Normand, 
 K. Raghavachari, A. P. Rendell, J. C. Burant, S. S. Iyengar, 
 J. Tomasi, M. Cossi, J. M. Millam, M. Klene, C. Adamo, R. Cammi, 
 J. W. Ochterski, R. L. Martin, K. Morokuma, O. Farkas, 
 J. B. Foresman, and D. J. Fox, Gaussian, Inc., Wallingford CT, 2019.
 
 ******************************************
 Gaussian 16:  ES64L-G16RevC.01  3-Jul-2019
                24-May-2022 
 ******************************************
 %mem=8gb
 %nproc=4
 Will use up to    4 processors via shared memory.
 %chk=conf-669.chk
 -------------------------------------------------------------------
 # B3LYP/6-31G* guess=read geom=check nosymm integral(ultrafinegrid)
 -------------------------------------------------------------------
 1/29=2,38=1,172=1/1;
 2/12=2,15=1,40=1/2;
 3/5=1,6=6,7=1,11=2,14=-4,25=1,30=1,74=-5,75=-5,116=-2/1,2,3;
 4/5=1/1;
 5/5=2,38=6/2;
 6/7=2,8=2,9=2,10=2,28=1/1;
 99/5=1,9=1/99;
 ------------------------------------------------------
 Candidate Structure: Conf:669 Charge calc in gas phase
 ------------------------------------------------------
 Structure from the checkpoint file:  "conf-669.chk"
 Charge =  1 Multiplicity = 1
 Redundant internal coordinates found in file.  (old form).
 N,0,-2.6339361541,1.2634758946,-4.4410824411
 H,0,-3.5277908691,1.4546603779,-3.9915933896
 H,0,-2.1803487406,2.1698385164,-4.5502876338
 C,0,-1.8160589954,0.4096224286,-3.5966747126
 H,0,-2.4326201479,-0.4472942122,-3.3052052972
 C,0,-1.338062169,1.0637546675,-2.2851382651
 C,0,-0.5855260661,-0.1174540137,-4.3947765555
 H,0,0.3082425429,-0.148418143,-3.7624438832
 H,0,-0.3873243695,0.5909235087,-5.2061509669
 O,0,-1.3641816294,2.3034449257,-2.1296391052
 C,0,-0.826267791,-1.5007153531,-5.0013117517
 H,0,-1.7632416971,-1.5171789361,-5.5732711859
 H,0,-0.0374594181,-1.7681256823,-5.7144729534
 C,0,-0.8908181541,-2.5950806651,-3.9570448265
 O,0,-0.8627555335,-2.4336529694,-2.7457919789
 O,0,-0.9898898057,-3.8122498504,-4.5097844751
 N,0,-0.8950231312,0.1990036638,-1.3578142332
 H,0,-0.8268906808,-0.7769061308,-1.6556744069
 C,0,-0.2744409335,0.5631738841,-0.0984282893
 H,0,-0.801456776,1.4381121051,0.2973200224
 C,0,1.2088333164,0.9675649496,-0.3088001875
 C,0,-0.3914062225,-0.6164204588,0.8962120175
 H,0,0.148368259,-0.3654874195,1.8180878609
 H,0,0.1359346276,-1.4771353859,0.4614559145
 O,0,1.7924892886,0.8278876475,-1.3793527259
 C,0,-1.8322513928,-1.0307344659,1.2615919392
 H,0,-2.3600475147,-1.2829764373,0.3315936912
 C,0,-1.7951405551,-2.2919344254,2.138228493
 H,0,-1.2797358299,-2.0986768667,3.0875830125
 H,0,-2.8091244027,-2.6316381851,2.3746524441
 H,0,-1.2749422448,-3.1151376996,1.6351944222
 C,0,-2.6066848018,0.0967791988,1.9596607497
 H,0,-2.1000608036,0.411003229,2.8817941393
 H,0,-2.7293653901,0.9793855596,1.3204918361
 H,0,-3.6111763183,-0.2407523118,2.2361560889
 N,0,1.7999547442,1.5174672803,0.7978674537
 H,0,1.2951021068,1.4512035276,1.6777080136
 C,0,3.2488609091,1.5514006952,0.9959708409
 H,0,3.7152430051,0.8653395876,0.2802941656
 C,0,3.5093560149,1.0262285709,2.4100846491
 C,0,3.8720713792,2.9597826962,0.8208703524
 H,0,4.881884701,2.9425746302,1.2406249362
 H,0,3.2899853061,3.6576606484,1.4362212262
 O,0,2.6389280618,0.8400853017,3.2342175271
 C,0,3.9234252235,3.421523982,-0.6557352122
 H,0,4.9629175451,3.4509864912,-1.0020704036
 H,0,3.4261146738,2.6709342596,-1.2789752164
 C,0,3.3294143116,4.81675891,-0.9187529484
 H,0,3.4140082869,5.079181543,-1.9790579292
 H,0,3.8795141966,5.5805071343,-0.3628846551
 N,0,1.9203309319,4.9618252176,-0.5194843759
 H,0,1.7340382442,5.3599128694,0.3900034225
 N,0,1.0518488016,3.7227423561,-2.2995823417
 H,0,0.2326423683,3.2011610814,-2.620425183
 H,0,1.9375944133,3.2703255351,-2.4761902703
 N,0,-0.3631298876,4.5236123597,-0.6743215036
 H,0,-1.0764624428,3.8866008673,-1.0316613268
 H,0,-0.5815227572,5.1481499799,0.0872171942
 C,0,0.8827266673,4.3913614375,-1.1496624186
 O,0,4.8151946734,0.8207014833,2.6331650239
 H,0,4.9130376931,0.501688006,3.5516553932
 H,0,-1.0359039675,-4.463430216,-3.7832793107
 Recover connectivity data from disk.
                           ----------------------------
                           !    Current Parameters    !
                           ! (Angstroms and Degrees)  !
 --------------------------                            --------------------------
 ! Name  Definition              Value                                          !
 --------------------------------------------------------------------------------
 ! R1    R(1,2)                  1.0186                                         !
 ! R2    R(1,3)                  1.0194                                         !
 ! R3    R(1,4)                  1.4529                                         !
 ! R4    R(4,5)                  1.0952                                         !
 ! R5    R(4,6)                  1.5416                                         !
 ! R6    R(4,7)                  1.5585                                         !
 ! R7    R(6,10)                 1.2497                                         !
 ! R8    R(6,17)                 1.3431                                         !
 ! R9    R(7,8)                  1.0953                                         !
 ! R10   R(7,9)                  1.0952                                         !
 ! R11   R(7,11)                 1.5295                                         !
 ! R12   R(11,12)                1.0979                                         !
 ! R13   R(11,13)                1.0965                                         !
 ! R14   R(11,14)                1.514                                          !
 ! R15   R(14,15)                1.2223                                         !
 ! R16   R(14,16)                1.3405                                         !
 ! R17   R(16,62)                0.9767                                         !
 ! R18   R(17,18)                1.0226                                         !
 ! R19   R(17,19)                1.4504                                         !
 ! R20   R(19,20)                1.0954                                         !
 ! R21   R(19,21)                1.5517                                         !
 ! R22   R(19,22)                1.5474                                         !
 ! R23   R(21,25)                1.2273                                         !
 ! R24   R(21,36)                1.3699                                         !
 ! R25   R(22,23)                1.0974                                         !
 ! R26   R(22,24)                1.0991                                         !
 ! R27   R(22,26)                1.5431                                         !
 ! R28   R(26,27)                1.0987                                         !
 ! R29   R(26,28)                1.5364                                         !
 ! R30   R(26,32)                1.5357                                         !
 ! R31   R(28,29)                1.0974                                         !
 ! R32   R(28,30)                1.0952                                         !
 ! R33   R(28,31)                1.096                                          !
 ! R34   R(32,33)                1.0981                                         !
 ! R35   R(32,34)                1.0966                                         !
 ! R36   R(32,35)                1.0952                                         !
 ! R37   R(36,37)                1.0166                                         !
 ! R38   R(36,38)                1.4628                                         !
 ! R39   R(38,39)                1.0956                                         !
 ! R40   R(38,40)                1.5308                                         !
 ! R41   R(38,41)                1.55                                           !
 ! R42   R(40,44)                1.213                                          !
 ! R43   R(40,60)                1.3406                                         !
 ! R44   R(41,42)                1.0937                                         !
 ! R45   R(41,43)                1.0975                                         !
 ! R46   R(41,45)                1.548                                          !
 ! R47   R(45,46)                1.0961                                         !
 ! R48   R(45,47)                1.095                                          !
 ! R49   R(45,48)                1.5391                                         !
 ! R50   R(48,49)                1.0956                                         !
 ! R51   R(48,50)                1.0931                                         !
 ! R52   R(48,51)                1.4717                                         !
 ! R53   R(51,52)                1.0101                                         !
 ! R54   R(51,59)                1.3413                                         !
 ! R55   R(53,54)                1.0228                                         !
 ! R56   R(53,55)                1.0102                                         !
 ! R57   R(53,59)                1.3409                                         !
 ! R58   R(56,57)                1.0209                                         !
 ! R59   R(56,58)                1.0088                                         !
 ! R60   R(56,59)                1.34                                           !
 ! R61   R(60,61)                0.9772                                         !
 ! A1    A(2,1,3)              105.7151                                         !
 ! A2    A(2,1,4)              110.3536                                         !
 ! A3    A(3,1,4)              109.53                                           !
 ! A4    A(1,4,5)              107.3129                                         !
 ! A5    A(1,4,6)              114.8108                                         !
 ! A6    A(1,4,7)              110.2174                                         !
 ! A7    A(5,4,6)              106.2691                                         !
 ! A8    A(5,4,7)              108.4316                                         !
 ! A9    A(6,4,7)              109.5335                                         !
 ! A10   A(4,6,10)             121.3533                                         !
 ! A11   A(4,6,17)             114.612                                          !
 ! A12   A(10,6,17)            124.033                                          !
 ! A13   A(4,7,8)              110.9903                                         !
 ! A14   A(4,7,9)              107.6698                                         !
 ! A15   A(4,7,11)             112.6228                                         !
 ! A16   A(8,7,9)              107.357                                          !
 ! A17   A(8,7,11)             109.3796                                         !
 ! A18   A(9,7,11)             108.6431                                         !
 ! A19   A(7,11,12)            110.7626                                         !
 ! A20   A(7,11,13)            111.4233                                         !
 ! A21   A(7,11,14)            112.7623                                         !
 ! A22   A(12,11,13)           105.7512                                         !
 ! A23   A(12,11,14)           108.1859                                         !
 ! A24   A(13,11,14)           107.6371                                         !
 ! A25   A(11,14,15)           125.9486                                         !
 ! A26   A(11,14,16)           112.0289                                         !
 ! A27   A(15,14,16)           122.0222                                         !
 ! A28   A(14,16,62)           107.5868                                         !
 ! A29   A(6,17,18)            115.8043                                         !
 ! A30   A(6,17,19)            125.377                                          !
 ! A31   A(18,17,19)           117.6456                                         !
 ! A32   A(17,19,20)           107.9622                                         !
 ! A33   A(17,19,21)           110.8975                                         !
 ! A34   A(17,19,22)           109.5345                                         !
 ! A35   A(20,19,21)           107.5007                                         !
 ! A36   A(20,19,22)           109.8949                                         !
 ! A37   A(21,19,22)           110.981                                          !
 ! A38   A(19,21,25)           122.9004                                         !
 ! A39   A(19,21,36)           114.0522                                         !
 ! A40   A(25,21,36)           123.0359                                         !
 ! A41   A(19,22,23)           109.1776                                         !
 ! A42   A(19,22,24)           107.8459                                         !
 ! A43   A(19,22,26)           115.306                                          !
 ! A44   A(23,22,24)           105.9849                                         !
 ! A45   A(23,22,26)           108.7699                                         !
 ! A46   A(24,22,26)           109.3544                                         !
 ! A47   A(22,26,27)           108.0453                                         !
 ! A48   A(22,26,28)           109.448                                          !
 ! A49   A(22,26,32)           112.4188                                         !
 ! A50   A(27,26,28)           107.8256                                         !
 ! A51   A(27,26,32)           108.1245                                         !
 ! A52   A(28,26,32)           110.825                                          !
 ! A53   A(26,28,29)           111.1243                                         !
 ! A54   A(26,28,30)           110.8197                                         !
 ! A55   A(26,28,31)           111.4773                                         !
 ! A56   A(29,28,30)           107.6203                                         !
 ! A57   A(29,28,31)           107.8425                                         !
 ! A58   A(30,28,31)           107.7902                                         !
 ! A59   A(26,32,33)           111.0492                                         !
 ! A60   A(26,32,34)           112.4819                                         !
 ! A61   A(26,32,35)           110.5497                                         !
 ! A62   A(33,32,34)           108.1056                                         !
 ! A63   A(33,32,35)           107.4191                                         !
 ! A64   A(34,32,35)           107.0135                                         !
 ! A65   A(21,36,37)           117.3062                                         !
 ! A66   A(21,36,38)           123.103                                          !
 ! A67   A(37,36,38)           112.0995                                         !
 ! A68   A(36,38,39)           108.5813                                         !
 ! A69   A(36,38,40)           106.6008                                         !
 ! A70   A(36,38,41)           113.8303                                         !
 ! A71   A(39,38,40)           108.4308                                         !
 ! A72   A(39,38,41)           108.9063                                         !
 ! A73   A(40,38,41)           110.3438                                         !
 ! A74   A(38,40,44)           123.9271                                         !
 ! A75   A(38,40,60)           111.8432                                         !
 ! A76   A(44,40,60)           124.2197                                         !
 ! A77   A(38,41,42)           108.2745                                         !
 ! A78   A(38,41,43)           107.5289                                         !
 ! A79   A(38,41,45)           113.0869                                         !
 ! A80   A(42,41,43)           106.5294                                         !
 ! A81   A(42,41,45)           109.8865                                         !
 ! A82   A(43,41,45)           111.2694                                         !
 ! A83   A(41,45,46)           109.9314                                         !
 ! A84   A(41,45,47)           108.8675                                         !
 ! A85   A(41,45,48)           114.8741                                         !
 ! A86   A(46,45,47)           105.6221                                         !
 ! A87   A(46,45,48)           106.7184                                         !
 ! A88   A(47,45,48)           110.4164                                         !
 ! A89   A(45,48,49)           110.655                                          !
 ! A90   A(45,48,50)           110.6258                                         !
 ! A91   A(45,48,51)           114.3635                                         !
 ! A92   A(49,48,50)           106.6146                                         !
 ! A93   A(49,48,51)           108.2328                                         !
 ! A94   A(50,48,51)           105.9616                                         !
 ! A95   A(48,51,52)           117.3669                                         !
 ! A96   A(48,51,59)           124.838                                          !
 ! A97   A(52,51,59)           116.6124                                         !
 ! A98   A(54,53,55)           114.776                                          !
 ! A99   A(54,53,59)           114.979                                          !
 ! A100  A(55,53,59)           118.9373                                         !
 ! A101  A(57,56,58)           119.9496                                         !
 ! A102  A(57,56,59)           117.6373                                         !
 ! A103  A(58,56,59)           122.0165                                         !
 ! A104  A(51,59,53)           121.1585                                         !
 ! A105  A(51,59,56)           120.7026                                         !
 ! A106  A(53,59,56)           118.0792                                         !
 ! A107  A(40,60,61)           107.6966                                         !
 ! D1    D(2,1,4,5)             50.6019                                         !
 ! D2    D(2,1,4,6)            -67.2628                                         !
 ! D3    D(2,1,4,7)            168.488                                          !
 ! D4    D(3,1,4,5)            166.5856                                         !
 ! D5    D(3,1,4,6)             48.7209                                         !
 ! D6    D(3,1,4,7)            -75.5282                                         !
 ! D7    D(1,4,6,10)           -17.1305                                         !
 ! D8    D(1,4,6,17)           163.3266                                         !
 ! D9    D(5,4,6,10)          -135.5836                                         !
 ! D10   D(5,4,6,17)            44.8735                                         !
 ! D11   D(7,4,6,10)           107.4793                                         !
 ! D12   D(7,4,6,17)           -72.0636                                         !
 ! D13   D(1,4,7,8)            141.7154                                         !
 ! D14   D(1,4,7,9)             24.4849                                         !
 ! D15   D(1,4,7,11)           -95.2653                                         !
 ! D16   D(5,4,7,8)           -101.0903                                         !
 ! D17   D(5,4,7,9)            141.6792                                         !
 ! D18   D(5,4,7,11)            21.9291                                         !
 ! D19   D(6,4,7,8)             14.4768                                         !
 ! D20   D(6,4,7,9)           -102.7538                                         !
 ! D21   D(6,4,7,11)           137.4961                                         !
 ! D22   D(4,6,17,18)            6.4124                                         !
 ! D23   D(4,6,17,19)          173.6839                                         !
 ! D24   D(10,6,17,18)        -173.1165                                         !
 ! D25   D(10,6,17,19)          -5.845                                          !
 ! D26   D(4,7,11,12)           51.4112                                         !
 ! D27   D(4,7,11,13)          168.838                                          !
 ! D28   D(4,7,11,14)          -69.9908                                         !
 ! D29   D(8,7,11,12)          175.3263                                         !
 ! D30   D(8,7,11,13)          -67.247                                          !
 ! D31   D(8,7,11,14)           53.9242                                         !
 ! D32   D(9,7,11,12)          -67.774                                          !
 ! D33   D(9,7,11,13)           49.6527                                         !
 ! D34   D(9,7,11,14)          170.8239                                         !
 ! D35   D(7,11,14,15)           5.3963                                         !
 ! D36   D(7,11,14,16)        -174.7876                                         !
 ! D37   D(12,11,14,15)       -117.4569                                         !
 ! D38   D(12,11,14,16)         62.3592                                         !
 ! D39   D(13,11,14,15)        128.6977                                         !
 ! D40   D(13,11,14,16)        -51.4862                                         !
 ! D41   D(11,14,16,62)       -179.4307                                         !
 ! D42   D(15,14,16,62)          0.3937                                         !
 ! D43   D(6,17,19,20)          39.083                                          !
 ! D44   D(6,17,19,21)         -78.4438                                         !
 ! D45   D(6,17,19,22)         158.7265                                         !
 ! D46   D(18,17,19,20)       -153.8567                                         !
 ! D47   D(18,17,19,21)         88.6165                                         !
 ! D48   D(18,17,19,22)        -34.2132                                         !
 ! D49   D(17,19,21,25)         -8.266                                          !
 ! D50   D(17,19,21,36)        170.533                                          !
 ! D51   D(20,19,21,25)       -126.0743                                         !
 ! D52   D(20,19,21,36)         52.7248                                         !
 ! D53   D(22,19,21,25)        113.7227                                         !
 ! D54   D(22,19,21,36)        -67.4782                                         !
 ! D55   D(17,19,22,23)        175.5538                                         !
 ! D56   D(17,19,22,24)         60.828                                          !
 ! D57   D(17,19,22,26)        -61.675                                          !
 ! D58   D(20,19,22,23)        -65.9962                                         !
 ! D59   D(20,19,22,24)        179.2781                                         !
 ! D60   D(20,19,22,26)         56.775                                          !
 ! D61   D(21,19,22,23)         52.7737                                         !
 ! D62   D(21,19,22,24)        -61.9521                                         !
 ! D63   D(21,19,22,26)        175.5449                                         !
 ! D64   D(19,21,36,37)         11.1812                                         !
 ! D65   D(19,21,36,38)        158.5361                                         !
 ! D66   D(25,21,36,37)       -170.0216                                         !
 ! D67   D(25,21,36,38)        -22.6667                                         !
 ! D68   D(19,22,26,27)         57.2361                                         !
 ! D69   D(19,22,26,28)        174.396                                          !
 ! D70   D(19,22,26,32)        -61.995                                          !
 ! D71   D(23,22,26,27)       -179.7759                                         !
 ! D72   D(23,22,26,28)        -62.6161                                         !
 ! D73   D(23,22,26,32)         60.993                                          !
 ! D74   D(24,22,26,27)        -64.4576                                         !
 ! D75   D(24,22,26,28)         52.7022                                         !
 ! D76   D(24,22,26,32)        176.3113                                         !
 ! D77   D(22,26,28,29)         62.879                                          !
 ! D78   D(22,26,28,30)       -177.5106                                         !
 ! D79   D(22,26,28,31)        -57.4522                                         !
 ! D80   D(27,26,28,29)       -179.8229                                         !
 ! D81   D(27,26,28,30)        -60.2125                                         !
 ! D82   D(27,26,28,31)         59.8459                                         !
 ! D83   D(32,26,28,29)        -61.664                                          !
 ! D84   D(32,26,28,30)         57.9464                                         !
 ! D85   D(32,26,28,31)        178.0048                                         !
 ! D86   D(22,26,32,33)        -58.8894                                         !
 ! D87   D(22,26,32,34)         62.4191                                         !
 ! D88   D(22,26,32,35)       -178.0218                                         !
 ! D89   D(27,26,32,33)       -178.0742                                         !
 ! D90   D(27,26,32,34)        -56.7657                                         !
 ! D91   D(27,26,32,35)         62.7934                                         !
 ! D92   D(28,26,32,33)         63.9487                                         !
 ! D93   D(28,26,32,34)       -174.7428                                         !
 ! D94   D(28,26,32,35)        -55.1836                                         !
 ! D95   D(21,36,38,39)        -14.3                                            !
 ! D96   D(21,36,38,40)       -130.9331                                         !
 ! D97   D(21,36,38,41)        107.1787                                         !
 ! D98   D(37,36,38,39)        134.5466                                         !
 ! D99   D(37,36,38,40)         17.9134                                         !
 ! D100  D(37,36,38,41)       -103.9747                                         !
 ! D101  D(36,38,40,44)        -10.5355                                         !
 ! D102  D(36,38,40,60)        170.5744                                         !
 ! D103  D(39,38,40,44)       -127.2689                                         !
 ! D104  D(39,38,40,60)         53.841                                          !
 ! D105  D(41,38,40,44)        113.5334                                         !
 ! D106  D(41,38,40,60)        -65.3567                                         !
 ! D107  D(36,38,41,42)        165.1116                                         !
 ! D108  D(36,38,41,43)         50.3709                                         !
 ! D109  D(36,38,41,45)        -72.8711                                         !
 ! D110  D(39,38,41,42)        -73.5904                                         !
 ! D111  D(39,38,41,43)        171.6689                                         !
 ! D112  D(39,38,41,45)         48.4269                                         !
 ! D113  D(40,38,41,42)         45.3182                                         !
 ! D114  D(40,38,41,43)        -69.4225                                         !
 ! D115  D(40,38,41,45)        167.3355                                         !
 ! D116  D(38,40,60,61)        179.1232                                         !
 ! D117  D(44,40,60,61)          0.2369                                         !
 ! D118  D(38,41,45,46)       -110.8465                                         !
 ! D119  D(38,41,45,47)          4.4076                                         !
 ! D120  D(38,41,45,48)        128.7952                                         !
 ! D121  D(42,41,45,46)         10.2631                                         !
 ! D122  D(42,41,45,47)        125.5173                                         !
 ! D123  D(42,41,45,48)       -110.0952                                         !
 ! D124  D(43,41,45,46)        128.004                                          !
 ! D125  D(43,41,45,47)       -116.7418                                         !
 ! D126  D(43,41,45,48)          7.6457                                         !
 ! D127  D(41,45,48,49)        179.2                                            !
 ! D128  D(41,45,48,50)         61.27                                           !
 ! D129  D(41,45,48,51)        -58.2679                                         !
 ! D130  D(46,45,48,49)         57.0868                                         !
 ! D131  D(46,45,48,50)        -60.8432                                         !
 ! D132  D(46,45,48,51)        179.6188                                         !
 ! D133  D(47,45,48,49)        -57.2328                                         !
 ! D134  D(47,45,48,50)       -175.1627                                         !
 ! D135  D(47,45,48,51)         65.2993                                         !
 ! D136  D(45,48,51,52)         96.0275                                         !
 ! D137  D(45,48,51,59)        -71.086                                          !
 ! D138  D(49,48,51,52)       -140.1329                                         !
 ! D139  D(49,48,51,59)         52.7536                                         !
 ! D140  D(50,48,51,52)        -26.095                                          !
 ! D141  D(50,48,51,59)        166.7915                                         !
 ! D142  D(48,51,59,53)         -6.2889                                         !
 ! D143  D(48,51,59,56)        176.5745                                         !
 ! D144  D(52,51,59,53)       -173.49                                           !
 ! D145  D(52,51,59,56)          9.3734                                         !
 ! D146  D(54,53,59,51)        170.6365                                         !
 ! D147  D(54,53,59,56)        -12.1539                                         !
 ! D148  D(55,53,59,51)         28.8385                                         !
 ! D149  D(55,53,59,56)       -153.9518                                         !
 ! D150  D(57,56,59,51)       -164.3389                                         !
 ! D151  D(57,56,59,53)         18.4382                                         !
 ! D152  D(58,56,59,51)          8.4234                                         !
 ! D153  D(58,56,59,53)       -168.7995                                         !
 --------------------------------------------------------------------------------
 Symmetry turned off by external request.
 Stoichiometry    C17H33N6O6(1+)
 Framework group  C1[X(C17H33N6O6)]
 Deg. of freedom   180
 Full point group                 C1      NOp   1
                          Input orientation:                          
 ---------------------------------------------------------------------
 Center     Atomic      Atomic             Coordinates (Angstroms)
 Number     Number       Type             X           Y           Z
 ---------------------------------------------------------------------
      1          7           0       -2.633936    1.263476   -4.441082
      2          1           0       -3.527791    1.454660   -3.991593
      3          1           0       -2.180349    2.169839   -4.550288
      4          6           0       -1.816059    0.409622   -3.596675
      5          1           0       -2.432620   -0.447294   -3.305205
      6          6           0       -1.338062    1.063755   -2.285138
      7          6           0       -0.585526   -0.117454   -4.394777
      8          1           0        0.308243   -0.148418   -3.762444
      9          1           0       -0.387324    0.590924   -5.206151
     10          8           0       -1.364182    2.303445   -2.129639
     11          6           0       -0.826268   -1.500715   -5.001312
     12          1           0       -1.763242   -1.517179   -5.573271
     13          1           0       -0.037459   -1.768126   -5.714473
     14          6           0       -0.890818   -2.595081   -3.957045
     15          8           0       -0.862756   -2.433653   -2.745792
     16          8           0       -0.989890   -3.812250   -4.509784
     17          7           0       -0.895023    0.199004   -1.357814
     18          1           0       -0.826891   -0.776906   -1.655674
     19          6           0       -0.274441    0.563174   -0.098428
     20          1           0       -0.801457    1.438112    0.297320
     21          6           0        1.208833    0.967565   -0.308800
     22          6           0       -0.391406   -0.616420    0.896212
     23          1           0        0.148368   -0.365487    1.818088
     24          1           0        0.135935   -1.477135    0.461456
     25          8           0        1.792489    0.827888   -1.379353
     26          6           0       -1.832251   -1.030734    1.261592
     27          1           0       -2.360048   -1.282976    0.331594
     28          6           0       -1.795141   -2.291934    2.138228
     29          1           0       -1.279736   -2.098677    3.087583
     30          1           0       -2.809124   -2.631638    2.374652
     31          1           0       -1.274942   -3.115138    1.635194
     32          6           0       -2.606685    0.096779    1.959661
     33          1           0       -2.100061    0.411003    2.881794
     34          1           0       -2.729365    0.979386    1.320492
     35          1           0       -3.611176   -0.240752    2.236156
     36          7           0        1.799955    1.517467    0.797867
     37          1           0        1.295102    1.451204    1.677708
     38          6           0        3.248861    1.551401    0.995971
     39          1           0        3.715243    0.865340    0.280294
     40          6           0        3.509356    1.026229    2.410085
     41          6           0        3.872071    2.959783    0.820870
     42          1           0        4.881885    2.942575    1.240625
     43          1           0        3.289985    3.657661    1.436221
     44          8           0        2.638928    0.840085    3.234218
     45          6           0        3.923425    3.421524   -0.655735
     46          1           0        4.962918    3.450986   -1.002070
     47          1           0        3.426115    2.670934   -1.278975
     48          6           0        3.329414    4.816759   -0.918753
     49          1           0        3.414008    5.079182   -1.979058
     50          1           0        3.879514    5.580507   -0.362885
     51          7           0        1.920331    4.961825   -0.519484
     52          1           0        1.734038    5.359913    0.390003
     53          7           0        1.051849    3.722742   -2.299582
     54          1           0        0.232642    3.201161   -2.620425
     55          1           0        1.937594    3.270326   -2.476190
     56          7           0       -0.363130    4.523612   -0.674322
     57          1           0       -1.076462    3.886601   -1.031661
     58          1           0       -0.581523    5.148150    0.087217
     59          6           0        0.882727    4.391361   -1.149662
     60          8           0        4.815195    0.820701    2.633165
     61          1           0        4.913038    0.501688    3.551655
     62          1           0       -1.035904   -4.463430   -3.783279
 ---------------------------------------------------------------------
 Rotational constants (GHZ):           0.1857223           0.1073766           0.0893842
 Standard basis: 6-31G(d) (6D, 7F)
   501 basis functions,   944 primitive gaussians,   501 cartesian basis functions
   112 alpha electrons      112 beta electrons
       nuclear repulsion energy      3153.4758672442 Hartrees.
 NAtoms=   62 NActive=   62 NUniq=   62 SFac= 1.00D+00 NAtFMM=   60 NAOKFM=T Big=T
 Integral buffers will be    131072 words long.
 Raffenetti 2 integral format.
 Two-electron integral symmetry is turned off.
 One-electron integrals computed using PRISM.
 NBasis=   501 RedAO= T EigKep=  2.00D-03  NBF=   501
 NBsUse=   501 1.00D-06 EigRej= -1.00D+00 NBFU=   501
 Initial guess from the checkpoint file:  "conf-669.chk"
 B after Tr=     0.000000    0.000000    0.000000
         Rot=    1.000000    0.000000    0.000000    0.000000 Ang=   0.00 deg.
 Requested convergence on RMS density matrix=1.00D-08 within 128 cycles.
 Requested convergence on MAX density matrix=1.00D-06.
 Requested convergence on             energy=1.00D-06.
 No special actions if energy rises.
 SCF Done:  E(RB3LYP) =  -1447.44038406     A.U. after    1 cycles
            NFock=  1  Conv=0.10D-07     -V/T= 2.0094

 **********************************************************************

            Population analysis using the SCF Density.

 **********************************************************************

 Alpha  occ. eigenvalues --  -19.31024 -19.28949 -19.25703 -19.24181 -19.23791
 Alpha  occ. eigenvalues --  -19.23524 -14.51720 -14.50183 -14.49406 -14.47317
 Alpha  occ. eigenvalues --  -14.46418 -14.40478 -10.46988 -10.43640 -10.42017
 Alpha  occ. eigenvalues --  -10.40296 -10.39579 -10.36151 -10.35626 -10.34387
 Alpha  occ. eigenvalues --  -10.31876 -10.31196 -10.31081 -10.29151 -10.28967
 Alpha  occ. eigenvalues --  -10.28413 -10.27928 -10.25941 -10.25182  -1.22142
 Alpha  occ. eigenvalues --   -1.20241  -1.15843  -1.15220  -1.14331  -1.13283
 Alpha  occ. eigenvalues --   -1.11113  -1.05461  -1.03994  -1.03472  -1.03088
 Alpha  occ. eigenvalues --   -0.98057  -0.92372  -0.90604  -0.88441  -0.87800
 Alpha  occ. eigenvalues --   -0.84872  -0.81305  -0.79967  -0.77572  -0.76741
 Alpha  occ. eigenvalues --   -0.75524  -0.74553  -0.73920  -0.72633  -0.71239
 Alpha  occ. eigenvalues --   -0.69503  -0.69040  -0.68146  -0.67507  -0.65720
 Alpha  occ. eigenvalues --   -0.64267  -0.63639  -0.62963  -0.61586  -0.60855
 Alpha  occ. eigenvalues --   -0.60268  -0.59678  -0.59521  -0.59067  -0.58754
 Alpha  occ. eigenvalues --   -0.58248  -0.57850  -0.57273  -0.56307  -0.55887
 Alpha  occ. eigenvalues --   -0.55097  -0.54851  -0.53927  -0.53732  -0.53140
 Alpha  occ. eigenvalues --   -0.52621  -0.51893  -0.51402  -0.51066  -0.50551
 Alpha  occ. eigenvalues --   -0.49918  -0.49552  -0.48863  -0.48103  -0.47617
 Alpha  occ. eigenvalues --   -0.47247  -0.46619  -0.46517  -0.46434  -0.45891
 Alpha  occ. eigenvalues --   -0.45087  -0.44974  -0.43357  -0.43144  -0.42048
 Alpha  occ. eigenvalues --   -0.41642  -0.41456  -0.41336  -0.41212  -0.40450
 Alpha  occ. eigenvalues --   -0.39335  -0.38242  -0.37592  -0.37497  -0.37397
 Alpha  occ. eigenvalues --   -0.35921  -0.33086
 Alpha virt. eigenvalues --   -0.11708  -0.10623  -0.09414  -0.09310  -0.08692
 Alpha virt. eigenvalues --   -0.07348  -0.03939  -0.02900  -0.02782  -0.01934
 Alpha virt. eigenvalues --   -0.01082  -0.00666   0.00339   0.01136   0.01184
 Alpha virt. eigenvalues --    0.01652   0.02668   0.02818   0.03186   0.03398
 Alpha virt. eigenvalues --    0.04136   0.04624   0.04762   0.05061   0.05770
 Alpha virt. eigenvalues --    0.06176   0.06661   0.06832   0.07359   0.07575
 Alpha virt. eigenvalues --    0.08255   0.08560   0.09216   0.09374   0.09494
 Alpha virt. eigenvalues --    0.09573   0.10467   0.11071   0.11121   0.11792
 Alpha virt. eigenvalues --    0.11996   0.12498   0.13318   0.13334   0.13657
 Alpha virt. eigenvalues --    0.14340   0.14721   0.15491   0.15886   0.16212
 Alpha virt. eigenvalues --    0.17283   0.17927   0.18832   0.18894   0.19625
 Alpha virt. eigenvalues --    0.20418   0.22037   0.22680   0.24412   0.24938
 Alpha virt. eigenvalues --    0.26663   0.27280   0.27649   0.29829   0.31545
 Alpha virt. eigenvalues --    0.31797   0.34090   0.37849   0.38525   0.39766
 Alpha virt. eigenvalues --    0.40262   0.40766   0.41497   0.42942   0.43277
 Alpha virt. eigenvalues --    0.43514   0.44084   0.44227   0.44933   0.45142
 Alpha virt. eigenvalues --    0.46138   0.46260   0.46940   0.47542   0.47920
 Alpha virt. eigenvalues --    0.48745   0.49064   0.49851   0.50771   0.51005
 Alpha virt. eigenvalues --    0.51965   0.52674   0.53134   0.53831   0.54580
 Alpha virt. eigenvalues --    0.54654   0.55271   0.55448   0.55948   0.56417
 Alpha virt. eigenvalues --    0.56597   0.57077   0.57742   0.58985   0.59502
 Alpha virt. eigenvalues --    0.59827   0.60685   0.60960   0.63074   0.63436
 Alpha virt. eigenvalues --    0.64112   0.64726   0.64918   0.66017   0.66094
 Alpha virt. eigenvalues --    0.67686   0.68414   0.68726   0.69158   0.70411
 Alpha virt. eigenvalues --    0.70536   0.70962   0.71353   0.72347   0.72742
 Alpha virt. eigenvalues --    0.73795   0.73850   0.74572   0.75067   0.75269
 Alpha virt. eigenvalues --    0.75692   0.75991   0.76660   0.77361   0.77692
 Alpha virt. eigenvalues --    0.77876   0.78694   0.78818   0.79296   0.79963
 Alpha virt. eigenvalues --    0.80184   0.80610   0.80871   0.81626   0.81992
 Alpha virt. eigenvalues --    0.82393   0.82751   0.83106   0.83631   0.84056
 Alpha virt. eigenvalues --    0.84260   0.84631   0.84795   0.85565   0.86269
 Alpha virt. eigenvalues --    0.86513   0.86842   0.87260   0.87813   0.88442
 Alpha virt. eigenvalues --    0.88942   0.89854   0.89972   0.90864   0.91533
 Alpha virt. eigenvalues --    0.92713   0.92831   0.94408   0.94527   0.95539
 Alpha virt. eigenvalues --    0.97187   0.97728   0.98177   0.99212   1.00120
 Alpha virt. eigenvalues --    1.01993   1.03141   1.03705   1.04646   1.05487
 Alpha virt. eigenvalues --    1.05699   1.07020   1.07508   1.09323   1.10196
 Alpha virt. eigenvalues --    1.11120   1.12552   1.12846   1.15664   1.16712
 Alpha virt. eigenvalues --    1.17426   1.20065   1.21175   1.22110   1.23251
 Alpha virt. eigenvalues --    1.23863   1.25750   1.26878   1.28754   1.28881
 Alpha virt. eigenvalues --    1.29456   1.29851   1.30364   1.31810   1.33186
 Alpha virt. eigenvalues --    1.34962   1.35515   1.36541   1.37161   1.37676
 Alpha virt. eigenvalues --    1.38881   1.40679   1.41899   1.42936   1.44891
 Alpha virt. eigenvalues --    1.45196   1.48057   1.49491   1.50573   1.50776
 Alpha virt. eigenvalues --    1.52992   1.53203   1.54819   1.56781   1.57023
 Alpha virt. eigenvalues --    1.57480   1.58662   1.59265   1.60312   1.61363
 Alpha virt. eigenvalues --    1.61510   1.62327   1.63337   1.64094   1.64993
 Alpha virt. eigenvalues --    1.65790   1.66821   1.67039   1.68229   1.69013
 Alpha virt. eigenvalues --    1.69293   1.69649   1.69939   1.70559   1.71370
 Alpha virt. eigenvalues --    1.71593   1.72148   1.72762   1.73567   1.73786
 Alpha virt. eigenvalues --    1.74671   1.75570   1.76708   1.77047   1.78021
 Alpha virt. eigenvalues --    1.78860   1.79467   1.80736   1.82358   1.82979
 Alpha virt. eigenvalues --    1.83800   1.84377   1.84596   1.85147   1.85498
 Alpha virt. eigenvalues --    1.87057   1.87718   1.88502   1.88923   1.89061
 Alpha virt. eigenvalues --    1.90690   1.92000   1.92669   1.93533   1.93878
 Alpha virt. eigenvalues --    1.94974   1.95168   1.96860   1.97786   1.98297
 Alpha virt. eigenvalues --    1.98978   1.99931   2.01938   2.02679   2.02885
 Alpha virt. eigenvalues --    2.03796   2.04577   2.05961   2.07442   2.09388
 Alpha virt. eigenvalues --    2.12052   2.12279   2.13659   2.15301   2.16444
 Alpha virt. eigenvalues --    2.16766   2.18108   2.19460   2.20328   2.21817
 Alpha virt. eigenvalues --    2.22228   2.22624   2.23304   2.24154   2.25536
 Alpha virt. eigenvalues --    2.25950   2.26549   2.28759   2.30251   2.30893
 Alpha virt. eigenvalues --    2.32774   2.33687   2.33781   2.34063   2.35313
 Alpha virt. eigenvalues --    2.36723   2.37632   2.37892   2.38018   2.39015
 Alpha virt. eigenvalues --    2.42211   2.42616   2.43611   2.44628   2.45270
 Alpha virt. eigenvalues --    2.46404   2.46969   2.48335   2.49756   2.50747
 Alpha virt. eigenvalues --    2.52015   2.54826   2.55088   2.55493   2.57422
 Alpha virt. eigenvalues --    2.58181   2.59159   2.61076   2.62019   2.64085
 Alpha virt. eigenvalues --    2.65212   2.67347   2.68386   2.69294   2.73656
 Alpha virt. eigenvalues --    2.74540   2.75169   2.79506   2.81903   2.85510
 Alpha virt. eigenvalues --    2.87883   2.88367   2.91141   2.93044   2.95415
 Alpha virt. eigenvalues --    2.96264   2.98756   3.00627   3.05367   3.08706
 Alpha virt. eigenvalues --    3.69597   3.72070   3.74430   3.75327   3.79481
 Alpha virt. eigenvalues --    3.87340   3.89474   3.98961   4.00474   4.02393
 Alpha virt. eigenvalues --    4.07304   4.08024   4.08706   4.10768   4.13876
 Alpha virt. eigenvalues --    4.17290   4.20195   4.21109   4.23185   4.27244
 Alpha virt. eigenvalues --    4.27378   4.35668   4.42079   4.44982   4.45968
 Alpha virt. eigenvalues --    4.47324   4.52691   4.54275   4.60037
          Condensed to atoms (all electrons):
 Mulliken charges:
               1
     1  N   -0.690992
     2  H    0.313225
     3  H    0.304495
     4  C   -0.089350
     5  H    0.172196
     6  C    0.584258
     7  C   -0.276186
     8  H    0.175852
     9  H    0.163740
    10  O   -0.602267
    11  C   -0.366453
    12  H    0.214274
    13  H    0.198890
    14  C    0.596809
    15  O   -0.492724
    16  O   -0.541951
    17  N   -0.584093
    18  H    0.406716
    19  C   -0.070748
    20  H    0.166346
    21  C    0.612175
    22  C   -0.305545
    23  H    0.156244
    24  H    0.162621
    25  O   -0.530643
    26  C   -0.069811
    27  H    0.139934
    28  C   -0.448808
    29  H    0.151069
    30  H    0.160255
    31  H    0.151587
    32  C   -0.456218
    33  H    0.145985
    34  H    0.136192
    35  H    0.166873
    36  N   -0.609219
    37  H    0.358211
    38  C   -0.060295
    39  H    0.211268
    40  C    0.585206
    41  C   -0.267411
    42  H    0.192857
    43  H    0.135185
    44  O   -0.459468
    45  C   -0.305739
    46  H    0.182771
    47  H    0.183738
    48  C   -0.184431
    49  H    0.196590
    50  H    0.192870
    51  N   -0.590600
    52  H    0.356203
    53  N   -0.754218
    54  H    0.402390
    55  H    0.379041
    56  N   -0.785915
    57  H    0.417964
    58  H    0.365660
    59  C    0.795254
    60  O   -0.551177
    61  H    0.434974
    62  H    0.424343
 Sum of Mulliken charges =   1.00000
 Mulliken charges with hydrogens summed into heavy atoms:
               1
     1  N   -0.073272
     4  C    0.082846
     6  C    0.584258
     7  C    0.063407
    10  O   -0.602267
    11  C    0.046710
    14  C    0.596809
    15  O   -0.492724
    16  O   -0.117608
    17  N   -0.177377
    19  C    0.095598
    21  C    0.612175
    22  C    0.013320
    25  O   -0.530643
    26  C    0.070123
    28  C    0.014102
    32  C   -0.007167
    36  N   -0.251008
    38  C    0.150973
    40  C    0.585206
    41  C    0.060632
    44  O   -0.459468
    45  C    0.060771
    48  C    0.205029
    51  N   -0.234398
    53  N    0.027213
    56  N   -0.002290
    59  C    0.795254
    60  O   -0.116203
 Electronic spatial extent (au):  <R**2>=          14638.8902
 Charge=              1.0000 electrons
 Dipole moment (field-independent basis, Debye):
    X=              5.4658    Y=             11.1803    Z=             -1.8718  Tot=             12.5848
 Quadrupole moment (field-independent basis, Debye-Ang):
   XX=           -130.0584   YY=            -91.2975   ZZ=           -146.8915
   XY=             27.3720   XZ=              9.4990   YZ=              6.1190
 Traceless Quadrupole moment (field-independent basis, Debye-Ang):
   XX=             -7.3093   YY=             31.4516   ZZ=            -24.1424
   XY=             27.3720   XZ=              9.4990   YZ=              6.1190
 Octapole moment (field-independent basis, Debye-Ang**2):
  XXX=           -108.8355  YYY=           -232.1660  ZZZ=            397.7853  XYY=             13.9055
  XXY=            -68.9743  XXZ=            195.9216  XZZ=            -20.9521  YZZ=           -174.5999
  YYZ=            115.0484  XYZ=            -16.1561
 Hexadecapole moment (field-independent basis, Debye-Ang**3):
 XXXX=          -4568.8486 YYYY=          -4583.3987 ZZZZ=          -6451.1183 XXXY=          -1172.6577
 XXXZ=           -591.2365 YYYX=           -951.5054 YYYZ=            236.0081 ZZZX=           -857.9178
 ZZZY=            -15.6566 XXYY=          -1509.8860 XXZZ=          -1703.7079 YYZZ=          -2043.4828
 XXYZ=            -66.9013 YYXZ=           -300.6483 ZZXY=           -431.5021
 N-N= 3.153475867244D+03 E-N=-9.657041502865D+03  KE= 1.433982181183D+03
 Unable to Open any file for archive entry.
 1\1\GINC-VIM-002\SP\RB3LYP\6-31G(d)\C17H33N6O6(1+)\KENGMITH\24-May-202
 2\0\\# B3LYP/6-31G* guess=read geom=check nosymm integral(ultrafinegri
 d)\\Candidate Structure: Conf:669 Charge calc in gas phase\\1,1\N,0,-2
 .6339361541,1.2634758946,-4.4410824411\H,0,-3.5277908691,1.4546603779,
 -3.9915933896\H,0,-2.1803487406,2.1698385164,-4.5502876338\C,0,-1.8160
 589954,0.4096224286,-3.5966747126\H,0,-2.4326201479,-0.4472942122,-3.3
 052052972\C,0,-1.338062169,1.0637546675,-2.2851382651\C,0,-0.585526066
 1,-0.1174540137,-4.3947765555\H,0,0.3082425429,-0.148418143,-3.7624438
 832\H,0,-0.3873243695,0.5909235087,-5.2061509669\O,0,-1.3641816294,2.3
 034449257,-2.1296391052\C,0,-0.826267791,-1.5007153531,-5.0013117517\H
 ,0,-1.7632416971,-1.5171789361,-5.5732711859\H,0,-0.0374594181,-1.7681
 256823,-5.7144729534\C,0,-0.8908181541,-2.5950806651,-3.9570448265\O,0
 ,-0.8627555335,-2.4336529694,-2.7457919789\O,0,-0.9898898057,-3.812249
 8504,-4.5097844751\N,0,-0.8950231312,0.1990036638,-1.3578142332\H,0,-0
 .8268906808,-0.7769061308,-1.6556744069\C,0,-0.2744409335,0.5631738841
 ,-0.0984282893\H,0,-0.801456776,1.4381121051,0.2973200224\C,0,1.208833
 3164,0.9675649496,-0.3088001875\C,0,-0.3914062225,-0.6164204588,0.8962
 120175\H,0,0.148368259,-0.3654874195,1.8180878609\H,0,0.1359346276,-1.
 4771353859,0.4614559145\O,0,1.7924892886,0.8278876475,-1.3793527259\C,
 0,-1.8322513928,-1.0307344659,1.2615919392\H,0,-2.3600475147,-1.282976
 4373,0.3315936912\C,0,-1.7951405551,-2.2919344254,2.138228493\H,0,-1.2
 797358299,-2.0986768667,3.0875830125\H,0,-2.8091244027,-2.6316381851,2
 .3746524441\H,0,-1.2749422448,-3.1151376996,1.6351944222\C,0,-2.606684
 8018,0.0967791988,1.9596607497\H,0,-2.1000608036,0.411003229,2.8817941
 393\H,0,-2.7293653901,0.9793855596,1.3204918361\H,0,-3.6111763183,-0.2
 407523118,2.2361560889\N,0,1.7999547442,1.5174672803,0.7978674537\H,0,
 1.2951021068,1.4512035276,1.6777080136\C,0,3.2488609091,1.5514006952,0
 .9959708409\H,0,3.7152430051,0.8653395876,0.2802941656\C,0,3.509356014
 9,1.0262285709,2.4100846491\C,0,3.8720713792,2.9597826962,0.8208703524
 \H,0,4.881884701,2.9425746302,1.2406249362\H,0,3.2899853061,3.65766064
 84,1.4362212262\O,0,2.6389280618,0.8400853017,3.2342175271\C,0,3.92342
 52235,3.421523982,-0.6557352122\H,0,4.9629175451,3.4509864912,-1.00207
 04036\H,0,3.4261146738,2.6709342596,-1.2789752164\C,0,3.3294143116,4.8
 1675891,-0.9187529484\H,0,3.4140082869,5.079181543,-1.9790579292\H,0,3
 .8795141966,5.5805071343,-0.3628846551\N,0,1.9203309319,4.9618252176,-
 0.5194843759\H,0,1.7340382442,5.3599128694,0.3900034225\N,0,1.05184880
 16,3.7227423561,-2.2995823417\H,0,0.2326423683,3.2011610814,-2.6204251
 83\H,0,1.9375944133,3.2703255351,-2.4761902703\N,0,-0.3631298876,4.523
 6123597,-0.6743215036\H,0,-1.0764624428,3.8866008673,-1.0316613268\H,0
 ,-0.5815227572,5.1481499799,0.0872171942\C,0,0.8827266673,4.3913614375
 ,-1.1496624186\O,0,4.8151946734,0.8207014833,2.6331650239\H,0,4.913037
 6931,0.501688006,3.5516553932\H,0,-1.0359039675,-4.463430216,-3.783279
 3107\\Version=ES64L-G16RevC.01\HF=-1447.4403841\RMSD=9.956e-09\Dipole=
 1.2469874,2.6000085,0.8856209\Quadrupole=-5.4342586,23.3835132,-17.949
 2546,20.3504256,7.0622712,4.5493093\PG=C01 [X(C17H33N6O6)]\\@
 The archive entry for this job was punched.


 If your ship doesn't come in, swim out to it!
                          -- Jonathan Winters
 Job cpu time:       0 days  0 hours  1 minutes 27.7 seconds.
 Elapsed time:       0 days  0 hours  0 minutes 22.4 seconds.
 File lengths (MBytes):  RWF=    248 Int=      0 D2E=      0 Chk=     32 Scr=     16
 Normal termination of Gaussian 16 at Tue May 24 03:40:29 2022.
