 Entering Gaussian System, Link 0=/opt/software/Gaussian/g16-AVX2-C.01/g16/g16
 Input=charge-conf-205.com
 Output=charge-conf-205.log
 Initial command:
 /opt/software/Gaussian/g16-AVX2-C.01/g16/l1.exe "/mnt/gs18/scratch/users/kengmith/Gau-61151.inp" -scrdir="/mnt/gs18/scratch/users/kengmith/"
 Entering Link 1 = /opt/software/Gaussian/g16-AVX2-C.01/g16/l1.exe PID=     61161.
  
 Copyright (c) 1988-2019, Gaussian, Inc.  All Rights Reserved.
  
 This is part of the Gaussian(R) 16 program.  It is based on
 the Gaussian(R) 09 system (copyright 2009, Gaussian, Inc.),
 the Gaussian(R) 03 system (copyright 2003, Gaussian, Inc.),
 the Gaussian(R) 98 system (copyright 1998, Gaussian, Inc.),
 the Gaussian(R) 94 system (copyright 1995, Gaussian, Inc.),
 the Gaussian 92(TM) system (copyright 1992, Gaussian, Inc.),
 the Gaussian 90(TM) system (copyright 1990, Gaussian, Inc.),
 the Gaussian 88(TM) system (copyright 1988, Gaussian, Inc.),
 the Gaussian 86(TM) system (copyright 1986, Carnegie Mellon
 University), and the Gaussian 82(TM) system (copyright 1983,
 Carnegie Mellon University). Gaussian is a federally registered
 trademark of Gaussian, Inc.
  
 This software contains proprietary and confidential information,
 including trade secrets, belonging to Gaussian, Inc.
  
 This software is provided under written license and may be
 used, copied, transmitted, or stored only in accord with that
 written license.
  
 The following legend is applicable only to US Government
 contracts under FAR:
  
                    RESTRICTED RIGHTS LEGEND
  
 Use, reproduction and disclosure by the US Government is
 subject to restrictions as set forth in subparagraphs (a)
 and (c) of the Commercial Computer Software - Restricted
 Rights clause in FAR 52.227-19.
  
 Gaussian, Inc.
 340 Quinnipiac St., Bldg. 40, Wallingford CT 06492
  
  
 ---------------------------------------------------------------
 Warning -- This program may not be used in any manner that
 competes with the business of Gaussian, Inc. or will provide
 assistance to any competitor of Gaussian, Inc.  The licensee
 of this program is prohibited from giving any competitor of
 Gaussian, Inc. access to this program.  By using this program,
 the user acknowledges that Gaussian, Inc. is engaged in the
 business of creating and licensing software in the field of
 computational chemistry and represents and warrants to the
 licensee that it is not a competitor of Gaussian, Inc. and that
 it will not use this program in any manner prohibited above.
 ---------------------------------------------------------------
  

 Cite this work as:
 Gaussian 16, Revision C.01,
 M. J. Frisch, G. W. Trucks, H. B. Schlegel, G. E. Scuseria, 
 M. A. Robb, J. R. Cheeseman, G. Scalmani, V. Barone, 
 G. A. Petersson, H. Nakatsuji, X. Li, M. Caricato, A. V. Marenich, 
 J. Bloino, B. G. Janesko, R. Gomperts, B. Mennucci, H. P. Hratchian, 
 J. V. Ortiz, A. F. Izmaylov, J. L. Sonnenberg, D. Williams-Young, 
 F. Ding, F. Lipparini, F. Egidi, J. Goings, B. Peng, A. Petrone, 
 T. Henderson, D. Ranasinghe, V. G. Zakrzewski, J. Gao, N. Rega, 
 G. Zheng, W. Liang, M. Hada, M. Ehara, K. Toyota, R. Fukuda, 
 J. Hasegawa, M. Ishida, T. Nakajima, Y. Honda, O. Kitao, H. Nakai, 
 T. Vreven, K. Throssell, J. A. Montgomery, Jr., J. E. Peralta, 
 F. Ogliaro, M. J. Bearpark, J. J. Heyd, E. N. Brothers, K. N. Kudin, 
 V. N. Staroverov, T. A. Keith, R. Kobayashi, J. Normand, 
 K. Raghavachari, A. P. Rendell, J. C. Burant, S. S. Iyengar, 
 J. Tomasi, M. Cossi, J. M. Millam, M. Klene, C. Adamo, R. Cammi, 
 J. W. Ochterski, R. L. Martin, K. Morokuma, O. Farkas, 
 J. B. Foresman, and D. J. Fox, Gaussian, Inc., Wallingford CT, 2019.
 
 ******************************************
 Gaussian 16:  ES64L-G16RevC.01  3-Jul-2019
                21-Jul-2022 
 ******************************************
 %mem=8gb
 %nproc=4
 Will use up to    4 processors via shared memory.
 %chk=conf-205.chk
 ----------------------------------------------------------------------
 # B3LYP/6-31G* empiricaldispersion=gd3bj guess=read geom=check nosymm 
 integral(ultrafinegrid)
 ----------------------------------------------------------------------
 1/29=2,38=1,172=1/1;
 2/12=2,15=1,40=1/2;
 3/5=1,6=6,7=1,11=2,14=-4,25=1,30=1,74=-5,75=-5,116=-2,124=41/1,2,3;
 4/5=1/1;
 5/5=2,38=6/2;
 6/7=2,8=2,9=2,10=2,28=1/1;
 99/5=1,9=1/99;
 ------------------------------------------------------
 Candidate Structure: Conf:205 Charge calc in gas phase
 ------------------------------------------------------
 Structure from the checkpoint file:  "conf-205.chk"
 Charge =  1 Multiplicity = 1
 Redundant internal coordinates found in file.  (old form).
 N,0,-4.7888705437,0.9700173511,4.4261757774
 H,0,-5.7710254193,0.7184448749,4.5296369885
 H,0,-4.5918158469,1.6548988791,5.1567935705
 C,0,-4.6423023149,1.5991913032,3.1096872848
 H,0,-5.1491961087,0.9364603968,2.3969419399
 C,0,-3.1726485122,1.6202527649,2.6829397457
 C,0,-5.2711928796,2.9889549603,2.9650489378
 H,0,-4.8731242855,3.6668929899,3.7329887524
 H,0,-4.9927115215,3.4209319538,1.9975046181
 O,0,-2.7603710263,2.3256921792,1.7522595036
 C,0,-6.7917380718,2.9091012182,3.0957375773
 N,0,-7.4467501757,4.0905718122,2.9432577045
 H,0,-8.4565488017,4.0895417062,2.9863462345
 H,0,-6.9760802713,4.9403094448,2.6706942018
 O,0,-7.3780146132,1.8575226968,3.332837763
 N,0,-2.3828724316,0.7745245469,3.3808878948
 H,0,-2.8607266315,0.2144496218,4.0834594755
 C,0,-0.951634421,0.6739354813,3.1363339384
 H,0,-0.6119171531,1.681757726,2.8694963646
 C,0,-0.743548614,-0.2324199072,1.90714143
 C,0,-0.1599992678,0.1779356737,4.3551292466
 H,0,-0.3853271553,-0.8893238404,4.4822928021
 O,0,-0.4161381094,-1.4282836252,1.9874961219
 C,0,-0.5596747296,0.9258218645,5.6397893082
 H,0,-1.636546822,0.814965721,5.808685099
 H,0,-0.3837486613,2.001122797,5.4950355469
 C,0,1.3420020509,0.3323989091,4.0633183617
 H,0,1.6365515901,1.3877557604,4.1067284581
 H,0,1.946424905,-0.2114915834,4.794902514
 H,0,1.60233854,-0.0353317033,3.0654335931
 C,0,0.1832344325,0.4420534047,6.8883564143
 H,0,-0.2033175469,0.9393441982,7.7834138595
 H,0,0.0568643426,-0.6385133146,7.0280164784
 H,0,1.2564461232,0.6512180818,6.8357231144
 N,0,-0.9816859453,0.3729157408,0.731994142
 H,0,-1.4233748582,1.2948846412,0.772449683
 C,0,-0.9182008376,-0.3282174978,-0.5360625699
 H,0,-1.7430134611,-1.051091927,-0.6053703398
 C,0,0.4066837252,-1.0806958334,-0.6671769909
 C,0,-1.0090065064,0.6896573403,-1.6824514691
 H,0,-0.8907534417,0.2108260394,-2.6585186884
 H,0,-1.9762229777,1.2011520836,-1.6528244015
 H,0,-0.2131464586,1.4322293185,-1.5697755051
 O,0,1.4867808134,-0.5762945086,-0.3235968343
 N,0,0.330672967,-2.2868483766,-1.2724757244
 H,0,-0.5786738595,-2.6263379482,-1.559537924
 C,0,1.5089210775,-2.9687076891,-1.8004811201
 H,0,2.3756597483,-2.5306953638,-1.3037866077
 C,0,1.6780940942,-2.6386796557,-3.2956632032
 C,0,1.4871121179,-4.4729776762,-1.5199848855
 H,0,0.6564503579,-4.9348260778,-2.0692201656
 O,0,1.7442556274,-3.5031460745,-4.1682940583
 C,0,2.7984748434,-5.1589035773,-1.8834577451
 H,0,2.9397774915,-5.1482430209,-2.9642385559
 H,0,2.7807557545,-6.2028166609,-1.5482829038
 H,0,3.6437823637,-4.6467663183,-1.4137402627
 O,0,1.2265381712,-4.5961656763,-0.101059781
 H,0,1.2266721423,-5.5404874246,0.1205315772
 N,0,1.728689354,-1.3076256886,-3.5448421558
 H,0,1.9277039617,-0.6997155281,-2.7563508134
 C,0,2.1278997685,-0.7976447723,-4.8581237623
 H,0,1.7124393726,-1.479341091,-5.6031494871
 C,0,3.6662271064,-0.8222670756,-4.8680884109
 C,0,1.5864904957,0.6060858222,-5.072765595
 H,0,1.9179847447,0.9559338615,-6.05960088
 H,0,2.0191615799,1.28318433,-4.3231893644
 O,0,4.3371801764,0.1674465395,-4.6068189599
 O,0,0.1684815964,0.5398474832,-4.9792082424
 H,0,-0.1842358092,1.4086840828,-5.2234491996
 N,0,4.2099071833,-2.0658262877,-5.0554097177
 H,0,3.5525004035,-2.8407012651,-5.0336667165
 C,0,5.5161027752,-2.300949793,-4.4762289769
 H,0,5.8213671175,-3.3283799203,-4.6967782185
 H,0,6.247986923,-1.6246276477,-4.9248549342
 C,0,5.4671056927,-2.0954115159,-2.9510251465
 O,0,4.4127269913,-2.2127878207,-2.3199234662
 N,0,6.6358142378,-1.8044577378,-2.3452688602
 H,0,7.471526183,-1.5944985394,-2.8811791349
 C,0,6.666789994,-1.4027101603,-0.9483488565
 H,0,5.99735462,-0.5400871003,-0.8189975525
 C,0,8.0726575407,-0.9008372502,-0.6632443269
 C,0,6.2089498931,-2.5154598975,0.0391551644
 H,0,5.9601114924,-3.4031909693,-0.5477812277
 H,0,7.0288406917,-2.7906143755,0.7105152498
 O,0,8.9653716869,-0.8525911145,-1.4796425585
 C,0,4.991020743,-2.0743418951,0.8560479323
 H,0,5.2689064327,-1.2253940734,1.4952170346
 H,0,4.2379339264,-1.7114268177,0.1468046281
 C,0,4.4232767068,-3.2004255617,1.7260820655
 H,0,5.1826654479,-3.5404531017,2.4403260306
 H,0,4.1741427482,-4.0697888356,1.1016745644
 C,0,3.1867232609,-2.7944390183,2.5258239468
 H,0,2.8759631379,-3.5861335459,3.2122398426
 H,0,3.3646528178,-1.8868646256,3.1087026233
 N,0,2.0269112381,-2.5213054701,1.62319281
 H,0,1.1583818838,-2.2141391633,2.1065979117
 H,0,1.7721928859,-3.3555264685,1.0515964424
 H,0,2.2036526892,-1.7561137559,0.9451578285
 O,0,8.1982925602,-0.4960655543,0.6142079711
 H,0,9.1138212999,-0.1746965813,0.7237537913
 Recover connectivity data from disk.
                           ----------------------------
                           !    Current Parameters    !
                           ! (Angstroms and Degrees)  !
 --------------------------                            --------------------------
 ! Name  Definition              Value                                          !
 --------------------------------------------------------------------------------
 ! R1    R(1,2)                  1.0191                                         !
 ! R2    R(1,3)                  1.0206                                         !
 ! R3    R(1,4)                  1.4665                                         !
 ! R4    R(4,5)                  1.0973                                         !
 ! R5    R(4,6)                  1.5305                                         !
 ! R6    R(4,7)                  1.5323                                         !
 ! R7    R(6,10)                 1.2385                                         !
 ! R8    R(6,16)                 1.3513                                         !
 ! R9    R(7,8)                  1.099                                          !
 ! R10   R(7,9)                  1.0956                                         !
 ! R11   R(7,11)                 1.5282                                         !
 ! R12   R(11,12)                1.3595                                         !
 ! R13   R(11,15)                1.2271                                         !
 ! R14   R(12,13)                1.0107                                         !
 ! R15   R(12,14)                1.0089                                         !
 ! R16   R(16,17)                1.0177                                         !
 ! R17   R(16,18)                1.4555                                         !
 ! R18   R(18,19)                1.0965                                         !
 ! R19   R(18,20)                1.5413                                         !
 ! R20   R(18,21)                1.5356                                         !
 ! R21   R(20,23)                1.2425                                         !
 ! R22   R(20,35)                1.3432                                         !
 ! R23   R(21,22)                1.0982                                         !
 ! R24   R(21,24)                1.5393                                         !
 ! R25   R(21,27)                1.5379                                         !
 ! R26   R(24,25)                1.0957                                         !
 ! R27   R(24,26)                1.0992                                         !
 ! R28   R(24,31)                1.5313                                         !
 ! R29   R(27,28)                1.0966                                         !
 ! R30   R(27,29)                1.0938                                         !
 ! R31   R(27,30)                1.0949                                         !
 ! R32   R(31,32)                1.0945                                         !
 ! R33   R(31,33)                1.0969                                         !
 ! R34   R(31,34)                1.0947                                         !
 ! R35   R(35,36)                1.0231                                         !
 ! R36   R(35,37)                1.4504                                         !
 ! R37   R(37,38)                1.0989                                         !
 ! R38   R(37,39)                1.5293                                         !
 ! R39   R(37,40)                1.5357                                         !
 ! R40   R(39,44)                1.2406                                         !
 ! R41   R(39,45)                1.3517                                         !
 ! R42   R(40,41)                1.0936                                         !
 ! R43   R(40,42)                1.0945                                         !
 ! R44   R(40,43)                1.0943                                         !
 ! R45   R(45,46)                1.0122                                         !
 ! R46   R(45,47)                1.4601                                         !
 ! R47   R(47,48)                1.0908                                         !
 ! R48   R(47,49)                1.5405                                         !
 ! R49   R(47,50)                1.5304                                         !
 ! R50   R(49,52)                1.2301                                         !
 ! R51   R(49,59)                1.3551                                         !
 ! R52   R(50,51)                1.0977                                         !
 ! R53   R(50,53)                1.5239                                         !
 ! R54   R(50,57)                1.4479                                         !
 ! R55   R(53,54)                1.09                                           !
 ! R56   R(53,55)                1.0965                                         !
 ! R57   R(53,56)                1.0943                                         !
 ! R58   R(57,58)                0.97                                           !
 ! R59   R(59,60)                1.0153                                         !
 ! R60   R(59,61)                1.4643                                         !
 ! R61   R(61,62)                1.092                                          !
 ! R62   R(61,63)                1.5386                                         !
 ! R63   R(61,64)                1.5198                                         !
 ! R64   R(63,67)                1.2239                                         !
 ! R65   R(63,70)                1.3701                                         !
 ! R66   R(64,65)                1.0982                                         !
 ! R67   R(64,66)                1.0989                                         !
 ! R68   R(64,68)                1.4226                                         !
 ! R69   R(68,69)                0.969                                          !
 ! R70   R(70,71)                1.0164                                         !
 ! R71   R(70,72)                1.4481                                         !
 ! R72   R(72,73)                1.0943                                         !
 ! R73   R(72,74)                1.0929                                         !
 ! R74   R(72,75)                1.5398                                         !
 ! R75   R(75,76)                1.2344                                         !
 ! R76   R(75,77)                1.3481                                         !
 ! R77   R(77,78)                1.0147                                         !
 ! R78   R(77,79)                1.4539                                         !
 ! R79   R(79,80)                1.0995                                         !
 ! R80   R(79,81)                1.5197                                         !
 ! R81   R(79,82)                1.5566                                         !
 ! R82   R(81,85)                1.2107                                         !
 ! R83   R(81,99)                1.3459                                         !
 ! R84   R(82,83)                1.0929                                         !
 ! R85   R(82,84)                1.0948                                         !
 ! R86   R(82,86)                1.5314                                         !
 ! R87   R(86,87)                1.0984                                         !
 ! R88   R(86,88)                1.0963                                         !
 ! R89   R(86,89)                1.5321                                         !
 ! R90   R(89,90)                1.0966                                         !
 ! R91   R(89,91)                1.099                                          !
 ! R92   R(89,92)                1.5276                                         !
 ! R93   R(92,93)                1.0929                                         !
 ! R94   R(92,94)                1.0932                                         !
 ! R95   R(92,95)                1.4948                                         !
 ! R96   R(95,96)                1.0404                                         !
 ! R97   R(95,97)                1.0428                                         !
 ! R98   R(95,98)                1.0375                                         !
 ! R99   R(99,100)               0.9765                                         !
 ! A1    A(2,1,3)              106.2029                                         !
 ! A2    A(2,1,4)              107.0598                                         !
 ! A3    A(3,1,4)              109.5993                                         !
 ! A4    A(1,4,5)              106.1296                                         !
 ! A5    A(1,4,6)              110.6215                                         !
 ! A6    A(1,4,7)              115.6493                                         !
 ! A7    A(5,4,6)              105.7101                                         !
 ! A8    A(5,4,7)              107.2698                                         !
 ! A9    A(6,4,7)              110.8125                                         !
 ! A10   A(4,6,10)             122.4819                                         !
 ! A11   A(4,6,16)             114.1156                                         !
 ! A12   A(10,6,16)            123.371                                          !
 ! A13   A(4,7,8)              110.1742                                         !
 ! A14   A(4,7,9)              109.6733                                         !
 ! A15   A(4,7,11)             110.6647                                         !
 ! A16   A(8,7,9)              106.3681                                         !
 ! A17   A(8,7,11)             109.4428                                         !
 ! A18   A(9,7,11)             110.428                                          !
 ! A19   A(7,11,12)            115.1118                                         !
 ! A20   A(7,11,15)            122.4575                                         !
 ! A21   A(12,11,15)           122.4276                                         !
 ! A22   A(11,12,13)           118.4055                                         !
 ! A23   A(11,12,14)           122.513                                          !
 ! A24   A(13,12,14)           118.5855                                         !
 ! A25   A(6,16,17)            115.2504                                         !
 ! A26   A(6,16,18)            122.0853                                         !
 ! A27   A(17,16,18)           122.664                                          !
 ! A28   A(16,18,19)           106.3814                                         !
 ! A29   A(16,18,20)           107.9023                                         !
 ! A30   A(16,18,21)           113.3219                                         !
 ! A31   A(19,18,20)           107.7329                                         !
 ! A32   A(19,18,21)           109.287                                          !
 ! A33   A(20,18,21)           111.9267                                         !
 ! A34   A(18,20,23)           123.3653                                         !
 ! A35   A(18,20,35)           114.1281                                         !
 ! A36   A(23,20,35)           122.4845                                         !
 ! A37   A(18,21,22)           107.4595                                         !
 ! A38   A(18,21,24)           111.8145                                         !
 ! A39   A(18,21,27)           108.69                                           !
 ! A40   A(22,21,24)           108.8002                                         !
 ! A41   A(22,21,27)           108.662                                          !
 ! A42   A(24,21,27)           111.2941                                         !
 ! A43   A(21,24,25)           109.5536                                         !
 ! A44   A(21,24,26)           108.8957                                         !
 ! A45   A(21,24,31)           113.6422                                         !
 ! A46   A(25,24,26)           106.0568                                         !
 ! A47   A(25,24,31)           108.6133                                         !
 ! A48   A(26,24,31)           109.8031                                         !
 ! A49   A(21,27,28)           110.5795                                         !
 ! A50   A(21,27,29)           111.2755                                         !
 ! A51   A(21,27,30)           111.8042                                         !
 ! A52   A(28,27,29)           107.6777                                         !
 ! A53   A(28,27,30)           107.1849                                         !
 ! A54   A(29,27,30)           108.1313                                         !
 ! A55   A(24,31,32)           110.6046                                         !
 ! A56   A(24,31,33)           111.0481                                         !
 ! A57   A(24,31,34)           112.0906                                         !
 ! A58   A(32,31,33)           107.6259                                         !
 ! A59   A(32,31,34)           107.3836                                         !
 ! A60   A(33,31,34)           107.8973                                         !
 ! A61   A(20,35,36)           116.6199                                         !
 ! A62   A(20,35,37)           122.6361                                         !
 ! A63   A(36,35,37)           119.2811                                         !
 ! A64   A(35,37,38)           109.8936                                         !
 ! A65   A(35,37,39)           110.5326                                         !
 ! A66   A(35,37,40)           109.2473                                         !
 ! A67   A(38,37,39)           108.7333                                         !
 ! A68   A(38,37,40)           110.1525                                         !
 ! A69   A(39,37,40)           108.261                                          !
 ! A70   A(37,39,44)           122.0365                                         !
 ! A71   A(37,39,45)           115.3884                                         !
 ! A72   A(44,39,45)           122.3979                                         !
 ! A73   A(37,40,41)           111.6939                                         !
 ! A74   A(37,40,42)           109.9851                                         !
 ! A75   A(37,40,43)           109.2621                                         !
 ! A76   A(41,40,42)           108.9247                                         !
 ! A77   A(41,40,43)           108.0816                                         !
 ! A78   A(42,40,43)           108.831                                          !
 ! A79   A(39,45,46)           118.4774                                         !
 ! A80   A(39,45,47)           122.227                                          !
 ! A81   A(46,45,47)           117.7597                                         !
 ! A82   A(45,47,48)           106.7992                                         !
 ! A83   A(45,47,49)           109.8495                                         !
 ! A84   A(45,47,50)           112.4108                                         !
 ! A85   A(48,47,49)           105.5855                                         !
 ! A86   A(48,47,50)           108.8189                                         !
 ! A87   A(49,47,50)           112.9574                                         !
 ! A88   A(47,49,52)           122.9482                                         !
 ! A89   A(47,49,59)           113.1414                                         !
 ! A90   A(52,49,59)           123.9055                                         !
 ! A91   A(47,50,51)           109.4293                                         !
 ! A92   A(47,50,53)           112.7344                                         !
 ! A93   A(47,50,57)           105.4154                                         !
 ! A94   A(51,50,53)           110.027                                          !
 ! A95   A(51,50,57)           108.5633                                         !
 ! A96   A(53,50,57)           110.5064                                         !
 ! A97   A(50,53,54)           110.0988                                         !
 ! A98   A(50,53,55)           109.9803                                         !
 ! A99   A(50,53,56)           110.5912                                         !
 ! A100  A(54,53,55)           108.3292                                         !
 ! A101  A(54,53,56)           108.7167                                         !
 ! A102  A(55,53,56)           109.0761                                         !
 ! A103  A(50,57,58)           107.8595                                         !
 ! A104  A(49,59,60)           116.912                                          !
 ! A105  A(49,59,61)           121.1437                                         !
 ! A106  A(60,59,61)           115.7558                                         !
 ! A107  A(59,61,62)           106.9038                                         !
 ! A108  A(59,61,63)           105.8324                                         !
 ! A109  A(59,61,64)           110.5628                                         !
 ! A110  A(62,61,63)           111.4695                                         !
 ! A111  A(62,61,64)           110.1648                                         !
 ! A112  A(63,61,64)           111.7194                                         !
 ! A113  A(61,63,67)           122.2623                                         !
 ! A114  A(61,63,70)           114.3416                                         !
 ! A115  A(67,63,70)           123.0668                                         !
 ! A116  A(61,64,65)           108.277                                          !
 ! A117  A(61,64,66)           109.422                                          !
 ! A118  A(61,64,68)           107.6256                                         !
 ! A119  A(65,64,66)           107.3258                                         !
 ! A120  A(65,64,68)           112.011                                          !
 ! A121  A(66,64,68)           112.104                                          !
 ! A122  A(64,68,69)           107.7279                                         !
 ! A123  A(63,70,71)           115.6185                                         !
 ! A124  A(63,70,72)           116.7847                                         !
 ! A125  A(71,70,72)           116.8133                                         !
 ! A126  A(70,72,73)           108.8731                                         !
 ! A127  A(70,72,74)           109.8412                                         !
 ! A128  A(70,72,75)           110.2311                                         !
 ! A129  A(73,72,74)           108.1493                                         !
 ! A130  A(73,72,75)           109.5026                                         !
 ! A131  A(74,72,75)           110.2017                                         !
 ! A132  A(72,75,76)           121.3931                                         !
 ! A133  A(72,75,77)           116.5066                                         !
 ! A134  A(76,75,77)           122.0913                                         !
 ! A135  A(75,77,78)           121.4204                                         !
 ! A136  A(75,77,79)           120.6528                                         !
 ! A137  A(78,77,79)           115.64                                           !
 ! A138  A(77,79,80)           108.4725                                         !
 ! A139  A(77,79,81)           106.9307                                         !
 ! A140  A(77,79,82)           113.9378                                         !
 ! A141  A(80,79,81)           106.3833                                         !
 ! A142  A(80,79,82)           107.8859                                         !
 ! A143  A(81,79,82)           112.9015                                         !
 ! A144  A(79,81,85)           124.6641                                         !
 ! A145  A(79,81,99)           111.3289                                         !
 ! A146  A(85,81,99)           124.0009                                         !
 ! A147  A(79,82,83)           107.8738                                         !
 ! A148  A(79,82,84)           110.3903                                         !
 ! A149  A(79,82,86)           111.4943                                         !
 ! A150  A(83,82,84)           107.1984                                         !
 ! A151  A(83,82,86)           109.8377                                         !
 ! A152  A(84,82,86)           109.9298                                         !
 ! A153  A(82,86,87)           109.3799                                         !
 ! A154  A(82,86,88)           107.252                                          !
 ! A155  A(82,86,89)           112.7002                                         !
 ! A156  A(87,86,88)           107.1213                                         !
 ! A157  A(87,86,89)           109.3522                                         !
 ! A158  A(88,86,89)           110.8629                                         !
 ! A159  A(86,89,90)           109.9481                                         !
 ! A160  A(86,89,91)           110.0467                                         !
 ! A161  A(86,89,92)           113.6987                                         !
 ! A162  A(90,89,91)           106.3661                                         !
 ! A163  A(90,89,92)           107.5774                                         !
 ! A164  A(91,89,92)           108.9168                                         !
 ! A165  A(89,92,93)           111.497                                          !
 ! A166  A(89,92,94)           111.5943                                         !
 ! A167  A(89,92,95)           111.1309                                         !
 ! A168  A(93,92,94)           108.2271                                         !
 ! A169  A(93,92,95)           106.9168                                         !
 ! A170  A(94,92,95)           107.2502                                         !
 ! A171  A(92,95,96)           114.9043                                         !
 ! A172  A(92,95,97)           111.9821                                         !
 ! A173  A(92,95,98)           113.403                                          !
 ! A174  A(96,95,97)           106.6755                                         !
 ! A175  A(96,95,98)           103.1859                                         !
 ! A176  A(97,95,98)           105.8655                                         !
 ! A177  A(81,99,100)          107.0363                                         !
 ! D1    D(2,1,4,5)            -48.3926                                         !
 ! D2    D(2,1,4,6)           -162.5966                                         !
 ! D3    D(2,1,4,7)             70.4027                                         !
 ! D4    D(3,1,4,5)           -163.1705                                         !
 ! D5    D(3,1,4,6)             82.6255                                         !
 ! D6    D(3,1,4,7)            -44.3752                                         !
 ! D7    D(1,4,6,10)          -165.1533                                         !
 ! D8    D(1,4,6,16)            16.8272                                         !
 ! D9    D(5,4,6,10)            80.3782                                         !
 ! D10   D(5,4,6,16)           -97.6413                                         !
 ! D11   D(7,4,6,10)           -35.524                                          !
 ! D12   D(7,4,6,16)           146.4565                                         !
 ! D13   D(1,4,7,8)             55.7907                                         !
 ! D14   D(1,4,7,9)            172.5472                                         !
 ! D15   D(1,4,7,11)           -65.3796                                         !
 ! D16   D(5,4,7,8)            173.9554                                         !
 ! D17   D(5,4,7,9)            -69.288                                          !
 ! D18   D(5,4,7,11)            52.7851                                         !
 ! D19   D(6,4,7,8)            -71.114                                          !
 ! D20   D(6,4,7,9)             45.6425                                         !
 ! D21   D(6,4,7,11)           167.7157                                         !
 ! D22   D(4,6,16,17)            1.4433                                         !
 ! D23   D(4,6,16,18)         -178.7594                                         !
 ! D24   D(10,6,16,17)        -176.5562                                         !
 ! D25   D(10,6,16,18)           3.2412                                         !
 ! D26   D(4,7,11,12)         -178.2081                                         !
 ! D27   D(4,7,11,15)            2.4135                                         !
 ! D28   D(8,7,11,12)           60.1897                                         !
 ! D29   D(8,7,11,15)         -119.1886                                         !
 ! D30   D(9,7,11,12)          -56.5783                                         !
 ! D31   D(9,7,11,15)          124.0433                                         !
 ! D32   D(7,11,12,13)         177.7971                                         !
 ! D33   D(7,11,12,14)           5.997                                          !
 ! D34   D(15,11,12,13)         -2.8244                                         !
 ! D35   D(15,11,12,14)       -174.6244                                         !
 ! D36   D(6,16,18,19)          34.5309                                         !
 ! D37   D(6,16,18,20)         -80.8466                                         !
 ! D38   D(6,16,18,21)         154.6396                                         !
 ! D39   D(17,16,18,19)       -145.6868                                         !
 ! D40   D(17,16,18,20)         98.9356                                         !
 ! D41   D(17,16,18,21)        -25.5781                                         !
 ! D42   D(16,18,20,23)       -100.5653                                         !
 ! D43   D(16,18,20,35)         77.7583                                         !
 ! D44   D(19,18,20,23)        144.9492                                         !
 ! D45   D(19,18,20,35)        -36.7272                                         !
 ! D46   D(21,18,20,23)         24.781                                          !
 ! D47   D(21,18,20,35)       -156.8953                                         !
 ! D48   D(16,18,21,22)         71.8524                                         !
 ! D49   D(16,18,21,24)        -47.4739                                         !
 ! D50   D(16,18,21,27)       -170.7276                                         !
 ! D51   D(19,18,21,22)       -169.7067                                         !
 ! D52   D(19,18,21,24)         70.967                                          !
 ! D53   D(19,18,21,27)        -52.2866                                         !
 ! D54   D(20,18,21,22)        -50.4503                                         !
 ! D55   D(20,18,21,24)       -169.7766                                         !
 ! D56   D(20,18,21,27)         66.9697                                         !
 ! D57   D(18,20,35,36)        -10.2462                                         !
 ! D58   D(18,20,35,37)       -176.3264                                         !
 ! D59   D(23,20,35,36)        168.094                                          !
 ! D60   D(23,20,35,37)          2.0139                                         !
 ! D61   D(18,21,24,25)         57.0359                                         !
 ! D62   D(18,21,24,26)        -58.5465                                         !
 ! D63   D(18,21,24,31)        178.7196                                         !
 ! D64   D(22,21,24,25)        -61.4961                                         !
 ! D65   D(22,21,24,26)       -177.0785                                         !
 ! D66   D(22,21,24,31)         60.1876                                         !
 ! D67   D(27,21,24,25)        178.8028                                         !
 ! D68   D(27,21,24,26)         63.2204                                         !
 ! D69   D(27,21,24,31)        -59.5135                                         !
 ! D70   D(18,21,27,28)         73.383                                          !
 ! D71   D(18,21,27,29)       -166.9943                                         !
 ! D72   D(18,21,27,30)        -45.9656                                         !
 ! D73   D(22,21,27,28)       -169.9654                                         !
 ! D74   D(22,21,27,29)        -50.3427                                         !
 ! D75   D(22,21,27,30)         70.686                                          !
 ! D76   D(24,21,27,28)        -50.1823                                         !
 ! D77   D(24,21,27,29)         69.4405                                         !
 ! D78   D(24,21,27,30)       -169.5308                                         !
 ! D79   D(21,24,31,32)       -174.7432                                         !
 ! D80   D(21,24,31,33)        -55.3169                                         !
 ! D81   D(21,24,31,34)         65.4508                                         !
 ! D82   D(25,24,31,32)        -52.5379                                         !
 ! D83   D(25,24,31,33)         66.8885                                         !
 ! D84   D(25,24,31,34)       -172.3439                                         !
 ! D85   D(26,24,31,32)         63.0233                                         !
 ! D86   D(26,24,31,33)       -177.5504                                         !
 ! D87   D(26,24,31,34)        -56.7827                                         !
 ! D88   D(20,35,37,38)         68.3836                                         !
 ! D89   D(20,35,37,39)        -51.6327                                         !
 ! D90   D(20,35,37,40)       -170.6573                                         !
 ! D91   D(36,35,37,38)        -97.3419                                         !
 ! D92   D(36,35,37,39)        142.6419                                         !
 ! D93   D(36,35,37,40)         23.6172                                         !
 ! D94   D(35,37,39,44)        -42.3574                                         !
 ! D95   D(35,37,39,45)        142.3736                                         !
 ! D96   D(38,37,39,44)       -163.0678                                         !
 ! D97   D(38,37,39,45)         21.6632                                         !
 ! D98   D(40,37,39,44)         77.2634                                         !
 ! D99   D(40,37,39,45)        -98.0056                                         !
 ! D100  D(35,37,40,41)        175.7929                                         !
 ! D101  D(35,37,40,42)        -63.1366                                         !
 ! D102  D(35,37,40,43)         56.2641                                         !
 ! D103  D(38,37,40,41)        -63.4058                                         !
 ! D104  D(38,37,40,42)         57.6647                                         !
 ! D105  D(38,37,40,43)        177.0654                                         !
 ! D106  D(39,37,40,41)         55.3673                                         !
 ! D107  D(39,37,40,42)        176.4378                                         !
 ! D108  D(39,37,40,43)        -64.1614                                         !
 ! D109  D(37,39,45,46)         -2.4444                                         !
 ! D110  D(37,39,45,47)        163.0966                                         !
 ! D111  D(44,39,45,46)       -177.6945                                         !
 ! D112  D(44,39,45,47)        -12.1535                                         !
 ! D113  D(39,45,47,48)         19.9873                                         !
 ! D114  D(39,45,47,49)        -94.0521                                         !
 ! D115  D(39,45,47,50)        139.2614                                         !
 ! D116  D(46,45,47,48)       -174.373                                          !
 ! D117  D(46,45,47,49)         71.5875                                         !
 ! D118  D(46,45,47,50)        -55.099                                          !
 ! D119  D(45,47,49,52)       -124.1802                                         !
 ! D120  D(45,47,49,59)         55.0466                                         !
 ! D121  D(48,47,49,52)        121.0044                                         !
 ! D122  D(48,47,49,59)        -59.7688                                         !
 ! D123  D(50,47,49,52)          2.1979                                         !
 ! D124  D(50,47,49,59)       -178.5753                                         !
 ! D125  D(45,47,50,51)         65.6082                                         !
 ! D126  D(45,47,50,53)       -171.6037                                         !
 ! D127  D(45,47,50,57)        -50.971                                          !
 ! D128  D(48,47,50,51)       -176.3039                                         !
 ! D129  D(48,47,50,53)        -53.5158                                         !
 ! D130  D(48,47,50,57)         67.1169                                         !
 ! D131  D(49,47,50,51)        -59.3916                                         !
 ! D132  D(49,47,50,53)         63.3965                                         !
 ! D133  D(49,47,50,57)       -175.9708                                         !
 ! D134  D(47,49,59,60)         17.5389                                         !
 ! D135  D(47,49,59,61)        168.7146                                         !
 ! D136  D(52,49,59,60)       -163.2429                                         !
 ! D137  D(52,49,59,61)        -12.0672                                         !
 ! D138  D(47,50,53,54)        -67.8904                                         !
 ! D139  D(47,50,53,55)        172.8112                                         !
 ! D140  D(47,50,53,56)         52.2748                                         !
 ! D141  D(51,50,53,54)         54.5628                                         !
 ! D142  D(51,50,53,55)        -64.7356                                         !
 ! D143  D(51,50,53,56)        174.728                                          !
 ! D144  D(57,50,53,54)        174.4368                                         !
 ! D145  D(57,50,53,55)         55.1384                                         !
 ! D146  D(57,50,53,56)        -65.398                                          !
 ! D147  D(47,50,57,58)       -178.6418                                         !
 ! D148  D(51,50,57,58)         64.1907                                         !
 ! D149  D(53,50,57,58)        -56.5599                                         !
 ! D150  D(49,59,61,62)         37.1939                                         !
 ! D151  D(49,59,61,63)        -81.7397                                         !
 ! D152  D(49,59,61,64)        157.115                                          !
 ! D153  D(60,59,61,62)       -171.3176                                         !
 ! D154  D(60,59,61,63)         69.7488                                         !
 ! D155  D(60,59,61,64)        -51.3965                                         !
 ! D156  D(59,61,63,67)        -96.6352                                         !
 ! D157  D(59,61,63,70)         76.9611                                         !
 ! D158  D(62,61,63,67)        147.497                                          !
 ! D159  D(62,61,63,70)        -38.9068                                         !
 ! D160  D(64,61,63,67)         23.7589                                         !
 ! D161  D(64,61,63,70)       -162.6448                                         !
 ! D162  D(59,61,64,65)        179.2598                                         !
 ! D163  D(59,61,64,66)         62.5803                                         !
 ! D164  D(59,61,64,68)        -59.4703                                         !
 ! D165  D(62,61,64,65)        -62.7973                                         !
 ! D166  D(62,61,64,66)       -179.4769                                         !
 ! D167  D(62,61,64,68)         58.4726                                         !
 ! D168  D(63,61,64,65)         61.6733                                         !
 ! D169  D(63,61,64,66)        -55.0063                                         !
 ! D170  D(63,61,64,68)       -177.0568                                         !
 ! D171  D(61,63,70,71)         -8.3391                                         !
 ! D172  D(61,63,70,72)       -151.704                                          !
 ! D173  D(67,63,70,71)        165.199                                          !
 ! D174  D(67,63,70,72)         21.8341                                         !
 ! D175  D(61,64,68,69)       -173.1214                                         !
 ! D176  D(65,64,68,69)        -54.216                                          !
 ! D177  D(66,64,68,69)         66.5065                                         !
 ! D178  D(63,70,72,73)        179.639                                          !
 ! D179  D(63,70,72,74)        -62.111                                          !
 ! D180  D(63,70,72,75)         59.5062                                         !
 ! D181  D(71,70,72,73)         36.7152                                         !
 ! D182  D(71,70,72,74)        154.9652                                         !
 ! D183  D(71,70,72,75)        -83.4176                                         !
 ! D184  D(70,72,75,76)         24.1797                                         !
 ! D185  D(70,72,75,77)       -156.8942                                         !
 ! D186  D(73,72,75,76)        -95.5728                                         !
 ! D187  D(73,72,75,77)         83.3533                                         !
 ! D188  D(74,72,75,76)        145.5826                                         !
 ! D189  D(74,72,75,77)        -35.4913                                         !
 ! D190  D(72,75,77,78)          8.9428                                         !
 ! D191  D(72,75,77,79)        171.0193                                         !
 ! D192  D(76,75,77,78)       -172.1393                                         !
 ! D193  D(76,75,77,79)        -10.0628                                         !
 ! D194  D(75,77,79,80)        -55.0724                                         !
 ! D195  D(75,77,79,81)       -169.4374                                         !
 ! D196  D(75,77,79,82)         65.0984                                         !
 ! D197  D(78,77,79,80)        107.9915                                         !
 ! D198  D(78,77,79,81)         -6.3735                                         !
 ! D199  D(78,77,79,82)       -131.8377                                         !
 ! D200  D(77,79,81,85)          0.5207                                         !
 ! D201  D(77,79,81,99)        179.6539                                         !
 ! D202  D(80,79,81,85)       -115.2466                                         !
 ! D203  D(80,79,81,99)         63.8866                                         !
 ! D204  D(82,79,81,85)        126.6079                                         !
 ! D205  D(82,79,81,99)        -54.259                                          !
 ! D206  D(77,79,82,83)          0.577                                          !
 ! D207  D(77,79,82,84)        117.4051                                         !
 ! D208  D(77,79,82,86)       -120.101                                          !
 ! D209  D(80,79,82,83)        121.077                                          !
 ! D210  D(80,79,82,84)       -122.095                                          !
 ! D211  D(80,79,82,86)          0.399                                          !
 ! D212  D(81,79,82,83)       -121.6598                                         !
 ! D213  D(81,79,82,84)         -4.8317                                         !
 ! D214  D(81,79,82,86)        117.6622                                         !
 ! D215  D(79,81,99,100)      -179.0689                                         !
 ! D216  D(85,81,99,100)         0.0711                                         !
 ! D217  D(79,82,86,87)        -64.3933                                         !
 ! D218  D(79,82,86,88)         51.4568                                         !
 ! D219  D(79,82,86,89)        173.7417                                         !
 ! D220  D(83,82,86,87)        176.0858                                         !
 ! D221  D(83,82,86,88)        -68.064                                          !
 ! D222  D(83,82,86,89)         54.2208                                         !
 ! D223  D(84,82,86,87)         58.3648                                         !
 ! D224  D(84,82,86,88)        174.2149                                         !
 ! D225  D(84,82,86,89)        -63.5003                                         !
 ! D226  D(82,86,89,90)         60.7071                                         !
 ! D227  D(82,86,89,91)        -56.1346                                         !
 ! D228  D(82,86,89,92)       -178.6178                                         !
 ! D229  D(87,86,89,90)        -61.1736                                         !
 ! D230  D(87,86,89,91)       -178.0153                                         !
 ! D231  D(87,86,89,92)         59.5015                                         !
 ! D232  D(88,86,89,90)       -179.0636                                         !
 ! D233  D(88,86,89,91)         64.0948                                         !
 ! D234  D(88,86,89,92)        -58.3885                                         !
 ! D235  D(86,89,92,93)       -173.8856                                         !
 ! D236  D(86,89,92,94)        -52.7251                                         !
 ! D237  D(86,89,92,95)         66.9379                                         !
 ! D238  D(90,89,92,93)        -51.8878                                         !
 ! D239  D(90,89,92,94)         69.2727                                         !
 ! D240  D(90,89,92,95)       -171.0643                                         !
 ! D241  D(91,89,92,93)         63.0107                                         !
 ! D242  D(91,89,92,94)       -175.8288                                         !
 ! D243  D(91,89,92,95)        -56.1657                                         !
 ! D244  D(89,92,95,96)       -178.4203                                         !
 ! D245  D(89,92,95,97)         59.67                                           !
 ! D246  D(89,92,95,98)        -60.0621                                         !
 ! D247  D(93,92,95,96)         59.6967                                         !
 ! D248  D(93,92,95,97)        -62.213                                          !
 ! D249  D(93,92,95,98)        178.0548                                         !
 ! D250  D(94,92,95,96)        -56.2013                                         !
 ! D251  D(94,92,95,97)       -178.111                                          !
 ! D252  D(94,92,95,98)         62.1568                                         !
 --------------------------------------------------------------------------------
 Symmetry turned off by external request.
 Stoichiometry    C28H52N9O11(1+)
 Framework group  C1[X(C28H52N9O11)]
 Deg. of freedom   294
 Full point group                 C1      NOp   1
                          Input orientation:                          
 ---------------------------------------------------------------------
 Center     Atomic      Atomic             Coordinates (Angstroms)
 Number     Number       Type             X           Y           Z
 ---------------------------------------------------------------------
      1          7           0       -4.788871    0.970017    4.426176
      2          1           0       -5.771025    0.718445    4.529637
      3          1           0       -4.591816    1.654899    5.156794
      4          6           0       -4.642302    1.599191    3.109687
      5          1           0       -5.149196    0.936460    2.396942
      6          6           0       -3.172649    1.620253    2.682940
      7          6           0       -5.271193    2.988955    2.965049
      8          1           0       -4.873124    3.666893    3.732989
      9          1           0       -4.992712    3.420932    1.997505
     10          8           0       -2.760371    2.325692    1.752260
     11          6           0       -6.791738    2.909101    3.095738
     12          7           0       -7.446750    4.090572    2.943258
     13          1           0       -8.456549    4.089542    2.986346
     14          1           0       -6.976080    4.940309    2.670694
     15          8           0       -7.378015    1.857523    3.332838
     16          7           0       -2.382872    0.774525    3.380888
     17          1           0       -2.860727    0.214450    4.083459
     18          6           0       -0.951634    0.673935    3.136334
     19          1           0       -0.611917    1.681758    2.869496
     20          6           0       -0.743549   -0.232420    1.907141
     21          6           0       -0.159999    0.177936    4.355129
     22          1           0       -0.385327   -0.889324    4.482293
     23          8           0       -0.416138   -1.428284    1.987496
     24          6           0       -0.559675    0.925822    5.639789
     25          1           0       -1.636547    0.814966    5.808685
     26          1           0       -0.383749    2.001123    5.495036
     27          6           0        1.342002    0.332399    4.063318
     28          1           0        1.636552    1.387756    4.106728
     29          1           0        1.946425   -0.211492    4.794903
     30          1           0        1.602339   -0.035332    3.065434
     31          6           0        0.183234    0.442053    6.888356
     32          1           0       -0.203318    0.939344    7.783414
     33          1           0        0.056864   -0.638513    7.028016
     34          1           0        1.256446    0.651218    6.835723
     35          7           0       -0.981686    0.372916    0.731994
     36          1           0       -1.423375    1.294885    0.772450
     37          6           0       -0.918201   -0.328217   -0.536063
     38          1           0       -1.743013   -1.051092   -0.605370
     39          6           0        0.406684   -1.080696   -0.667177
     40          6           0       -1.009007    0.689657   -1.682451
     41          1           0       -0.890753    0.210826   -2.658519
     42          1           0       -1.976223    1.201152   -1.652824
     43          1           0       -0.213146    1.432229   -1.569776
     44          8           0        1.486781   -0.576295   -0.323597
     45          7           0        0.330673   -2.286848   -1.272476
     46          1           0       -0.578674   -2.626338   -1.559538
     47          6           0        1.508921   -2.968708   -1.800481
     48          1           0        2.375660   -2.530695   -1.303787
     49          6           0        1.678094   -2.638680   -3.295663
     50          6           0        1.487112   -4.472978   -1.519985
     51          1           0        0.656450   -4.934826   -2.069220
     52          8           0        1.744256   -3.503146   -4.168294
     53          6           0        2.798475   -5.158904   -1.883458
     54          1           0        2.939777   -5.148243   -2.964239
     55          1           0        2.780756   -6.202817   -1.548283
     56          1           0        3.643782   -4.646766   -1.413740
     57          8           0        1.226538   -4.596166   -0.101060
     58          1           0        1.226672   -5.540487    0.120532
     59          7           0        1.728689   -1.307626   -3.544842
     60          1           0        1.927704   -0.699716   -2.756351
     61          6           0        2.127900   -0.797645   -4.858124
     62          1           0        1.712439   -1.479341   -5.603149
     63          6           0        3.666227   -0.822267   -4.868088
     64          6           0        1.586490    0.606086   -5.072766
     65          1           0        1.917985    0.955934   -6.059601
     66          1           0        2.019162    1.283184   -4.323189
     67          8           0        4.337180    0.167447   -4.606819
     68          8           0        0.168482    0.539847   -4.979208
     69          1           0       -0.184236    1.408684   -5.223449
     70          7           0        4.209907   -2.065826   -5.055410
     71          1           0        3.552500   -2.840701   -5.033667
     72          6           0        5.516103   -2.300950   -4.476229
     73          1           0        5.821367   -3.328380   -4.696778
     74          1           0        6.247987   -1.624628   -4.924855
     75          6           0        5.467106   -2.095412   -2.951025
     76          8           0        4.412727   -2.212788   -2.319923
     77          7           0        6.635814   -1.804458   -2.345269
     78          1           0        7.471526   -1.594499   -2.881179
     79          6           0        6.666790   -1.402710   -0.948349
     80          1           0        5.997355   -0.540087   -0.818998
     81          6           0        8.072658   -0.900837   -0.663244
     82          6           0        6.208950   -2.515460    0.039155
     83          1           0        5.960111   -3.403191   -0.547781
     84          1           0        7.028841   -2.790614    0.710515
     85          8           0        8.965372   -0.852591   -1.479643
     86          6           0        4.991021   -2.074342    0.856048
     87          1           0        5.268906   -1.225394    1.495217
     88          1           0        4.237934   -1.711427    0.146805
     89          6           0        4.423277   -3.200426    1.726082
     90          1           0        5.182665   -3.540453    2.440326
     91          1           0        4.174143   -4.069789    1.101675
     92          6           0        3.186723   -2.794439    2.525824
     93          1           0        2.875963   -3.586134    3.212240
     94          1           0        3.364653   -1.886865    3.108703
     95          7           0        2.026911   -2.521305    1.623193
     96          1           0        1.158382   -2.214139    2.106598
     97          1           0        1.772193   -3.355526    1.051596
     98          1           0        2.203653   -1.756114    0.945158
     99          8           0        8.198293   -0.496066    0.614208
    100          1           0        9.113821   -0.174697    0.723754
 ---------------------------------------------------------------------
 Rotational constants (GHZ):           0.0895652           0.0301405           0.0261117
 Standard basis: 6-31G(d) (6D, 7F)
   824 basis functions,  1552 primitive gaussians,   824 cartesian basis functions
   185 alpha electrons      185 beta electrons
       nuclear repulsion energy      6915.4878865432 Hartrees.
 NAtoms=  100 NActive=  100 NUniq=  100 SFac= 1.00D+00 NAtFMM=   60 NAOKFM=T Big=T
 Integral buffers will be    131072 words long.
 Raffenetti 2 integral format.
 Two-electron integral symmetry is turned off.
 Nuclear repulsion after empirical dispersion term =     6915.2682353419 Hartrees.
 One-electron integrals computed using PRISM.
 NBasis=   824 RedAO= T EigKep=  1.45D-03  NBF=   824
 NBsUse=   824 1.00D-06 EigRej= -1.00D+00 NBFU=   824
 Initial guess from the checkpoint file:  "conf-205.chk"
 B after Tr=     0.000000    0.000000    0.000000
         Rot=    1.000000    0.000000    0.000000    0.000000 Ang=   0.00 deg.
 Requested convergence on RMS density matrix=1.00D-08 within 128 cycles.
 Requested convergence on MAX density matrix=1.00D-06.
 Requested convergence on             energy=1.00D-06.
 No special actions if energy rises.
 SCF Done:  E(RB3LYP) =  -2418.69613097     A.U. after    1 cycles
            NFock=  1  Conv=0.10D-07     -V/T= 2.0092

 **********************************************************************

            Population analysis using the SCF Density.

 **********************************************************************

 Alpha  occ. eigenvalues --  -19.29074 -19.27632 -19.23570 -19.23174 -19.22773
 Alpha  occ. eigenvalues --  -19.22510 -19.21543 -19.20952 -19.20325 -19.19637
 Alpha  occ. eigenvalues --  -19.18372 -14.51991 -14.47794 -14.45443 -14.45110
 Alpha  occ. eigenvalues --  -14.45034 -14.44425 -14.43178 -14.42587 -14.39728
 Alpha  occ. eigenvalues --  -10.41545 -10.40239 -10.38773 -10.38536 -10.37842
 Alpha  occ. eigenvalues --  -10.36937 -10.36375 -10.36118 -10.35137 -10.35042
 Alpha  occ. eigenvalues --  -10.33875 -10.33518 -10.33317 -10.32213 -10.31338
 Alpha  occ. eigenvalues --  -10.31314 -10.31228 -10.30332 -10.29995 -10.28392
 Alpha  occ. eigenvalues --  -10.28319 -10.28197 -10.27517 -10.26970 -10.26910
 Alpha  occ. eigenvalues --  -10.26772 -10.26306 -10.24891  -1.20120  -1.15524
 Alpha  occ. eigenvalues --   -1.14331  -1.13741  -1.13465  -1.12885  -1.11900
 Alpha  occ. eigenvalues --   -1.11380  -1.11171  -1.10158  -1.09922  -1.07999
 Alpha  occ. eigenvalues --   -1.04124  -1.02599  -1.01790  -1.01552  -1.01431
 Alpha  occ. eigenvalues --   -0.99823  -0.97340  -0.96812  -0.91094  -0.90066
 Alpha  occ. eigenvalues --   -0.89483  -0.87284  -0.86884  -0.85268  -0.83525
 Alpha  occ. eigenvalues --   -0.82307  -0.82154  -0.80667  -0.79639  -0.79293
 Alpha  occ. eigenvalues --   -0.75073  -0.74896  -0.73840  -0.73396  -0.72605
 Alpha  occ. eigenvalues --   -0.71687  -0.70355  -0.69889  -0.69541  -0.68631
 Alpha  occ. eigenvalues --   -0.67632  -0.67134  -0.66628  -0.66478  -0.66091
 Alpha  occ. eigenvalues --   -0.65792  -0.65491  -0.64354  -0.64021  -0.62718
 Alpha  occ. eigenvalues --   -0.62144  -0.61440  -0.61195  -0.61053  -0.60897
 Alpha  occ. eigenvalues --   -0.60089  -0.59462  -0.58624  -0.58493  -0.57625
 Alpha  occ. eigenvalues --   -0.57487  -0.57092  -0.56849  -0.56667  -0.55963
 Alpha  occ. eigenvalues --   -0.55589  -0.55407  -0.55331  -0.54483  -0.54339
 Alpha  occ. eigenvalues --   -0.53837  -0.53633  -0.53485  -0.53314  -0.52625
 Alpha  occ. eigenvalues --   -0.52494  -0.52382  -0.51934  -0.51640  -0.51119
 Alpha  occ. eigenvalues --   -0.50933  -0.50584  -0.50246  -0.49922  -0.49621
 Alpha  occ. eigenvalues --   -0.49178  -0.49132  -0.48784  -0.48636  -0.48521
 Alpha  occ. eigenvalues --   -0.48319  -0.48143  -0.47947  -0.47825  -0.47423
 Alpha  occ. eigenvalues --   -0.47185  -0.47059  -0.46897  -0.46774  -0.46579
 Alpha  occ. eigenvalues --   -0.45977  -0.45779  -0.45444  -0.45321  -0.44593
 Alpha  occ. eigenvalues --   -0.44374  -0.44286  -0.43990  -0.43888  -0.43650
 Alpha  occ. eigenvalues --   -0.43035  -0.42629  -0.41766  -0.41606  -0.41142
 Alpha  occ. eigenvalues --   -0.40884  -0.40690  -0.39588  -0.38680  -0.37539
 Alpha  occ. eigenvalues --   -0.37314  -0.37260  -0.36606  -0.35993  -0.35517
 Alpha  occ. eigenvalues --   -0.35248  -0.34956  -0.34905  -0.34131  -0.33839
 Alpha  occ. eigenvalues --   -0.33486  -0.33432  -0.32735  -0.31962  -0.31605
 Alpha virt. eigenvalues --   -0.10310  -0.08834  -0.08550  -0.08137  -0.06801
 Alpha virt. eigenvalues --   -0.06124  -0.05233  -0.04392  -0.04105  -0.02884
 Alpha virt. eigenvalues --   -0.02348  -0.01483  -0.00986  -0.00530   0.00230
 Alpha virt. eigenvalues --    0.00431   0.01217   0.01325   0.01584   0.01967
 Alpha virt. eigenvalues --    0.02559   0.02692   0.03126   0.03341   0.03723
 Alpha virt. eigenvalues --    0.03899   0.04206   0.04414   0.04909   0.05257
 Alpha virt. eigenvalues --    0.05538   0.05554   0.05823   0.05870   0.06155
 Alpha virt. eigenvalues --    0.06525   0.06764   0.06969   0.07173   0.07527
 Alpha virt. eigenvalues --    0.07731   0.08008   0.08112   0.08394   0.08626
 Alpha virt. eigenvalues --    0.08668   0.09040   0.09134   0.09371   0.09763
 Alpha virt. eigenvalues --    0.09910   0.10127   0.10585   0.10701   0.10891
 Alpha virt. eigenvalues --    0.11044   0.11256   0.11604   0.11792   0.11919
 Alpha virt. eigenvalues --    0.12151   0.12425   0.13032   0.13160   0.13256
 Alpha virt. eigenvalues --    0.13778   0.13867   0.14346   0.14558   0.14979
 Alpha virt. eigenvalues --    0.15234   0.15494   0.15961   0.16007   0.16328
 Alpha virt. eigenvalues --    0.16645   0.17232   0.17514   0.17983   0.18157
 Alpha virt. eigenvalues --    0.18606   0.18662   0.18947   0.19173   0.19448
 Alpha virt. eigenvalues --    0.19860   0.20245   0.20701   0.21187   0.21481
 Alpha virt. eigenvalues --    0.21976   0.23649   0.24478   0.25670   0.25832
 Alpha virt. eigenvalues --    0.27588   0.28233   0.28784   0.29514   0.29820
 Alpha virt. eigenvalues --    0.30687   0.31967   0.32163   0.32560   0.33411
 Alpha virt. eigenvalues --    0.34012   0.36248   0.37484   0.38783   0.40138
 Alpha virt. eigenvalues --    0.40547   0.41053   0.41508   0.42250   0.42794
 Alpha virt. eigenvalues --    0.43056   0.43363   0.43706   0.43892   0.44244
 Alpha virt. eigenvalues --    0.44900   0.45006   0.45391   0.45701   0.46331
 Alpha virt. eigenvalues --    0.46785   0.46953   0.47164   0.47423   0.47708
 Alpha virt. eigenvalues --    0.47836   0.48379   0.48622   0.48754   0.49240
 Alpha virt. eigenvalues --    0.49958   0.50197   0.50274   0.50693   0.51117
 Alpha virt. eigenvalues --    0.51360   0.51933   0.52594   0.52692   0.53102
 Alpha virt. eigenvalues --    0.53319   0.53681   0.54064   0.54456   0.55314
 Alpha virt. eigenvalues --    0.55533   0.55606   0.56021   0.56581   0.56719
 Alpha virt. eigenvalues --    0.57094   0.57105   0.57333   0.57666   0.58099
 Alpha virt. eigenvalues --    0.58390   0.59043   0.59356   0.59658   0.59929
 Alpha virt. eigenvalues --    0.60504   0.61016   0.61224   0.61607   0.62275
 Alpha virt. eigenvalues --    0.62603   0.62852   0.63449   0.63794   0.63933
 Alpha virt. eigenvalues --    0.64322   0.64757   0.65552   0.66193   0.66821
 Alpha virt. eigenvalues --    0.67060   0.67931   0.68020   0.68500   0.68869
 Alpha virt. eigenvalues --    0.69066   0.69806   0.69986   0.70143   0.71106
 Alpha virt. eigenvalues --    0.71305   0.71474   0.71995   0.72428   0.72819
 Alpha virt. eigenvalues --    0.72940   0.73303   0.73628   0.74074   0.74295
 Alpha virt. eigenvalues --    0.74635   0.74847   0.75218   0.75310   0.75668
 Alpha virt. eigenvalues --    0.76256   0.76557   0.76779   0.77091   0.77494
 Alpha virt. eigenvalues --    0.77871   0.78508   0.78624   0.79022   0.79223
 Alpha virt. eigenvalues --    0.79434   0.79959   0.80177   0.80268   0.80387
 Alpha virt. eigenvalues --    0.80573   0.80731   0.80991   0.81125   0.81288
 Alpha virt. eigenvalues --    0.81578   0.81688   0.82012   0.82356   0.82732
 Alpha virt. eigenvalues --    0.82896   0.83155   0.83374   0.83682   0.83943
 Alpha virt. eigenvalues --    0.84159   0.84492   0.84873   0.85384   0.85917
 Alpha virt. eigenvalues --    0.86131   0.86448   0.86761   0.86802   0.87139
 Alpha virt. eigenvalues --    0.87315   0.87755   0.88015   0.88562   0.88736
 Alpha virt. eigenvalues --    0.89017   0.89306   0.89751   0.90141   0.90393
 Alpha virt. eigenvalues --    0.91232   0.91542   0.91706   0.92048   0.92478
 Alpha virt. eigenvalues --    0.93362   0.93724   0.93938   0.94428   0.94771
 Alpha virt. eigenvalues --    0.95202   0.95724   0.96078   0.96299   0.96994
 Alpha virt. eigenvalues --    0.97630   0.97984   0.99140   0.99517   0.99906
 Alpha virt. eigenvalues --    1.00714   1.00899   1.01367   1.01847   1.02582
 Alpha virt. eigenvalues --    1.02906   1.03390   1.04030   1.04104   1.05407
 Alpha virt. eigenvalues --    1.05509   1.06441   1.07531   1.08065   1.08633
 Alpha virt. eigenvalues --    1.09817   1.10709   1.11804   1.11879   1.12724
 Alpha virt. eigenvalues --    1.13563   1.13915   1.14580   1.14825   1.15215
 Alpha virt. eigenvalues --    1.16653   1.17072   1.18334   1.18873   1.19222
 Alpha virt. eigenvalues --    1.19702   1.20035   1.21161   1.21273   1.22620
 Alpha virt. eigenvalues --    1.22811   1.23549   1.23924   1.24271   1.24769
 Alpha virt. eigenvalues --    1.25550   1.25753   1.26139   1.27066   1.27467
 Alpha virt. eigenvalues --    1.27864   1.29169   1.29942   1.30113   1.30621
 Alpha virt. eigenvalues --    1.31181   1.31609   1.32681   1.33262   1.33589
 Alpha virt. eigenvalues --    1.33987   1.34144   1.35069   1.35485   1.35805
 Alpha virt. eigenvalues --    1.37468   1.37560   1.38419   1.39045   1.40654
 Alpha virt. eigenvalues --    1.41544   1.41918   1.43102   1.44117   1.44777
 Alpha virt. eigenvalues --    1.46191   1.46273   1.47146   1.47979   1.48293
 Alpha virt. eigenvalues --    1.49402   1.49881   1.51801   1.52224   1.52616
 Alpha virt. eigenvalues --    1.53008   1.53659   1.54797   1.54952   1.55909
 Alpha virt. eigenvalues --    1.56391   1.56713   1.57657   1.57921   1.58443
 Alpha virt. eigenvalues --    1.59027   1.60209   1.60549   1.60853   1.61779
 Alpha virt. eigenvalues --    1.62398   1.62539   1.63022   1.64070   1.64642
 Alpha virt. eigenvalues --    1.65737   1.65975   1.66354   1.66686   1.67016
 Alpha virt. eigenvalues --    1.67667   1.67962   1.68072   1.68552   1.69409
 Alpha virt. eigenvalues --    1.69418   1.70067   1.70300   1.71339   1.71649
 Alpha virt. eigenvalues --    1.72001   1.72497   1.72573   1.73010   1.73576
 Alpha virt. eigenvalues --    1.73866   1.74375   1.74729   1.74883   1.75935
 Alpha virt. eigenvalues --    1.76133   1.76415   1.76533   1.77643   1.78042
 Alpha virt. eigenvalues --    1.78525   1.78810   1.79074   1.79359   1.79477
 Alpha virt. eigenvalues --    1.79809   1.80009   1.80755   1.81060   1.81387
 Alpha virt. eigenvalues --    1.82095   1.82431   1.83372   1.84074   1.84177
 Alpha virt. eigenvalues --    1.84330   1.84726   1.85286   1.85929   1.86154
 Alpha virt. eigenvalues --    1.86265   1.86622   1.87427   1.87879   1.88200
 Alpha virt. eigenvalues --    1.88461   1.88730   1.89348   1.89781   1.90487
 Alpha virt. eigenvalues --    1.90926   1.91224   1.91970   1.92293   1.92520
 Alpha virt. eigenvalues --    1.92894   1.93545   1.93736   1.94688   1.95233
 Alpha virt. eigenvalues --    1.95693   1.95858   1.96474   1.97120   1.97637
 Alpha virt. eigenvalues --    1.98084   1.98488   1.98613   1.98896   1.99860
 Alpha virt. eigenvalues --    2.00000   2.00461   2.01181   2.01481   2.01792
 Alpha virt. eigenvalues --    2.02588   2.03644   2.04013   2.05340   2.05467
 Alpha virt. eigenvalues --    2.05770   2.06180   2.06737   2.07288   2.08371
 Alpha virt. eigenvalues --    2.08997   2.09420   2.10124   2.11150   2.12053
 Alpha virt. eigenvalues --    2.12560   2.12707   2.12946   2.13293   2.14666
 Alpha virt. eigenvalues --    2.15165   2.16717   2.17565   2.18187   2.18274
 Alpha virt. eigenvalues --    2.19711   2.20207   2.20654   2.21329   2.22391
 Alpha virt. eigenvalues --    2.22943   2.23382   2.24035   2.24131   2.25643
 Alpha virt. eigenvalues --    2.26455   2.26984   2.27205   2.27898   2.28565
 Alpha virt. eigenvalues --    2.29150   2.30385   2.30867   2.31437   2.32339
 Alpha virt. eigenvalues --    2.33141   2.33311   2.34390   2.34515   2.34892
 Alpha virt. eigenvalues --    2.35411   2.35809   2.36016   2.36428   2.37237
 Alpha virt. eigenvalues --    2.38054   2.38543   2.39455   2.39767   2.40064
 Alpha virt. eigenvalues --    2.41205   2.41512   2.41893   2.42842   2.42911
 Alpha virt. eigenvalues --    2.43300   2.44812   2.46488   2.47071   2.47321
 Alpha virt. eigenvalues --    2.47957   2.48097   2.48464   2.49801   2.50209
 Alpha virt. eigenvalues --    2.51060   2.51859   2.52211   2.54305   2.54938
 Alpha virt. eigenvalues --    2.55714   2.55942   2.56253   2.56748   2.58322
 Alpha virt. eigenvalues --    2.58833   2.59161   2.60008   2.60277   2.60850
 Alpha virt. eigenvalues --    2.61521   2.62080   2.62694   2.64008   2.64502
 Alpha virt. eigenvalues --    2.65611   2.65694   2.67344   2.69454   2.71131
 Alpha virt. eigenvalues --    2.72970   2.73362   2.73841   2.75491   2.76305
 Alpha virt. eigenvalues --    2.77822   2.78808   2.79694   2.81281   2.83128
 Alpha virt. eigenvalues --    2.84767   2.85711   2.86903   2.89892   2.91134
 Alpha virt. eigenvalues --    2.91397   2.92227   2.93561   2.94584   2.95718
 Alpha virt. eigenvalues --    2.97661   2.98269   2.99112   3.01754   3.02208
 Alpha virt. eigenvalues --    3.05667   3.06663   3.08090   3.10072   3.12130
 Alpha virt. eigenvalues --    3.13010   3.73103   3.74074   3.76146   3.76943
 Alpha virt. eigenvalues --    3.78829   3.89929   3.90316   3.92395   3.94824
 Alpha virt. eigenvalues --    3.95865   3.99688   4.00100   4.00262   4.03268
 Alpha virt. eigenvalues --    4.07849   4.08857   4.09169   4.10306   4.11925
 Alpha virt. eigenvalues --    4.13093   4.17228   4.17482   4.18668   4.18924
 Alpha virt. eigenvalues --    4.20010   4.21517   4.24609   4.25469   4.27334
 Alpha virt. eigenvalues --    4.28643   4.31030   4.32455   4.33151   4.33962
 Alpha virt. eigenvalues --    4.37673   4.38447   4.39395   4.44058   4.46011
 Alpha virt. eigenvalues --    4.49023   4.52207   4.53582   4.55705   4.56382
 Alpha virt. eigenvalues --    4.57562   4.58390   4.62557   4.63940
          Condensed to atoms (all electrons):
 Mulliken charges:
               1
     1  N   -0.759452
     2  H    0.350143
     3  H    0.306130
     4  C   -0.064289
     5  H    0.195005
     6  C    0.619286
     7  C   -0.389832
     8  H    0.166958
     9  H    0.195559
    10  O   -0.568851
    11  C    0.613191
    12  N   -0.748681
    13  H    0.354515
    14  H    0.345674
    15  O   -0.511978
    16  N   -0.612654
    17  H    0.374544
    18  C   -0.040692
    19  H    0.177296
    20  C    0.645955
    21  C   -0.096393
    22  H    0.143131
    23  O   -0.596239
    24  C   -0.260527
    25  H    0.139773
    26  H    0.140849
    27  C   -0.477895
    28  H    0.164082
    29  H    0.159446
    30  H    0.131992
    31  C   -0.452626
    32  H    0.162382
    33  H    0.146734
    34  H    0.152620
    35  N   -0.606363
    36  H    0.391512
    37  C   -0.017572
    38  H    0.163016
    39  C    0.642857
    40  C   -0.510133
    41  H    0.204674
    42  H    0.180907
    43  H    0.179964
    44  O   -0.586423
    45  N   -0.575381
    46  H    0.349885
    47  C   -0.131570
    48  H    0.223371
    49  C    0.666644
    50  C    0.137204
    51  H    0.158770
    52  O   -0.542249
    53  C   -0.486956
    54  H    0.202682
    55  H    0.145312
    56  H    0.167943
    57  O   -0.656586
    58  H    0.418576
    59  N   -0.581303
    60  H    0.357706
    61  C   -0.095427
    62  H    0.200374
    63  C    0.619136
    64  C   -0.043137
    65  H    0.158688
    66  H    0.151380
    67  O   -0.520145
    68  O   -0.617705
    69  H    0.407479
    70  N   -0.577349
    71  H    0.365057
    72  C   -0.251341
    73  H    0.192335
    74  H    0.201225
    75  C    0.635909
    76  O   -0.557457
    77  N   -0.621758
    78  H    0.364606
    79  C   -0.003189
    80  H    0.202028
    81  C    0.568204
    82  C   -0.271536
    83  H    0.171447
    84  H    0.167373
    85  O   -0.453616
    86  C   -0.305854
    87  H    0.157569
    88  H    0.178681
    89  C   -0.289311
    90  H    0.175130
    91  H    0.154529
    92  C   -0.177706
    93  H    0.190049
    94  H    0.196017
    95  N   -0.842329
    96  H    0.438021
    97  H    0.431072
    98  H    0.434139
    99  O   -0.564816
   100  H    0.430584
 Sum of Mulliken charges =   1.00000
 Mulliken charges with hydrogens summed into heavy atoms:
               1
     1  N   -0.103179
     4  C    0.130717
     6  C    0.619286
     7  C   -0.027315
    10  O   -0.568851
    11  C    0.613191
    12  N   -0.048492
    15  O   -0.511978
    16  N   -0.238110
    18  C    0.136603
    20  C    0.645955
    21  C    0.046738
    23  O   -0.596239
    24  C    0.020095
    27  C   -0.022374
    31  C    0.009110
    35  N   -0.214851
    37  C    0.145443
    39  C    0.642857
    40  C    0.055412
    44  O   -0.586423
    45  N   -0.225496
    47  C    0.091801
    49  C    0.666644
    50  C    0.295974
    52  O   -0.542249
    53  C    0.028982
    57  O   -0.238010
    59  N   -0.223596
    61  C    0.104947
    63  C    0.619136
    64  C    0.266931
    67  O   -0.520145
    68  O   -0.210225
    70  N   -0.212293
    72  C    0.142219
    75  C    0.635909
    76  O   -0.557457
    77  N   -0.257152
    79  C    0.198839
    81  C    0.568204
    82  C    0.067284
    85  O   -0.453616
    86  C    0.030396
    89  C    0.040348
    92  C    0.208360
    95  N    0.460904
    99  O   -0.134232
 Electronic spatial extent (au):  <R**2>=          43385.4982
 Charge=              1.0000 electrons
 Dipole moment (field-independent basis, Debye):
    X=              5.9740    Y=             -4.8557    Z=              5.2967  Tot=              9.3446
 Quadrupole moment (field-independent basis, Debye-Ang):
   XX=           -189.9862   YY=           -210.1075   ZZ=           -230.3515
   XY=            -66.8418   XZ=              0.1328   YZ=              9.5318
 Traceless Quadrupole moment (field-independent basis, Debye-Ang):
   XX=             20.1622   YY=              0.0409   ZZ=            -20.2031
   XY=            -66.8418   XZ=              0.1328   YZ=              9.5318
 Octapole moment (field-independent basis, Debye-Ang**2):
  XXX=           -706.5489  YYY=            518.5689  ZZZ=             25.4554  XYY=           -389.7187
  XXY=            315.7870  XXZ=            124.8219  XZZ=           -312.7906  YZZ=            270.2217
  YYZ=             52.1530  XYZ=            -71.3260
 Hexadecapole moment (field-independent basis, Debye-Ang**3):
 XXXX=         -23993.9214 YYYY=          -6646.5356 ZZZZ=         -16418.1720 XXXY=           2762.2580
 XXXZ=           5727.8290 YYYX=           3853.3053 YYYZ=          -2199.9327 ZZZX=           4875.3581
 ZZZY=          -2398.0557 XXYY=          -4387.9113 XXZZ=          -7211.5292 YYZZ=          -4007.6352
 XXYZ=            141.5359 YYXZ=           1253.5576 ZZXY=           1071.2390
 N-N= 6.915268235342D+03 E-N=-1.944092203978D+04  KE= 2.396612831202D+03
 Unable to Open any file for archive entry.
 1\1\GINC-AMR-022\SP\RB3LYP\6-31G(d)\C28H52N9O11(1+)\KENGMITH\21-Jul-20
 22\0\\# B3LYP/6-31G* empiricaldispersion=gd3bj guess=read geom=check n
 osymm integral(ultrafinegrid)\\Candidate Structure: Conf:205 Charge ca
 lc in gas phase\\1,1\N,0,-4.7888705437,0.9700173511,4.4261757774\H,0,-
 5.7710254193,0.7184448749,4.5296369885\H,0,-4.5918158469,1.6548988791,
 5.1567935705\C,0,-4.6423023149,1.5991913032,3.1096872848\H,0,-5.149196
 1087,0.9364603968,2.3969419399\C,0,-3.1726485122,1.6202527649,2.682939
 7457\C,0,-5.2711928796,2.9889549603,2.9650489378\H,0,-4.8731242855,3.6
 668929899,3.7329887524\H,0,-4.9927115215,3.4209319538,1.9975046181\O,0
 ,-2.7603710263,2.3256921792,1.7522595036\C,0,-6.7917380718,2.909101218
 2,3.0957375773\N,0,-7.4467501757,4.0905718122,2.9432577045\H,0,-8.4565
 488017,4.0895417062,2.9863462345\H,0,-6.9760802713,4.9403094448,2.6706
 942018\O,0,-7.3780146132,1.8575226968,3.332837763\N,0,-2.3828724316,0.
 7745245469,3.3808878948\H,0,-2.8607266315,0.2144496218,4.0834594755\C,
 0,-0.951634421,0.6739354813,3.1363339384\H,0,-0.6119171531,1.681757726
 ,2.8694963646\C,0,-0.743548614,-0.2324199072,1.90714143\C,0,-0.1599992
 678,0.1779356737,4.3551292466\H,0,-0.3853271553,-0.8893238404,4.482292
 8021\O,0,-0.4161381094,-1.4282836252,1.9874961219\C,0,-0.5596747296,0.
 9258218645,5.6397893082\H,0,-1.636546822,0.814965721,5.808685099\H,0,-
 0.3837486613,2.001122797,5.4950355469\C,0,1.3420020509,0.3323989091,4.
 0633183617\H,0,1.6365515901,1.3877557604,4.1067284581\H,0,1.946424905,
 -0.2114915834,4.794902514\H,0,1.60233854,-0.0353317033,3.0654335931\C,
 0,0.1832344325,0.4420534047,6.8883564143\H,0,-0.2033175469,0.939344198
 2,7.7834138595\H,0,0.0568643426,-0.6385133146,7.0280164784\H,0,1.25644
 61232,0.6512180818,6.8357231144\N,0,-0.9816859453,0.3729157408,0.73199
 4142\H,0,-1.4233748582,1.2948846412,0.772449683\C,0,-0.9182008376,-0.3
 282174978,-0.5360625699\H,0,-1.7430134611,-1.051091927,-0.6053703398\C
 ,0,0.4066837252,-1.0806958334,-0.6671769909\C,0,-1.0090065064,0.689657
 3403,-1.6824514691\H,0,-0.8907534417,0.2108260394,-2.6585186884\H,0,-1
 .9762229777,1.2011520836,-1.6528244015\H,0,-0.2131464586,1.4322293185,
 -1.5697755051\O,0,1.4867808134,-0.5762945086,-0.3235968343\N,0,0.33067
 2967,-2.2868483766,-1.2724757244\H,0,-0.5786738595,-2.6263379482,-1.55
 9537924\C,0,1.5089210775,-2.9687076891,-1.8004811201\H,0,2.3756597483,
 -2.5306953638,-1.3037866077\C,0,1.6780940942,-2.6386796557,-3.29566320
 32\C,0,1.4871121179,-4.4729776762,-1.5199848855\H,0,0.6564503579,-4.93
 48260778,-2.0692201656\O,0,1.7442556274,-3.5031460745,-4.1682940583\C,
 0,2.7984748434,-5.1589035773,-1.8834577451\H,0,2.9397774915,-5.1482430
 209,-2.9642385559\H,0,2.7807557545,-6.2028166609,-1.5482829038\H,0,3.6
 437823637,-4.6467663183,-1.4137402627\O,0,1.2265381712,-4.5961656763,-
 0.101059781\H,0,1.2266721423,-5.5404874246,0.1205315772\N,0,1.72868935
 4,-1.3076256886,-3.5448421558\H,0,1.9277039617,-0.6997155281,-2.756350
 8134\C,0,2.1278997685,-0.7976447723,-4.8581237623\H,0,1.7124393726,-1.
 479341091,-5.6031494871\C,0,3.6662271064,-0.8222670756,-4.8680884109\C
 ,0,1.5864904957,0.6060858222,-5.072765595\H,0,1.9179847447,0.955933861
 5,-6.05960088\H,0,2.0191615799,1.28318433,-4.3231893644\O,0,4.33718017
 64,0.1674465395,-4.6068189599\O,0,0.1684815964,0.5398474832,-4.9792082
 424\H,0,-0.1842358092,1.4086840828,-5.2234491996\N,0,4.2099071833,-2.0
 658262877,-5.0554097177\H,0,3.5525004035,-2.8407012651,-5.0336667165\C
 ,0,5.5161027752,-2.300949793,-4.4762289769\H,0,5.8213671175,-3.3283799
 203,-4.6967782185\H,0,6.247986923,-1.6246276477,-4.9248549342\C,0,5.46
 71056927,-2.0954115159,-2.9510251465\O,0,4.4127269913,-2.2127878207,-2
 .3199234662\N,0,6.6358142378,-1.8044577378,-2.3452688602\H,0,7.4715261
 83,-1.5944985394,-2.8811791349\C,0,6.666789994,-1.4027101603,-0.948348
 8565\H,0,5.99735462,-0.5400871003,-0.8189975525\C,0,8.0726575407,-0.90
 08372502,-0.6632443269\C,0,6.2089498931,-2.5154598975,0.0391551644\H,0
 ,5.9601114924,-3.4031909693,-0.5477812277\H,0,7.0288406917,-2.79061437
 55,0.7105152498\O,0,8.9653716869,-0.8525911145,-1.4796425585\C,0,4.991
 020743,-2.0743418951,0.8560479323\H,0,5.2689064327,-1.2253940734,1.495
 2170346\H,0,4.2379339264,-1.7114268177,0.1468046281\C,0,4.4232767068,-
 3.2004255617,1.7260820655\H,0,5.1826654479,-3.5404531017,2.4403260306\
 H,0,4.1741427482,-4.0697888356,1.1016745644\C,0,3.1867232609,-2.794439
 0183,2.5258239468\H,0,2.8759631379,-3.5861335459,3.2122398426\H,0,3.36
 46528178,-1.8868646256,3.1087026233\N,0,2.0269112381,-2.5213054701,1.6
 2319281\H,0,1.1583818838,-2.2141391633,2.1065979117\H,0,1.7721928859,-
 3.3555264685,1.0515964424\H,0,2.2036526892,-1.7561137559,0.9451578285\
 O,0,8.1982925602,-0.4960655543,0.6142079711\H,0,9.1138212999,-0.174696
 5813,0.7237537913\\Version=ES64L-G16RevC.01\HF=-2418.696131\RMSD=9.968
 e-09\Dipole=0.1447073,-0.5099742,2.0429782\Quadrupole=14.9901246,0.030
 3806,-15.0205051,-49.6952335,0.0986977,7.086659\PG=C01 [X(C28H52N9O11)
 ]\\@
 The archive entry for this job was punched.


 BE LIKE A POSTAGE STAMP.  STICK TO ONE THING UNTIL
 YOU GET THERE -- JOSH BILLINGS
 Job cpu time:       0 days  0 hours  2 minutes 28.6 seconds.
 Elapsed time:       0 days  0 hours  0 minutes 37.7 seconds.
 File lengths (MBytes):  RWF=    464 Int=      0 D2E=      0 Chk=     72 Scr=     16
 Normal termination of Gaussian 16 at Thu Jul 21 23:50:05 2022.
