 Entering Gaussian System, Link 0=/opt/software/Gaussian/g16-AVX2-C.01/g16/g16
 Input=charge-conf-962.com
 Output=charge-conf-962.log
 Initial command:
 /opt/software/Gaussian/g16-AVX2-C.01/g16/l1.exe "/mnt/gs18/scratch/users/kengmith/Gau-32866.inp" -scrdir="/mnt/gs18/scratch/users/kengmith/"
 Entering Link 1 = /opt/software/Gaussian/g16-AVX2-C.01/g16/l1.exe PID=     32876.
  
 Copyright (c) 1988-2019, Gaussian, Inc.  All Rights Reserved.
  
 This is part of the Gaussian(R) 16 program.  It is based on
 the Gaussian(R) 09 system (copyright 2009, Gaussian, Inc.),
 the Gaussian(R) 03 system (copyright 2003, Gaussian, Inc.),
 the Gaussian(R) 98 system (copyright 1998, Gaussian, Inc.),
 the Gaussian(R) 94 system (copyright 1995, Gaussian, Inc.),
 the Gaussian 92(TM) system (copyright 1992, Gaussian, Inc.),
 the Gaussian 90(TM) system (copyright 1990, Gaussian, Inc.),
 the Gaussian 88(TM) system (copyright 1988, Gaussian, Inc.),
 the Gaussian 86(TM) system (copyright 1986, Carnegie Mellon
 University), and the Gaussian 82(TM) system (copyright 1983,
 Carnegie Mellon University). Gaussian is a federally registered
 trademark of Gaussian, Inc.
  
 This software contains proprietary and confidential information,
 including trade secrets, belonging to Gaussian, Inc.
  
 This software is provided under written license and may be
 used, copied, transmitted, or stored only in accord with that
 written license.
  
 The following legend is applicable only to US Government
 contracts under FAR:
  
                    RESTRICTED RIGHTS LEGEND
  
 Use, reproduction and disclosure by the US Government is
 subject to restrictions as set forth in subparagraphs (a)
 and (c) of the Commercial Computer Software - Restricted
 Rights clause in FAR 52.227-19.
  
 Gaussian, Inc.
 340 Quinnipiac St., Bldg. 40, Wallingford CT 06492
  
  
 ---------------------------------------------------------------
 Warning -- This program may not be used in any manner that
 competes with the business of Gaussian, Inc. or will provide
 assistance to any competitor of Gaussian, Inc.  The licensee
 of this program is prohibited from giving any competitor of
 Gaussian, Inc. access to this program.  By using this program,
 the user acknowledges that Gaussian, Inc. is engaged in the
 business of creating and licensing software in the field of
 computational chemistry and represents and warrants to the
 licensee that it is not a competitor of Gaussian, Inc. and that
 it will not use this program in any manner prohibited above.
 ---------------------------------------------------------------
  

 Cite this work as:
 Gaussian 16, Revision C.01,
 M. J. Frisch, G. W. Trucks, H. B. Schlegel, G. E. Scuseria, 
 M. A. Robb, J. R. Cheeseman, G. Scalmani, V. Barone, 
 G. A. Petersson, H. Nakatsuji, X. Li, M. Caricato, A. V. Marenich, 
 J. Bloino, B. G. Janesko, R. Gomperts, B. Mennucci, H. P. Hratchian, 
 J. V. Ortiz, A. F. Izmaylov, J. L. Sonnenberg, D. Williams-Young, 
 F. Ding, F. Lipparini, F. Egidi, J. Goings, B. Peng, A. Petrone, 
 T. Henderson, D. Ranasinghe, V. G. Zakrzewski, J. Gao, N. Rega, 
 G. Zheng, W. Liang, M. Hada, M. Ehara, K. Toyota, R. Fukuda, 
 J. Hasegawa, M. Ishida, T. Nakajima, Y. Honda, O. Kitao, H. Nakai, 
 T. Vreven, K. Throssell, J. A. Montgomery, Jr., J. E. Peralta, 
 F. Ogliaro, M. J. Bearpark, J. J. Heyd, E. N. Brothers, K. N. Kudin, 
 V. N. Staroverov, T. A. Keith, R. Kobayashi, J. Normand, 
 K. Raghavachari, A. P. Rendell, J. C. Burant, S. S. Iyengar, 
 J. Tomasi, M. Cossi, J. M. Millam, M. Klene, C. Adamo, R. Cammi, 
 J. W. Ochterski, R. L. Martin, K. Morokuma, O. Farkas, 
 J. B. Foresman, and D. J. Fox, Gaussian, Inc., Wallingford CT, 2019.
 
 ******************************************
 Gaussian 16:  ES64L-G16RevC.01  3-Jul-2019
                 3-Jun-2022 
 ******************************************
 %mem=8gb
 %nproc=4
 Will use up to    4 processors via shared memory.
 %chk=conf-962.chk
 ----------------------------------------------------------------------
 # B3LYP/6-31G* empiricaldispersion=gd3 guess=read geom=check nosymm in
 tegral(ultrafinegrid)
 ----------------------------------------------------------------------
 1/29=2,38=1,172=1/1;
 2/12=2,15=1,40=1/2;
 3/5=1,6=6,7=1,11=2,14=-4,25=1,30=1,74=-5,75=-5,116=-2,124=31/1,2,3;
 4/5=1/1;
 5/5=2,38=6/2;
 6/7=2,8=2,9=2,10=2,28=1/1;
 99/5=1,9=1/99;
 ------------------------------------------------------
 Candidate Structure: Conf:962 Charge calc in gas phase
 ------------------------------------------------------
 Structure from the checkpoint file:  "conf-962.chk"
 Charge =  1 Multiplicity = 1
 Redundant internal coordinates found in file.  (old form).
 N,0,2.6167340373,-4.6464244682,1.4422437641
 H,0,2.290413711,-5.0482586351,0.564262376
 H,0,3.4362519412,-4.0949168383,1.1860968664
 C,0,1.6048331356,-3.7393918106,1.9646951873
 H,0,0.6621943803,-4.2930685944,2.0414328255
 C,0,1.3679831317,-2.5236822922,1.0496462309
 C,0,2.0222636423,-3.2892164372,3.3962041041
 H,0,2.2230125235,-4.2156202776,3.9468925889
 H,0,2.9770972742,-2.7523162885,3.322485205
 O,0,2.1781211482,-2.1869858908,0.1854065365
 C,0,1.0222483245,-2.4345484435,4.1183330368
 C,0,1.2374911739,-1.172413148,4.6159117136
 H,0,2.1474457579,-0.5906049625,4.6255195429
 C,0,-0.3690665093,-2.7401223357,4.3711613274
 C,0,-0.937963217,-1.6053577874,5.017735556
 C,0,-1.1950572401,-3.8524046461,4.1123910488
 H,0,-0.7892053627,-4.7481233829,3.6509136128
 N,0,0.062508587,-0.66322555,5.1429135109
 H,0,-0.0090879438,0.1874018746,5.6796851514
 C,0,-3.0691631202,-2.6688182588,5.1282540892
 H,0,-4.1160078844,-2.6650141172,5.4175289438
 C,0,-2.2814229981,-1.5569972698,5.4035823949
 H,0,-2.6928328303,-0.6849139747,5.9046880104
 C,0,-2.5316624813,-3.8053834888,4.4891378752
 H,0,-3.1724088392,-4.6618242215,4.3009261688
 N,0,0.2308007379,-1.8063937334,1.286015444
 H,0,-0.4001820161,-2.1185526836,2.0139268515
 C,0,-0.1547362118,-0.6445946295,0.4957742545
 H,0,-0.7979217932,-0.036657171,1.1478629175
 C,0,1.0943046704,0.2019566809,0.1800736786
 C,0,-0.9370630343,-0.9746493599,-0.7979818375
 H,0,-0.1970271866,-1.3102686438,-1.5333804424
 O,0,1.3296986622,0.6159090909,-0.9635739927
 C,0,-1.636858944,0.2964060277,-1.338273769
 H,0,-2.6223291607,0.3922571482,-0.8619803928
 H,0,-1.0699266114,1.1894582835,-1.0507411499
 C,0,-1.9515055859,-2.1015029926,-0.5659030008
 H,0,-2.6464512892,-1.8510404085,0.2464066239
 H,0,-2.54694982,-2.2731756069,-1.46877364
 H,0,-1.4580229295,-3.0432833075,-0.3101863093
 C,0,-1.7961958115,0.2872163852,-2.8617109587
 H,0,-2.3130044503,1.187238171,-3.2202148429
 H,0,-2.3787406089,-0.574212366,-3.2051114367
 H,0,-0.8147854108,0.2230254632,-3.350723205
 N,0,1.883590372,0.5365446575,1.2264224323
 H,0,1.7693077896,0.0325332916,2.1026764479
 C,0,3.2159062901,1.0492975276,0.9383209903
 H,0,3.6673851624,0.4005478536,0.1733467683
 C,0,4.0840844196,0.8805750973,2.1734894258
 C,0,3.1935028076,2.5124008353,0.3995860465
 H,0,2.1531232631,2.8487224402,0.4251457521
 H,0,3.7611423434,3.177433913,1.0589690735
 O,0,3.7393805236,0.346889416,3.2051883353
 C,0,3.7406003319,2.5978468413,-1.0287088075
 H,0,3.3292134164,1.7763710635,-1.6196125271
 H,0,4.8281091817,2.4529458325,-1.0207415139
 C,0,3.4810121003,3.9306614744,-1.7370153787
 H,0,4.0763986484,4.7247717972,-1.2786725131
 H,0,3.7824526785,3.8578626357,-2.7876603925
 N,0,2.0868190094,4.4433614674,-1.6897323294
 H,0,1.9657730451,5.3607166837,-1.2820405321
 N,0,0.9316814957,2.6769099576,-2.6795863728
 H,0,0.1768431864,2.3784797244,-3.2849085643
 H,0,1.283859655,1.9412355541,-2.0452524792
 N,0,0.038572966,4.8215098782,-2.6962820587
 H,0,0.2102533893,5.8125469646,-2.7913839493
 H,0,-0.8727950486,4.4816374266,-2.9696584482
 C,0,1.0237477171,3.9656178625,-2.3555133447
 O,0,5.3163584163,1.3772676955,1.962468319
 H,0,5.8435216714,1.209101606,2.7670977402
 Recover connectivity data from disk.
                           ----------------------------
                           !    Current Parameters    !
                           ! (Angstroms and Degrees)  !
 --------------------------                            --------------------------
 ! Name  Definition              Value                                          !
 --------------------------------------------------------------------------------
 ! R1    R(1,2)                  1.0192                                         !
 ! R2    R(1,3)                  1.0205                                         !
 ! R3    R(1,4)                  1.4559                                         !
 ! R4    R(4,5)                  1.0959                                         !
 ! R5    R(4,6)                  1.5399                                         !
 ! R6    R(4,7)                  1.5576                                         !
 ! R7    R(6,10)                 1.2315                                         !
 ! R8    R(6,26)                 1.3651                                         !
 ! R9    R(7,8)                  1.0963                                         !
 ! R10   R(7,9)                  1.0979                                         !
 ! R11   R(7,11)                 1.5007                                         !
 ! R12   R(11,12)                1.3736                                         !
 ! R13   R(11,14)                1.4467                                         !
 ! R14   R(12,13)                1.0801                                         !
 ! R15   R(12,18)                1.3848                                         !
 ! R16   R(14,15)                1.4246                                         !
 ! R17   R(14,16)                1.4094                                         !
 ! R18   R(15,18)                1.3799                                         !
 ! R19   R(15,22)                1.3986                                         !
 ! R20   R(16,17)                1.0863                                         !
 ! R21   R(16,24)                1.3895                                         !
 ! R22   R(18,19)                1.0084                                         !
 ! R23   R(20,21)                1.0861                                         !
 ! R24   R(20,22)                1.3901                                         !
 ! R25   R(20,24)                1.4104                                         !
 ! R26   R(22,23)                1.0867                                         !
 ! R27   R(24,25)                1.086                                          !
 ! R28   R(26,27)                1.0126                                         !
 ! R29   R(26,28)                1.457                                          !
 ! R30   R(28,29)                1.0993                                         !
 ! R31   R(28,30)                1.5416                                         !
 ! R32   R(28,31)                1.5475                                         !
 ! R33   R(30,33)                1.2388                                         !
 ! R34   R(30,45)                1.3527                                         !
 ! R35   R(31,32)                1.0959                                         !
 ! R36   R(31,34)                1.5483                                         !
 ! R37   R(31,37)                1.5339                                         !
 ! R38   R(34,35)                1.0987                                         !
 ! R39   R(34,36)                1.0962                                         !
 ! R40   R(34,41)                1.5318                                         !
 ! R41   R(37,38)                1.098                                          !
 ! R42   R(37,39)                1.0951                                         !
 ! R43   R(37,40)                1.0936                                         !
 ! R44   R(41,42)                1.098                                          !
 ! R45   R(41,43)                1.0951                                         !
 ! R46   R(41,44)                1.0984                                         !
 ! R47   R(45,46)                1.0173                                         !
 ! R48   R(45,47)                1.4564                                         !
 ! R49   R(47,48)                1.1                                            !
 ! R50   R(47,49)                1.5192                                         !
 ! R51   R(47,50)                1.5593                                         !
 ! R52   R(49,53)                1.2116                                         !
 ! R53   R(49,69)                1.3453                                         !
 ! R54   R(50,51)                1.0937                                         !
 ! R55   R(50,52)                1.0951                                         !
 ! R56   R(50,54)                1.5319                                         !
 ! R57   R(54,55)                1.0924                                         !
 ! R58   R(54,56)                1.0971                                         !
 ! R59   R(54,57)                1.5315                                         !
 ! R60   R(57,58)                1.0932                                         !
 ! R61   R(57,59)                1.0955                                         !
 ! R62   R(57,60)                1.4862                                         !
 ! R63   R(60,61)                1.0111                                         !
 ! R64   R(60,68)                1.3422                                         !
 ! R65   R(62,63)                1.0125                                         !
 ! R66   R(62,64)                1.0333                                         !
 ! R67   R(62,68)                1.332                                          !
 ! R68   R(65,66)                1.0103                                         !
 ! R69   R(65,67)                1.0104                                         !
 ! R70   R(65,68)                1.3488                                         !
 ! R71   R(69,70)                0.9765                                         !
 ! A1    A(2,1,3)              104.7123                                         !
 ! A2    A(2,1,4)              109.4038                                         !
 ! A3    A(3,1,4)              108.1522                                         !
 ! A4    A(1,4,5)              107.9511                                         !
 ! A5    A(1,4,6)              112.6752                                         !
 ! A6    A(1,4,7)              108.8806                                         !
 ! A7    A(5,4,6)              107.9487                                         !
 ! A8    A(5,4,7)              108.1906                                         !
 ! A9    A(6,4,7)              111.0489                                         !
 ! A10   A(4,6,10)             122.1182                                         !
 ! A11   A(4,6,26)             116.1071                                         !
 ! A12   A(10,6,26)            121.726                                          !
 ! A13   A(4,7,8)              105.4565                                         !
 ! A14   A(4,7,9)              108.2219                                         !
 ! A15   A(4,7,11)             115.3578                                         !
 ! A16   A(8,7,9)              106.7217                                         !
 ! A17   A(8,7,11)             111.1978                                         !
 ! A18   A(9,7,11)             109.4719                                         !
 ! A19   A(7,11,12)            126.3836                                         !
 ! A20   A(7,11,14)            127.2043                                         !
 ! A21   A(12,11,14)           106.3473                                         !
 ! A22   A(11,12,13)           129.0626                                         !
 ! A23   A(11,12,18)           110.0448                                         !
 ! A24   A(13,12,18)           120.8898                                         !
 ! A25   A(11,14,15)           107.1646                                         !
 ! A26   A(11,14,16)           134.2837                                         !
 ! A27   A(15,14,16)           118.5507                                         !
 ! A28   A(14,15,18)           107.1867                                         !
 ! A29   A(14,15,22)           122.4361                                         !
 ! A30   A(18,15,22)           130.3754                                         !
 ! A31   A(14,16,17)           120.6497                                         !
 ! A32   A(14,16,24)           119.1612                                         !
 ! A33   A(17,16,24)           120.1651                                         !
 ! A34   A(12,18,15)           109.245                                          !
 ! A35   A(12,18,19)           124.9605                                         !
 ! A36   A(15,18,19)           124.9416                                         !
 ! A37   A(21,20,22)           119.3824                                         !
 ! A38   A(21,20,24)           119.3968                                         !
 ! A39   A(22,20,24)           121.2192                                         !
 ! A40   A(15,22,20)           117.5178                                         !
 ! A41   A(15,22,23)           121.2402                                         !
 ! A42   A(20,22,23)           121.2412                                         !
 ! A43   A(16,24,20)           121.1139                                         !
 ! A44   A(16,24,25)           119.5945                                         !
 ! A45   A(20,24,25)           119.2869                                         !
 ! A46   A(6,26,27)            118.787                                          !
 ! A47   A(6,26,28)            123.0582                                         !
 ! A48   A(27,26,28)           118.0859                                         !
 ! A49   A(26,28,29)           105.9059                                         !
 ! A50   A(26,28,30)           109.5458                                         !
 ! A51   A(26,28,31)           114.654                                          !
 ! A52   A(29,28,30)           106.9684                                         !
 ! A53   A(29,28,31)           108.5468                                         !
 ! A54   A(30,28,31)           110.8255                                         !
 ! A55   A(28,30,33)           121.7701                                         !
 ! A56   A(28,30,45)           116.7559                                         !
 ! A57   A(33,30,45)           121.371                                          !
 ! A58   A(28,31,32)           106.5551                                         !
 ! A59   A(28,31,34)           110.1904                                         !
 ! A60   A(28,31,37)           111.3792                                         !
 ! A61   A(32,31,34)           108.8106                                         !
 ! A62   A(32,31,37)           108.8525                                         !
 ! A63   A(34,31,37)           110.9148                                         !
 ! A64   A(31,34,35)           109.0101                                         !
 ! A65   A(31,34,36)           110.0915                                         !
 ! A66   A(31,34,41)           112.9017                                         !
 ! A67   A(35,34,36)           106.2062                                         !
 ! A68   A(35,34,41)           109.7771                                         !
 ! A69   A(36,34,41)           108.6363                                         !
 ! A70   A(31,37,38)           111.2819                                         !
 ! A71   A(31,37,39)           110.4894                                         !
 ! A72   A(31,37,40)           111.692                                          !
 ! A73   A(38,37,39)           107.5525                                         !
 ! A74   A(38,37,40)           108.0035                                         !
 ! A75   A(39,37,40)           107.6474                                         !
 ! A76   A(34,41,42)           111.6394                                         !
 ! A77   A(34,41,43)           111.8335                                         !
 ! A78   A(34,41,44)           110.4995                                         !
 ! A79   A(42,41,43)           106.9778                                         !
 ! A80   A(42,41,44)           108.8501                                         !
 ! A81   A(43,41,44)           106.841                                          !
 ! A82   A(30,45,46)           118.567                                          !
 ! A83   A(30,45,47)           117.8955                                         !
 ! A84   A(46,45,47)           116.5897                                         !
 ! A85   A(45,47,48)           107.7832                                         !
 ! A86   A(45,47,49)           108.8363                                         !
 ! A87   A(45,47,50)           112.6786                                         !
 ! A88   A(48,47,49)           105.3895                                         !
 ! A89   A(48,47,50)           108.6042                                         !
 ! A90   A(49,47,50)           113.1621                                         !
 ! A91   A(47,49,53)           125.3559                                         !
 ! A92   A(47,49,69)           110.7899                                         !
 ! A93   A(53,49,69)           123.8346                                         !
 ! A94   A(47,50,51)           107.1056                                         !
 ! A95   A(47,50,52)           110.7526                                         !
 ! A96   A(47,50,54)           111.6751                                         !
 ! A97   A(51,50,52)           106.9932                                         !
 ! A98   A(51,50,54)           110.1434                                         !
 ! A99   A(52,50,54)           110.0236                                         !
 ! A100  A(50,54,55)           109.1426                                         !
 ! A101  A(50,54,56)           109.8688                                         !
 ! A102  A(50,54,57)           114.7859                                         !
 ! A103  A(55,54,56)           106.1353                                         !
 ! A104  A(55,54,57)           109.9041                                         !
 ! A105  A(56,54,57)           106.6369                                         !
 ! A106  A(54,57,58)           110.239                                          !
 ! A107  A(54,57,59)           109.822                                          !
 ! A108  A(54,57,60)           116.3916                                         !
 ! A109  A(58,57,59)           107.4884                                         !
 ! A110  A(58,57,60)           104.2981                                         !
 ! A111  A(59,57,60)           108.154                                          !
 ! A112  A(57,60,61)           115.9826                                         !
 ! A113  A(57,60,68)           127.1857                                         !
 ! A114  A(61,60,68)           115.3469                                         !
 ! A115  A(63,62,64)           114.2837                                         !
 ! A116  A(63,62,68)           118.8241                                         !
 ! A117  A(64,62,68)           121.0592                                         !
 ! A118  A(66,65,67)           117.2446                                         !
 ! A119  A(66,65,68)           121.4755                                         !
 ! A120  A(67,65,68)           120.9137                                         !
 ! A121  A(60,68,62)           121.3173                                         !
 ! A122  A(60,68,65)           118.5518                                         !
 ! A123  A(62,68,65)           120.1309                                         !
 ! A124  A(49,69,70)           107.5574                                         !
 ! D1    D(2,1,4,5)             54.8448                                         !
 ! D2    D(2,1,4,6)            -64.2613                                         !
 ! D3    D(2,1,4,7)            172.078                                          !
 ! D4    D(3,1,4,5)            168.3507                                         !
 ! D5    D(3,1,4,6)             49.2446                                         !
 ! D6    D(3,1,4,7)            -74.4161                                         !
 ! D7    D(1,4,6,10)           -17.8918                                         !
 ! D8    D(1,4,6,26)           164.605                                          !
 ! D9    D(5,4,6,10)          -136.9992                                         !
 ! D10   D(5,4,6,26)            45.4976                                         !
 ! D11   D(7,4,6,10)           104.5585                                         !
 ! D12   D(7,4,6,26)           -72.9447                                         !
 ! D13   D(1,4,7,8)            -52.138                                          !
 ! D14   D(1,4,7,9)             61.7724                                         !
 ! D15   D(1,4,7,11)          -175.245                                          !
 ! D16   D(5,4,7,8)             64.9428                                         !
 ! D17   D(5,4,7,9)            178.8532                                         !
 ! D18   D(5,4,7,11)           -58.1642                                         !
 ! D19   D(6,4,7,8)           -176.761                                          !
 ! D20   D(6,4,7,9)            -62.8506                                         !
 ! D21   D(6,4,7,11)            60.132                                          !
 ! D22   D(4,6,26,27)           -1.885                                          !
 ! D23   D(4,6,26,28)         -178.8046                                         !
 ! D24   D(10,6,26,27)        -179.3988                                         !
 ! D25   D(10,6,26,28)           3.6816                                         !
 ! D26   D(4,7,11,12)         -122.0835                                         !
 ! D27   D(4,7,11,14)           54.5817                                         !
 ! D28   D(8,7,11,12)          117.9077                                         !
 ! D29   D(8,7,11,14)          -65.427                                          !
 ! D30   D(9,7,11,12)            0.2331                                         !
 ! D31   D(9,7,11,14)          176.8984                                         !
 ! D32   D(7,11,12,13)          -3.1445                                         !
 ! D33   D(7,11,12,18)         176.2384                                         !
 ! D34   D(14,11,12,13)        179.6229                                         !
 ! D35   D(14,11,12,18)         -0.9941                                         !
 ! D36   D(7,11,14,15)        -176.706                                          !
 ! D37   D(7,11,14,16)           2.9163                                         !
 ! D38   D(12,11,14,15)          0.4966                                         !
 ! D39   D(12,11,14,16)       -179.881                                          !
 ! D40   D(11,12,18,15)          1.1407                                         !
 ! D41   D(11,12,18,19)        170.9784                                         !
 ! D42   D(13,12,18,15)       -179.4177                                         !
 ! D43   D(13,12,18,19)         -9.58                                           !
 ! D44   D(11,14,15,18)          0.1748                                         !
 ! D45   D(11,14,15,22)        179.7247                                         !
 ! D46   D(16,14,15,18)       -179.5174                                         !
 ! D47   D(16,14,15,22)          0.0325                                         !
 ! D48   D(11,14,16,17)          2.4407                                         !
 ! D49   D(11,14,16,24)       -179.3408                                         !
 ! D50   D(15,14,16,17)       -177.9701                                         !
 ! D51   D(15,14,16,24)          0.2484                                         !
 ! D52   D(14,15,18,12)         -0.787                                          !
 ! D53   D(14,15,18,19)       -170.6271                                         !
 ! D54   D(22,15,18,12)        179.7116                                         !
 ! D55   D(22,15,18,19)          9.8716                                         !
 ! D56   D(14,15,22,20)         -0.2962                                         !
 ! D57   D(14,15,22,23)        179.3846                                         !
 ! D58   D(18,15,22,20)        179.1394                                         !
 ! D59   D(18,15,22,23)         -1.1799                                         !
 ! D60   D(14,16,24,20)         -0.2634                                         !
 ! D61   D(14,16,24,25)       -179.4711                                         !
 ! D62   D(17,16,24,20)        177.9639                                         !
 ! D63   D(17,16,24,25)         -1.2438                                         !
 ! D64   D(21,20,22,15)        179.8107                                         !
 ! D65   D(21,20,22,23)          0.1299                                         !
 ! D66   D(24,20,22,15)          0.2838                                         !
 ! D67   D(24,20,22,23)       -179.3969                                         !
 ! D68   D(21,20,24,16)       -179.5358                                         !
 ! D69   D(21,20,24,25)         -0.3257                                         !
 ! D70   D(22,20,24,16)         -0.0091                                         !
 ! D71   D(22,20,24,25)        179.2011                                         !
 ! D72   D(6,26,28,29)        -155.1117                                         !
 ! D73   D(6,26,28,30)         -40.0756                                         !
 ! D74   D(6,26,28,31)          85.2377                                         !
 ! D75   D(27,26,28,29)         27.9483                                         !
 ! D76   D(27,26,28,30)        142.9844                                         !
 ! D77   D(27,26,28,31)        -91.7023                                         !
 ! D78   D(26,28,30,33)        132.4463                                         !
 ! D79   D(26,28,30,45)        -51.1958                                         !
 ! D80   D(29,28,30,33)       -113.1992                                         !
 ! D81   D(29,28,30,45)         63.1586                                         !
 ! D82   D(31,28,30,33)          4.9562                                         !
 ! D83   D(31,28,30,45)       -178.686                                          !
 ! D84   D(26,28,31,32)        -78.2248                                         !
 ! D85   D(26,28,31,34)        163.8886                                         !
 ! D86   D(26,28,31,37)         40.3555                                         !
 ! D87   D(29,28,31,32)        163.6075                                         !
 ! D88   D(29,28,31,34)         45.7209                                         !
 ! D89   D(29,28,31,37)        -77.8122                                         !
 ! D90   D(30,28,31,32)         46.416                                          !
 ! D91   D(30,28,31,34)        -71.4706                                         !
 ! D92   D(30,28,31,37)        164.9963                                         !
 ! D93   D(28,30,45,46)         15.7549                                         !
 ! D94   D(28,30,45,47)        165.6232                                         !
 ! D95   D(33,30,45,46)       -167.8717                                         !
 ! D96   D(33,30,45,47)        -18.0034                                         !
 ! D97   D(28,31,34,35)        -87.4154                                         !
 ! D98   D(28,31,34,36)         28.7104                                         !
 ! D99   D(28,31,34,41)        150.3052                                         !
 ! D100  D(32,31,34,35)        156.0981                                         !
 ! D101  D(32,31,34,36)        -87.7761                                         !
 ! D102  D(32,31,34,41)         33.8187                                         !
 ! D103  D(37,31,34,35)         36.3875                                         !
 ! D104  D(37,31,34,36)        152.5132                                         !
 ! D105  D(37,31,34,41)        -85.892                                          !
 ! D106  D(28,31,37,38)         56.4526                                         !
 ! D107  D(28,31,37,39)        175.863                                          !
 ! D108  D(28,31,37,40)        -64.3392                                         !
 ! D109  D(32,31,37,38)        173.6469                                         !
 ! D110  D(32,31,37,39)        -66.9428                                         !
 ! D111  D(32,31,37,40)         52.855                                          !
 ! D112  D(34,31,37,38)        -66.6675                                         !
 ! D113  D(34,31,37,39)         52.7428                                         !
 ! D114  D(34,31,37,40)        172.5407                                         !
 ! D115  D(31,34,41,42)        178.8086                                         !
 ! D116  D(31,34,41,43)         58.9829                                         !
 ! D117  D(31,34,41,44)        -59.8984                                         !
 ! D118  D(35,34,41,42)         56.9602                                         !
 ! D119  D(35,34,41,43)        -62.8655                                         !
 ! D120  D(35,34,41,44)        178.2532                                         !
 ! D121  D(36,34,41,42)        -58.7783                                         !
 ! D122  D(36,34,41,43)       -178.604                                          !
 ! D123  D(36,34,41,44)         62.5147                                         !
 ! D124  D(30,45,47,48)        -45.7498                                         !
 ! D125  D(30,45,47,49)       -159.5709                                         !
 ! D126  D(30,45,47,50)         74.0612                                         !
 ! D127  D(46,45,47,48)        104.7108                                         !
 ! D128  D(46,45,47,49)         -9.1103                                         !
 ! D129  D(46,45,47,50)       -135.4781                                         !
 ! D130  D(45,47,49,53)          3.2967                                         !
 ! D131  D(45,47,49,69)       -178.2659                                         !
 ! D132  D(48,47,49,53)       -112.0818                                         !
 ! D133  D(48,47,49,69)         66.3555                                         !
 ! D134  D(50,47,49,53)        129.3855                                         !
 ! D135  D(50,47,49,69)        -52.1771                                         !
 ! D136  D(45,47,50,51)          3.7313                                         !
 ! D137  D(45,47,50,52)        120.066                                          !
 ! D138  D(45,47,50,54)       -116.935                                          !
 ! D139  D(48,47,50,51)        123.0669                                         !
 ! D140  D(48,47,50,52)       -120.5985                                         !
 ! D141  D(48,47,50,54)          2.4006                                         !
 ! D142  D(49,47,50,51)       -120.281                                          !
 ! D143  D(49,47,50,52)         -3.9464                                         !
 ! D144  D(49,47,50,54)        119.0527                                         !
 ! D145  D(47,49,69,70)       -177.5142                                         !
 ! D146  D(53,49,69,70)          0.9515                                         !
 ! D147  D(47,50,54,55)         43.7243                                         !
 ! D148  D(47,50,54,56)        -72.2667                                         !
 ! D149  D(47,50,54,57)        167.5884                                         !
 ! D150  D(51,50,54,55)        -75.152                                          !
 ! D151  D(51,50,54,56)        168.8569                                         !
 ! D152  D(51,50,54,57)         48.712                                          !
 ! D153  D(52,50,54,55)        167.1373                                         !
 ! D154  D(52,50,54,56)         51.1462                                         !
 ! D155  D(52,50,54,57)        -68.9987                                         !
 ! D156  D(50,54,57,58)         69.3136                                         !
 ! D157  D(50,54,57,59)       -172.4338                                         !
 ! D158  D(50,54,57,60)        -49.1631                                         !
 ! D159  D(55,54,57,58)       -167.2278                                         !
 ! D160  D(55,54,57,59)        -48.9752                                         !
 ! D161  D(55,54,57,60)         74.2955                                         !
 ! D162  D(56,54,57,58)        -52.6034                                         !
 ! D163  D(56,54,57,59)         65.6492                                         !
 ! D164  D(56,54,57,60)       -171.0801                                         !
 ! D165  D(54,57,60,61)        122.161                                          !
 ! D166  D(54,57,60,68)        -72.4863                                         !
 ! D167  D(58,57,60,61)          0.4928                                         !
 ! D168  D(58,57,60,68)        165.8456                                         !
 ! D169  D(59,57,60,61)       -113.7077                                         !
 ! D170  D(59,57,60,68)         51.645                                          !
 ! D171  D(57,60,68,62)         29.7659                                         !
 ! D172  D(57,60,68,65)       -150.1861                                         !
 ! D173  D(61,60,68,62)       -164.8017                                         !
 ! D174  D(61,60,68,65)         15.2462                                         !
 ! D175  D(63,62,68,60)       -172.0519                                         !
 ! D176  D(63,62,68,65)          7.8994                                         !
 ! D177  D(64,62,68,60)         36.3776                                         !
 ! D178  D(64,62,68,65)       -143.6711                                         !
 ! D179  D(66,65,68,60)         23.5785                                         !
 ! D180  D(66,65,68,62)       -156.3742                                         !
 ! D181  D(67,65,68,60)       -163.5611                                         !
 ! D182  D(67,65,68,62)         16.4863                                         !
 --------------------------------------------------------------------------------
 Symmetry turned off by external request.
 Stoichiometry    C23H36N7O4(1+)
 Framework group  C1[X(C23H36N7O4)]
 Deg. of freedom   204
 Full point group                 C1      NOp   1
                          Input orientation:                          
 ---------------------------------------------------------------------
 Center     Atomic      Atomic             Coordinates (Angstroms)
 Number     Number       Type             X           Y           Z
 ---------------------------------------------------------------------
      1          7           0        2.616734   -4.646424    1.442244
      2          1           0        2.290414   -5.048259    0.564262
      3          1           0        3.436252   -4.094917    1.186097
      4          6           0        1.604833   -3.739392    1.964695
      5          1           0        0.662194   -4.293069    2.041433
      6          6           0        1.367983   -2.523682    1.049646
      7          6           0        2.022264   -3.289216    3.396204
      8          1           0        2.223013   -4.215620    3.946893
      9          1           0        2.977097   -2.752316    3.322485
     10          8           0        2.178121   -2.186986    0.185407
     11          6           0        1.022248   -2.434548    4.118333
     12          6           0        1.237491   -1.172413    4.615912
     13          1           0        2.147446   -0.590605    4.625520
     14          6           0       -0.369067   -2.740122    4.371161
     15          6           0       -0.937963   -1.605358    5.017736
     16          6           0       -1.195057   -3.852405    4.112391
     17          1           0       -0.789205   -4.748123    3.650914
     18          7           0        0.062509   -0.663226    5.142914
     19          1           0       -0.009088    0.187402    5.679685
     20          6           0       -3.069163   -2.668818    5.128254
     21          1           0       -4.116008   -2.665014    5.417529
     22          6           0       -2.281423   -1.556997    5.403582
     23          1           0       -2.692833   -0.684914    5.904688
     24          6           0       -2.531662   -3.805383    4.489138
     25          1           0       -3.172409   -4.661824    4.300926
     26          7           0        0.230801   -1.806394    1.286015
     27          1           0       -0.400182   -2.118553    2.013927
     28          6           0       -0.154736   -0.644595    0.495774
     29          1           0       -0.797922   -0.036657    1.147863
     30          6           0        1.094305    0.201957    0.180074
     31          6           0       -0.937063   -0.974649   -0.797982
     32          1           0       -0.197027   -1.310269   -1.533380
     33          8           0        1.329699    0.615909   -0.963574
     34          6           0       -1.636859    0.296406   -1.338274
     35          1           0       -2.622329    0.392257   -0.861980
     36          1           0       -1.069927    1.189458   -1.050741
     37          6           0       -1.951506   -2.101503   -0.565903
     38          1           0       -2.646451   -1.851040    0.246407
     39          1           0       -2.546950   -2.273176   -1.468774
     40          1           0       -1.458023   -3.043283   -0.310186
     41          6           0       -1.796196    0.287216   -2.861711
     42          1           0       -2.313004    1.187238   -3.220215
     43          1           0       -2.378741   -0.574212   -3.205111
     44          1           0       -0.814785    0.223025   -3.350723
     45          7           0        1.883590    0.536545    1.226422
     46          1           0        1.769308    0.032533    2.102676
     47          6           0        3.215906    1.049298    0.938321
     48          1           0        3.667385    0.400548    0.173347
     49          6           0        4.084084    0.880575    2.173489
     50          6           0        3.193503    2.512401    0.399586
     51          1           0        2.153123    2.848722    0.425146
     52          1           0        3.761142    3.177434    1.058969
     53          8           0        3.739381    0.346889    3.205188
     54          6           0        3.740600    2.597847   -1.028709
     55          1           0        3.329213    1.776371   -1.619613
     56          1           0        4.828109    2.452946   -1.020742
     57          6           0        3.481012    3.930661   -1.737015
     58          1           0        4.076399    4.724772   -1.278673
     59          1           0        3.782453    3.857863   -2.787660
     60          7           0        2.086819    4.443361   -1.689732
     61          1           0        1.965773    5.360717   -1.282041
     62          7           0        0.931681    2.676910   -2.679586
     63          1           0        0.176843    2.378480   -3.284909
     64          1           0        1.283860    1.941236   -2.045252
     65          7           0        0.038573    4.821510   -2.696282
     66          1           0        0.210253    5.812547   -2.791384
     67          1           0       -0.872795    4.481637   -2.969658
     68          6           0        1.023748    3.965618   -2.355513
     69          8           0        5.316358    1.377268    1.962468
     70          1           0        5.843522    1.209102    2.767098
 ---------------------------------------------------------------------
 Rotational constants (GHZ):           0.1695758           0.0785015           0.0675426
 Standard basis: 6-31G(d) (6D, 7F)
   582 basis functions,  1096 primitive gaussians,   582 cartesian basis functions
   127 alpha electrons      127 beta electrons
       nuclear repulsion energy      3888.8022142043 Hartrees.
 NAtoms=   70 NActive=   70 NUniq=   70 SFac= 1.00D+00 NAtFMM=   60 NAOKFM=T Big=T
 Integral buffers will be    131072 words long.
 Raffenetti 2 integral format.
 Two-electron integral symmetry is turned off.
 Nuclear repulsion after empirical dispersion term =     3888.7090835482 Hartrees.
 One-electron integrals computed using PRISM.
 NBasis=   582 RedAO= T EigKep=  3.77D-04  NBF=   582
 NBsUse=   582 1.00D-06 EigRej= -1.00D+00 NBFU=   582
 Initial guess from the checkpoint file:  "conf-962.chk"
 B after Tr=     0.000000    0.000000    0.000000
         Rot=    1.000000    0.000000    0.000000    0.000000 Ang=   0.00 deg.
 Requested convergence on RMS density matrix=1.00D-08 within 128 cycles.
 Requested convergence on MAX density matrix=1.00D-06.
 Requested convergence on             energy=1.00D-06.
 No special actions if energy rises.
 SCF Done:  E(RB3LYP) =  -1582.24465182     A.U. after    1 cycles
            NFock=  1  Conv=0.49D-08     -V/T= 2.0095

 **********************************************************************

            Population analysis using the SCF Density.

 **********************************************************************

 Alpha  occ. eigenvalues --  -19.30409 -19.25105 -19.22896 -19.19783 -14.52930
 Alpha  occ. eigenvalues --  -14.52543 -14.50633 -14.45929 -14.44885 -14.44322
 Alpha  occ. eigenvalues --  -14.37687 -10.48540 -10.43093 -10.39727 -10.36152
 Alpha  occ. eigenvalues --  -10.36126 -10.34528 -10.32844 -10.30189 -10.30127
 Alpha  occ. eigenvalues --  -10.29345 -10.28875 -10.28412 -10.27545 -10.27261
 Alpha  occ. eigenvalues --  -10.27043 -10.25926 -10.25677 -10.25437 -10.25364
 Alpha  occ. eigenvalues --  -10.25353 -10.25203 -10.25114 -10.24686  -1.21509
 Alpha  occ. eigenvalues --   -1.16886  -1.14705  -1.12657  -1.11480  -1.06259
 Alpha  occ. eigenvalues --   -1.04763  -1.04731  -1.03049  -1.00792  -0.95407
 Alpha  occ. eigenvalues --   -0.91909  -0.90568  -0.89719  -0.87296  -0.86763
 Alpha  occ. eigenvalues --   -0.83370  -0.81553  -0.80842  -0.80108  -0.79273
 Alpha  occ. eigenvalues --   -0.78148  -0.77661  -0.74326  -0.73337  -0.72788
 Alpha  occ. eigenvalues --   -0.72598  -0.70208  -0.69726  -0.68892  -0.68361
 Alpha  occ. eigenvalues --   -0.67349  -0.66051  -0.65760  -0.65206  -0.65023
 Alpha  occ. eigenvalues --   -0.63087  -0.61899  -0.61244  -0.60885  -0.60140
 Alpha  occ. eigenvalues --   -0.59613  -0.58771  -0.58129  -0.57372  -0.56280
 Alpha  occ. eigenvalues --   -0.55708  -0.55195  -0.55138  -0.54753  -0.54206
 Alpha  occ. eigenvalues --   -0.53816  -0.52871  -0.52775  -0.52260  -0.51536
 Alpha  occ. eigenvalues --   -0.51295  -0.50811  -0.50214  -0.49681  -0.49597
 Alpha  occ. eigenvalues --   -0.49187  -0.48596  -0.48231  -0.47794  -0.47164
 Alpha  occ. eigenvalues --   -0.46951  -0.46176  -0.45893  -0.45727  -0.45152
 Alpha  occ. eigenvalues --   -0.44778  -0.44691  -0.44297  -0.43615  -0.42893
 Alpha  occ. eigenvalues --   -0.42598  -0.42002  -0.41569  -0.41262  -0.41111
 Alpha  occ. eigenvalues --   -0.40932  -0.40103  -0.39594  -0.38633  -0.37165
 Alpha  occ. eigenvalues --   -0.36357  -0.34491  -0.33477  -0.33379  -0.30537
 Alpha  occ. eigenvalues --   -0.29142  -0.27094
 Alpha virt. eigenvalues --   -0.13884  -0.09934  -0.09221  -0.08611  -0.08079
 Alpha virt. eigenvalues --   -0.05792  -0.05497  -0.04427  -0.04063  -0.02464
 Alpha virt. eigenvalues --   -0.01477  -0.00934  -0.00033   0.00239   0.01106
 Alpha virt. eigenvalues --    0.01221   0.01591   0.02206   0.02762   0.02895
 Alpha virt. eigenvalues --    0.03740   0.04275   0.04461   0.05196   0.05396
 Alpha virt. eigenvalues --    0.05887   0.06083   0.06099   0.06620   0.07115
 Alpha virt. eigenvalues --    0.07412   0.07816   0.08135   0.08435   0.08931
 Alpha virt. eigenvalues --    0.09132   0.09753   0.10086   0.10383   0.10713
 Alpha virt. eigenvalues --    0.10966   0.11816   0.11959   0.12216   0.12365
 Alpha virt. eigenvalues --    0.12639   0.13134   0.13879   0.14292   0.14984
 Alpha virt. eigenvalues --    0.15437   0.16006   0.16961   0.17407   0.17668
 Alpha virt. eigenvalues --    0.17979   0.18449   0.18559   0.19469   0.19577
 Alpha virt. eigenvalues --    0.20740   0.21410   0.21756   0.22858   0.23499
 Alpha virt. eigenvalues --    0.24256   0.24906   0.25170   0.25866   0.27533
 Alpha virt. eigenvalues --    0.28339   0.29543   0.29689   0.32576   0.34356
 Alpha virt. eigenvalues --    0.34547   0.36119   0.37047   0.38469   0.39602
 Alpha virt. eigenvalues --    0.40264   0.41286   0.41620   0.42415   0.42786
 Alpha virt. eigenvalues --    0.42900   0.43730   0.43866   0.44618   0.44831
 Alpha virt. eigenvalues --    0.45502   0.45787   0.46650   0.47028   0.47798
 Alpha virt. eigenvalues --    0.48198   0.48557   0.49284   0.49602   0.50096
 Alpha virt. eigenvalues --    0.50379   0.50907   0.51330   0.51635   0.52274
 Alpha virt. eigenvalues --    0.52546   0.52870   0.53272   0.53589   0.54209
 Alpha virt. eigenvalues --    0.54853   0.54905   0.55118   0.55345   0.55715
 Alpha virt. eigenvalues --    0.56096   0.56290   0.56614   0.56823   0.57517
 Alpha virt. eigenvalues --    0.57800   0.58584   0.58897   0.59128   0.59923
 Alpha virt. eigenvalues --    0.60300   0.60640   0.62217   0.62329   0.63319
 Alpha virt. eigenvalues --    0.65025   0.65502   0.65993   0.66324   0.66973
 Alpha virt. eigenvalues --    0.67549   0.67631   0.68018   0.68562   0.69133
 Alpha virt. eigenvalues --    0.69931   0.70495   0.70730   0.71541   0.71903
 Alpha virt. eigenvalues --    0.72297   0.72961   0.73564   0.74159   0.74698
 Alpha virt. eigenvalues --    0.75221   0.75558   0.76023   0.76396   0.76526
 Alpha virt. eigenvalues --    0.77046   0.77177   0.77885   0.78508   0.78781
 Alpha virt. eigenvalues --    0.78919   0.79437   0.79833   0.80238   0.80349
 Alpha virt. eigenvalues --    0.80896   0.81105   0.81503   0.82125   0.82258
 Alpha virt. eigenvalues --    0.82880   0.83142   0.83357   0.83597   0.84024
 Alpha virt. eigenvalues --    0.84961   0.85879   0.85966   0.86083   0.86615
 Alpha virt. eigenvalues --    0.87010   0.87756   0.88644   0.89044   0.89581
 Alpha virt. eigenvalues --    0.89926   0.90414   0.90844   0.91480   0.91776
 Alpha virt. eigenvalues --    0.92167   0.93193   0.93355   0.93897   0.94266
 Alpha virt. eigenvalues --    0.94503   0.95164   0.95748   0.97342   0.98115
 Alpha virt. eigenvalues --    0.99386   0.99623   1.01637   1.02617   1.03403
 Alpha virt. eigenvalues --    1.04569   1.04784   1.05598   1.05931   1.07477
 Alpha virt. eigenvalues --    1.08450   1.09571   1.10305   1.11127   1.12600
 Alpha virt. eigenvalues --    1.13178   1.13504   1.14868   1.16029   1.16383
 Alpha virt. eigenvalues --    1.17403   1.18730   1.19851   1.20456   1.20709
 Alpha virt. eigenvalues --    1.22426   1.23639   1.24001   1.25156   1.25599
 Alpha virt. eigenvalues --    1.26079   1.26943   1.27562   1.28435   1.29879
 Alpha virt. eigenvalues --    1.30220   1.32622   1.33099   1.34606   1.35296
 Alpha virt. eigenvalues --    1.35805   1.37666   1.38179   1.39379   1.39981
 Alpha virt. eigenvalues --    1.40768   1.41482   1.41804   1.42838   1.43427
 Alpha virt. eigenvalues --    1.44252   1.44682   1.45224   1.45933   1.46373
 Alpha virt. eigenvalues --    1.47451   1.47955   1.50834   1.51515   1.51860
 Alpha virt. eigenvalues --    1.52711   1.54155   1.55139   1.55509   1.56327
 Alpha virt. eigenvalues --    1.56726   1.58677   1.59057   1.60588   1.61890
 Alpha virt. eigenvalues --    1.63043   1.63349   1.64210   1.65431   1.65927
 Alpha virt. eigenvalues --    1.67210   1.68041   1.68329   1.68919   1.68943
 Alpha virt. eigenvalues --    1.70454   1.70978   1.72068   1.72524   1.73290
 Alpha virt. eigenvalues --    1.74102   1.74609   1.76291   1.77150   1.77894
 Alpha virt. eigenvalues --    1.78972   1.79790   1.80183   1.80275   1.80871
 Alpha virt. eigenvalues --    1.81579   1.82107   1.83226   1.84002   1.84208
 Alpha virt. eigenvalues --    1.84894   1.85615   1.86306   1.86883   1.87201
 Alpha virt. eigenvalues --    1.87571   1.88242   1.89277   1.89645   1.89921
 Alpha virt. eigenvalues --    1.90544   1.91592   1.92274   1.92687   1.93223
 Alpha virt. eigenvalues --    1.93951   1.94777   1.95131   1.96175   1.96823
 Alpha virt. eigenvalues --    1.97412   1.97974   1.98705   1.99975   2.00904
 Alpha virt. eigenvalues --    2.01194   2.01625   2.03313   2.04752   2.05359
 Alpha virt. eigenvalues --    2.05733   2.06318   2.07246   2.08165   2.09026
 Alpha virt. eigenvalues --    2.10392   2.11077   2.12133   2.12869   2.13584
 Alpha virt. eigenvalues --    2.14154   2.14523   2.16878   2.18282   2.18604
 Alpha virt. eigenvalues --    2.19340   2.20088   2.21130   2.22496   2.23009
 Alpha virt. eigenvalues --    2.23545   2.24565   2.25388   2.26205   2.27584
 Alpha virt. eigenvalues --    2.27926   2.29324   2.30543   2.30890   2.31688
 Alpha virt. eigenvalues --    2.32742   2.33169   2.34254   2.34625   2.35515
 Alpha virt. eigenvalues --    2.37557   2.38160   2.38326   2.39308   2.41009
 Alpha virt. eigenvalues --    2.42053   2.42969   2.43341   2.44079   2.44936
 Alpha virt. eigenvalues --    2.45773   2.45890   2.46317   2.48315   2.49199
 Alpha virt. eigenvalues --    2.49404   2.50282   2.51559   2.52458   2.54170
 Alpha virt. eigenvalues --    2.54893   2.56869   2.57849   2.58564   2.59395
 Alpha virt. eigenvalues --    2.60292   2.60650   2.61239   2.61877   2.63448
 Alpha virt. eigenvalues --    2.65978   2.66431   2.67986   2.70565   2.72143
 Alpha virt. eigenvalues --    2.72355   2.74721   2.76733   2.77663   2.79345
 Alpha virt. eigenvalues --    2.80253   2.85489   2.86244   2.86510   2.89477
 Alpha virt. eigenvalues --    2.91442   2.93652   2.94296   2.94892   2.99617
 Alpha virt. eigenvalues --    3.01869   3.06307   3.09598   3.12379   3.18008
 Alpha virt. eigenvalues --    3.37295   3.64436   3.75447   3.76546   3.80507
 Alpha virt. eigenvalues --    3.84234   3.94795   3.95289   3.97194   4.01297
 Alpha virt. eigenvalues --    4.03221   4.05755   4.07830   4.08200   4.08873
 Alpha virt. eigenvalues --    4.13035   4.15582   4.16414   4.17461   4.22156
 Alpha virt. eigenvalues --    4.25821   4.28955   4.30754   4.32867   4.33522
 Alpha virt. eigenvalues --    4.34661   4.37497   4.43499   4.44254   4.46660
 Alpha virt. eigenvalues --    4.52417   4.55178   4.57873   4.63827   4.74163
          Condensed to atoms (all electrons):
 Mulliken charges:
               1
     1  N   -0.684407
     2  H    0.306920
     3  H    0.308063
     4  C   -0.105415
     5  H    0.155095
     6  C    0.585203
     7  C   -0.334120
     8  H    0.186312
     9  H    0.149144
    10  O   -0.535492
    11  C    0.056353
    12  C   -0.033932
    13  H    0.194202
    14  C    0.028474
    15  C    0.312356
    16  C   -0.226568
    17  H    0.145069
    18  N   -0.688177
    19  H    0.333404
    20  C   -0.151065
    21  H    0.140653
    22  C   -0.164620
    23  H    0.133421
    24  C   -0.138327
    25  H    0.138978
    26  N   -0.620915
    27  H    0.361465
    28  C   -0.049241
    29  H    0.166715
    30  C    0.648935
    31  C   -0.056419
    32  H    0.164515
    33  O   -0.582865
    34  C   -0.258639
    35  H    0.145032
    36  H    0.107461
    37  C   -0.466931
    38  H    0.145722
    39  H    0.159106
    40  H    0.159504
    41  C   -0.466838
    42  H    0.127050
    43  H    0.175948
    44  H    0.143173
    45  N   -0.617584
    46  H    0.375940
    47  C   -0.011297
    48  H    0.221852
    49  C    0.568989
    50  C   -0.272717
    51  H    0.156617
    52  H    0.167956
    53  O   -0.459509
    54  C   -0.306424
    55  H    0.187488
    56  H    0.181924
    57  C   -0.158018
    58  H    0.182264
    59  H    0.196553
    60  N   -0.596518
    61  H    0.362602
    62  N   -0.767562
    63  H    0.371286
    64  H    0.457205
    65  N   -0.753383
    66  H    0.379453
    67  H    0.380944
    68  C    0.764623
    69  O   -0.559857
    70  H    0.432872
 Sum of Mulliken charges =   1.00000
 Mulliken charges with hydrogens summed into heavy atoms:
               1
     1  N   -0.069425
     4  C    0.049679
     6  C    0.585203
     7  C    0.001336
    10  O   -0.535492
    11  C    0.056353
    12  C    0.160270
    14  C    0.028474
    15  C    0.312356
    16  C   -0.081499
    18  N   -0.354773
    20  C   -0.010412
    22  C   -0.031199
    24  C    0.000651
    26  N   -0.259451
    28  C    0.117474
    30  C    0.648935
    31  C    0.108095
    33  O   -0.582865
    34  C   -0.006145
    37  C   -0.002598
    41  C   -0.020667
    45  N   -0.241644
    47  C    0.210556
    49  C    0.568989
    50  C    0.051856
    53  O   -0.459509
    54  C    0.062988
    57  C    0.220799
    60  N   -0.233917
    62  N    0.060928
    65  N    0.007013
    68  C    0.764623
    69  O   -0.126985
 Electronic spatial extent (au):  <R**2>=          18963.1383
 Charge=              1.0000 electrons
 Dipole moment (field-independent basis, Debye):
    X=              4.2726    Y=             16.5659    Z=             -3.2948  Tot=             17.4224
 Quadrupole moment (field-independent basis, Debye-Ang):
   XX=           -158.0230   YY=           -117.4458   ZZ=           -158.1869
   XY=             30.0382   XZ=              2.4608   YZ=            -26.6531
 Traceless Quadrupole moment (field-independent basis, Debye-Ang):
   XX=            -13.4711   YY=             27.1061   ZZ=            -13.6350
   XY=             30.0382   XZ=              2.4608   YZ=            -26.6531
 Octapole moment (field-independent basis, Debye-Ang**2):
  XXX=           -336.5414  YYY=            609.2454  ZZZ=           -687.7793  XYY=           -118.6255
  XXY=            160.1045  XXZ=           -172.0475  XZZ=           -174.8158  YZZ=            215.6493
  YYZ=           -427.5639  XYZ=             17.6611
 Hexadecapole moment (field-independent basis, Debye-Ang**3):
 XXXX=          -5345.4040 YYYY=          -6084.8459 ZZZZ=          -9493.2564 XXXY=           -633.5694
 XXXZ=            232.7837 YYYX=           -425.7524 YYYZ=           2037.7959 ZZZX=           -100.7146
 ZZZY=           2976.1222 XXYY=          -2181.0463 XXZZ=          -2375.3771 YYZZ=          -2714.4122
 XXYZ=            911.1912 YYXZ=           -211.2317 ZZXY=           -238.3622
 N-N= 3.888709083548D+03 E-N=-1.143406965454D+04  KE= 1.567338879738D+03
 Unable to Open any file for archive entry.
 1\1\GINC-AMR-025\SP\RB3LYP\6-31G(d)\C23H36N7O4(1+)\KENGMITH\03-Jun-202
 2\0\\# B3LYP/6-31G* empiricaldispersion=gd3 guess=read geom=check nosy
 mm integral(ultrafinegrid)\\Candidate Structure: Conf:962 Charge calc 
 in gas phase\\1,1\N,0,2.6167340373,-4.6464244682,1.4422437641\H,0,2.29
 0413711,-5.0482586351,0.564262376\H,0,3.4362519412,-4.0949168383,1.186
 0968664\C,0,1.6048331356,-3.7393918106,1.9646951873\H,0,0.6621943803,-
 4.2930685944,2.0414328255\C,0,1.3679831317,-2.5236822922,1.0496462309\
 C,0,2.0222636423,-3.2892164372,3.3962041041\H,0,2.2230125235,-4.215620
 2776,3.9468925889\H,0,2.9770972742,-2.7523162885,3.322485205\O,0,2.178
 1211482,-2.1869858908,0.1854065365\C,0,1.0222483245,-2.4345484435,4.11
 83330368\C,0,1.2374911739,-1.172413148,4.6159117136\H,0,2.1474457579,-
 0.5906049625,4.6255195429\C,0,-0.3690665093,-2.7401223357,4.3711613274
 \C,0,-0.937963217,-1.6053577874,5.017735556\C,0,-1.1950572401,-3.85240
 46461,4.1123910488\H,0,-0.7892053627,-4.7481233829,3.6509136128\N,0,0.
 062508587,-0.66322555,5.1429135109\H,0,-0.0090879438,0.1874018746,5.67
 96851514\C,0,-3.0691631202,-2.6688182588,5.1282540892\H,0,-4.116007884
 4,-2.6650141172,5.4175289438\C,0,-2.2814229981,-1.5569972698,5.4035823
 949\H,0,-2.6928328303,-0.6849139747,5.9046880104\C,0,-2.5316624813,-3.
 8053834888,4.4891378752\H,0,-3.1724088392,-4.6618242215,4.3009261688\N
 ,0,0.2308007379,-1.8063937334,1.286015444\H,0,-0.4001820161,-2.1185526
 836,2.0139268515\C,0,-0.1547362118,-0.6445946295,0.4957742545\H,0,-0.7
 979217932,-0.036657171,1.1478629175\C,0,1.0943046704,0.2019566809,0.18
 00736786\C,0,-0.9370630343,-0.9746493599,-0.7979818375\H,0,-0.19702718
 66,-1.3102686438,-1.5333804424\O,0,1.3296986622,0.6159090909,-0.963573
 9927\C,0,-1.636858944,0.2964060277,-1.338273769\H,0,-2.6223291607,0.39
 22571482,-0.8619803928\H,0,-1.0699266114,1.1894582835,-1.0507411499\C,
 0,-1.9515055859,-2.1015029926,-0.5659030008\H,0,-2.6464512892,-1.85104
 04085,0.2464066239\H,0,-2.54694982,-2.2731756069,-1.46877364\H,0,-1.45
 80229295,-3.0432833075,-0.3101863093\C,0,-1.7961958115,0.2872163852,-2
 .8617109587\H,0,-2.3130044503,1.187238171,-3.2202148429\H,0,-2.3787406
 089,-0.574212366,-3.2051114367\H,0,-0.8147854108,0.2230254632,-3.35072
 3205\N,0,1.883590372,0.5365446575,1.2264224323\H,0,1.7693077896,0.0325
 332916,2.1026764479\C,0,3.2159062901,1.0492975276,0.9383209903\H,0,3.6
 673851624,0.4005478536,0.1733467683\C,0,4.0840844196,0.8805750973,2.17
 34894258\C,0,3.1935028076,2.5124008353,0.3995860465\H,0,2.1531232631,2
 .8487224402,0.4251457521\H,0,3.7611423434,3.177433913,1.0589690735\O,0
 ,3.7393805236,0.346889416,3.2051883353\C,0,3.7406003319,2.5978468413,-
 1.0287088075\H,0,3.3292134164,1.7763710635,-1.6196125271\H,0,4.8281091
 817,2.4529458325,-1.0207415139\C,0,3.4810121003,3.9306614744,-1.737015
 3787\H,0,4.0763986484,4.7247717972,-1.2786725131\H,0,3.7824526785,3.85
 78626357,-2.7876603925\N,0,2.0868190094,4.4433614674,-1.6897323294\H,0
 ,1.9657730451,5.3607166837,-1.2820405321\N,0,0.9316814957,2.6769099576
 ,-2.6795863728\H,0,0.1768431864,2.3784797244,-3.2849085643\H,0,1.28385
 9655,1.9412355541,-2.0452524792\N,0,0.038572966,4.8215098782,-2.696282
 0587\H,0,0.2102533893,5.8125469646,-2.7913839493\H,0,-0.8727950486,4.4
 816374266,-2.9696584482\C,0,1.0237477171,3.9656178625,-2.3555133447\O,
 0,5.3163584163,1.3772676955,1.962468319\H,0,5.8435216714,1.209101606,2
 .7670977402\\Version=ES64L-G16RevC.01\HF=-1582.2446518\RMSD=4.866e-09\
 Dipole=-0.0865709,7.0132102,-3.4368462\Quadrupole=-10.0154626,20.15272
 45,-10.1372619,22.3326968,1.8295775,-19.81596\PG=C01 [X(C23H36N7O4)]\\
 @
 The archive entry for this job was punched.


 IF GOD HAD MEANT MAN TO SEE THE SUN RISE, HE
 WOULD HAVE SCHEDULED IT FOR A LATER HOUR.
 Job cpu time:       0 days  0 hours  1 minutes 20.7 seconds.
 Elapsed time:       0 days  0 hours  0 minutes 20.8 seconds.
 File lengths (MBytes):  RWF=    296 Int=      0 D2E=      0 Chk=     40 Scr=     16
 Normal termination of Gaussian 16 at Fri Jun  3 04:42:20 2022.
