 Entering Gaussian System, Link 0=/opt/software/Gaussian/g16-AVX2-C.01/g16/g16
 Input=charge-conf-950.com
 Output=charge-conf-950.log
 Initial command:
 /opt/software/Gaussian/g16-AVX2-C.01/g16/l1.exe "/mnt/gs18/scratch/users/kengmith/Gau-11771.inp" -scrdir="/mnt/gs18/scratch/users/kengmith/"
 Entering Link 1 = /opt/software/Gaussian/g16-AVX2-C.01/g16/l1.exe PID=     11781.
  
 Copyright (c) 1988-2019, Gaussian, Inc.  All Rights Reserved.
  
 This is part of the Gaussian(R) 16 program.  It is based on
 the Gaussian(R) 09 system (copyright 2009, Gaussian, Inc.),
 the Gaussian(R) 03 system (copyright 2003, Gaussian, Inc.),
 the Gaussian(R) 98 system (copyright 1998, Gaussian, Inc.),
 the Gaussian(R) 94 system (copyright 1995, Gaussian, Inc.),
 the Gaussian 92(TM) system (copyright 1992, Gaussian, Inc.),
 the Gaussian 90(TM) system (copyright 1990, Gaussian, Inc.),
 the Gaussian 88(TM) system (copyright 1988, Gaussian, Inc.),
 the Gaussian 86(TM) system (copyright 1986, Carnegie Mellon
 University), and the Gaussian 82(TM) system (copyright 1983,
 Carnegie Mellon University). Gaussian is a federally registered
 trademark of Gaussian, Inc.
  
 This software contains proprietary and confidential information,
 including trade secrets, belonging to Gaussian, Inc.
  
 This software is provided under written license and may be
 used, copied, transmitted, or stored only in accord with that
 written license.
  
 The following legend is applicable only to US Government
 contracts under FAR:
  
                    RESTRICTED RIGHTS LEGEND
  
 Use, reproduction and disclosure by the US Government is
 subject to restrictions as set forth in subparagraphs (a)
 and (c) of the Commercial Computer Software - Restricted
 Rights clause in FAR 52.227-19.
  
 Gaussian, Inc.
 340 Quinnipiac St., Bldg. 40, Wallingford CT 06492
  
  
 ---------------------------------------------------------------
 Warning -- This program may not be used in any manner that
 competes with the business of Gaussian, Inc. or will provide
 assistance to any competitor of Gaussian, Inc.  The licensee
 of this program is prohibited from giving any competitor of
 Gaussian, Inc. access to this program.  By using this program,
 the user acknowledges that Gaussian, Inc. is engaged in the
 business of creating and licensing software in the field of
 computational chemistry and represents and warrants to the
 licensee that it is not a competitor of Gaussian, Inc. and that
 it will not use this program in any manner prohibited above.
 ---------------------------------------------------------------
  

 Cite this work as:
 Gaussian 16, Revision C.01,
 M. J. Frisch, G. W. Trucks, H. B. Schlegel, G. E. Scuseria, 
 M. A. Robb, J. R. Cheeseman, G. Scalmani, V. Barone, 
 G. A. Petersson, H. Nakatsuji, X. Li, M. Caricato, A. V. Marenich, 
 J. Bloino, B. G. Janesko, R. Gomperts, B. Mennucci, H. P. Hratchian, 
 J. V. Ortiz, A. F. Izmaylov, J. L. Sonnenberg, D. Williams-Young, 
 F. Ding, F. Lipparini, F. Egidi, J. Goings, B. Peng, A. Petrone, 
 T. Henderson, D. Ranasinghe, V. G. Zakrzewski, J. Gao, N. Rega, 
 G. Zheng, W. Liang, M. Hada, M. Ehara, K. Toyota, R. Fukuda, 
 J. Hasegawa, M. Ishida, T. Nakajima, Y. Honda, O. Kitao, H. Nakai, 
 T. Vreven, K. Throssell, J. A. Montgomery, Jr., J. E. Peralta, 
 F. Ogliaro, M. J. Bearpark, J. J. Heyd, E. N. Brothers, K. N. Kudin, 
 V. N. Staroverov, T. A. Keith, R. Kobayashi, J. Normand, 
 K. Raghavachari, A. P. Rendell, J. C. Burant, S. S. Iyengar, 
 J. Tomasi, M. Cossi, J. M. Millam, M. Klene, C. Adamo, R. Cammi, 
 J. W. Ochterski, R. L. Martin, K. Morokuma, O. Farkas, 
 J. B. Foresman, and D. J. Fox, Gaussian, Inc., Wallingford CT, 2019.
 
 ******************************************
 Gaussian 16:  ES64L-G16RevC.01  3-Jul-2019
                23-Jun-2022 
 ******************************************
 %mem=8gb
 %nproc=4
 Will use up to    4 processors via shared memory.
 %chk=conf-950.chk
 ----------------------------------------------------------------------
 # B3LYP/6-31G* empiricaldispersion=gd3bj guess=read geom=check nosymm 
 integral(ultrafinegrid)
 ----------------------------------------------------------------------
 1/29=2,38=1,172=1/1;
 2/12=2,15=1,40=1/2;
 3/5=1,6=6,7=1,11=2,14=-4,25=1,30=1,74=-5,75=-5,116=-2,124=41/1,2,3;
 4/5=1/1;
 5/5=2,38=6/2;
 6/7=2,8=2,9=2,10=2,28=1/1;
 99/5=1,9=1/99;
 ------------------------------------------------------
 Candidate Structure: Conf:950 Charge calc in gas phase
 ------------------------------------------------------
 Structure from the checkpoint file:  "conf-950.chk"
 Charge =  1 Multiplicity = 1
 Redundant internal coordinates found in file.  (old form).
 N,0,-3.5438038212,-1.040674609,-3.3641429964
 H,0,-3.6344563419,-2.0600795853,-3.3260752105
 H,0,-3.955134865,-0.6258137317,-2.4609213008
 H,0,-4.0290338894,-0.6979086782,-4.1974524684
 C,0,-2.1104219958,-0.5691942027,-3.2539218736
 H,0,-1.4505155833,-1.4087574968,-3.4845205002
 C,0,-2.0281018416,-0.1696275679,-1.7506920594
 C,0,-1.8790210327,0.6010978248,-4.2231815711
 H,0,-2.5448696662,1.4284899169,-3.9496775943
 H,0,-2.1538841672,0.2778572074,-5.2329102286
 O,0,-3.1119551044,-0.0081173292,-1.1630720262
 C,0,-0.421933956,1.0844715867,-4.2384770401
 H,0,-0.1195900449,1.5136554584,-3.2787264566
 H,0,0.258677312,0.2411777423,-4.4248542136
 C,0,-0.1046501165,2.111657486,-5.3084789032
 O,0,0.8870947116,2.8183597782,-5.2950520847
 O,0,-1.0063752494,2.1456296959,-6.2971117501
 N,0,-0.8202211265,-0.0370461927,-1.239737931
 H,0,0.0111072371,-0.0838840449,-1.8253830943
 C,0,-0.4915750652,0.3804632529,0.1263023461
 H,0,-1.3380547168,0.9376674096,0.5326833693
 C,0,0.74618223,1.2840327062,0.0012547871
 C,0,-0.1572793711,-0.8410748958,1.0093543278
 H,0,0.2876205484,-0.4767353989,1.9448215488
 H,0,0.6307506482,-1.4104412569,0.4970474629
 O,0,1.3553047044,1.3171788845,-1.102371248
 C,0,-1.3467953735,-1.7605816937,1.3274122558
 H,0,-1.7947476678,-2.1039423258,0.3805484901
 C,0,-0.8348059149,-2.9939884244,2.0832354506
 H,0,-0.3736469481,-2.698883731,3.0325754251
 H,0,-1.655021296,-3.684446781,2.3076286513
 H,0,-0.0814736816,-3.5381245603,1.501722761
 C,0,-2.4282514081,-1.0347876575,2.1377786759
 H,0,-2.0014255101,-0.6137316266,3.0556391532
 H,0,-2.8970217179,-0.2241622989,1.5699103502
 H,0,-3.2238478385,-1.7299128049,2.4272499544
 N,0,1.1039348099,1.9032489972,1.11449476
 H,0,0.648936869,1.5740682616,2.0132599331
 C,0,2.5043986145,2.0715643417,1.552651103
 H,0,3.158329803,1.53218885,0.8598096801
 C,0,2.5330533622,1.3389671711,2.9745356343
 C,0,2.9974841743,3.5063051502,1.7128435534
 H,0,3.935985613,3.4211040415,2.2678343802
 H,0,2.3043361964,4.0647541892,2.356804841
 O,0,3.6386542184,1.286076968,3.5107725147
 C,0,3.2395063502,4.267472388,0.4038913431
 H,0,3.8926916747,5.1315299034,0.5820166787
 H,0,3.7653287924,3.6171985679,-0.3075302527
 C,0,1.9349341301,4.7642222888,-0.2218354044
 H,0,1.4652246445,5.5175567188,0.4166370031
 H,0,1.2111845802,3.9550184889,-0.3294145361
 N,0,2.1165547871,5.3856804707,-1.5436549599
 H,0,2.4646848816,6.3355299321,-1.5627037343
 N,0,2.0755898654,3.3789500902,-2.7312058319
 H,0,1.8932803624,2.9484425687,-3.6335611401
 H,0,2.003567089,2.7626637382,-1.9074726023
 N,0,2.3489629977,5.3799203518,-3.8515720167
 H,0,2.2774403065,4.8684083316,-4.7209974077
 H,0,2.1092284167,6.3600494244,-3.8919361038
 C,0,2.1748640775,4.7006910415,-2.690536972
 O,0,1.3883099551,0.9330223863,3.3565815426
 H,0,-0.708492062,2.8017386723,-6.9577464436
 Recover connectivity data from disk.
                           ----------------------------
                           !    Current Parameters    !
                           ! (Angstroms and Degrees)  !
 --------------------------                            --------------------------
 ! Name  Definition              Value                                          !
 --------------------------------------------------------------------------------
 ! R1    R(1,2)                  1.0241                                         !
 ! R2    R(1,3)                  1.0757                                         !
 ! R3    R(1,4)                  1.0234                                         !
 ! R4    R(1,5)                  1.513                                          !
 ! R5    R(5,6)                  1.0925                                         !
 ! R6    R(5,7)                  1.5576                                         !
 ! R7    R(5,8)                  1.5371                                         !
 ! R8    R(7,11)                 1.2434                                         !
 ! R9    R(7,18)                 1.3182                                         !
 ! R10   R(8,9)                  1.0967                                         !
 ! R11   R(8,10)                 1.0953                                         !
 ! R12   R(8,12)                 1.5352                                         !
 ! R13   R(12,13)                1.094                                          !
 ! R14   R(12,14)                1.0996                                         !
 ! R15   R(12,15)                1.5168                                         !
 ! R16   R(15,16)                1.2179                                         !
 ! R17   R(15,17)                1.3385                                         !
 ! R18   R(17,62)                0.9776                                         !
 ! R19   R(18,19)                1.018                                          !
 ! R20   R(18,20)                1.4657                                         !
 ! R21   R(20,21)                1.0919                                         !
 ! R22   R(20,22)                1.5376                                         !
 ! R23   R(20,23)                1.5439                                         !
 ! R24   R(22,26)                1.261                                          !
 ! R25   R(22,37)                1.3231                                         !
 ! R26   R(23,24)                1.0981                                         !
 ! R27   R(23,25)                1.0989                                         !
 ! R28   R(23,27)                1.5368                                         !
 ! R29   R(27,28)                1.1023                                         !
 ! R30   R(27,29)                1.5345                                         !
 ! R31   R(27,33)                1.534                                          !
 ! R32   R(29,30)                1.0959                                         !
 ! R33   R(29,31)                1.0954                                         !
 ! R34   R(29,32)                1.0962                                         !
 ! R35   R(33,34)                1.0963                                         !
 ! R36   R(33,35)                1.0951                                         !
 ! R37   R(33,36)                1.0954                                         !
 ! R38   R(37,38)                1.0598                                         !
 ! R39   R(37,39)                1.477                                          !
 ! R40   R(39,40)                1.0948                                         !
 ! R41   R(39,41)                1.5998                                         !
 ! R42   R(39,42)                1.5255                                         !
 ! R43   R(41,45)                1.2299                                         !
 ! R44   R(41,61)                1.2733                                         !
 ! R45   R(42,43)                1.0936                                         !
 ! R46   R(42,44)                1.0986                                         !
 ! R47   R(42,46)                1.5334                                         !
 ! R48   R(46,47)                1.0977                                         !
 ! R49   R(46,48)                1.0979                                         !
 ! R50   R(46,49)                1.5298                                         !
 ! R51   R(49,50)                1.0935                                         !
 ! R52   R(49,51)                1.091                                          !
 ! R53   R(49,52)                1.4719                                         !
 ! R54   R(52,53)                1.0118                                         !
 ! R55   R(52,60)                1.3371                                         !
 ! R56   R(54,55)                1.0163                                         !
 ! R57   R(54,56)                1.0313                                         !
 ! R58   R(54,60)                1.3261                                         !
 ! R59   R(57,58)                1.0113                                         !
 ! R60   R(57,59)                1.0098                                         !
 ! R61   R(57,60)                1.3563                                         !
 ! A1    A(2,1,3)              108.5921                                         !
 ! A2    A(2,1,4)              108.7646                                         !
 ! A3    A(2,1,5)              113.0381                                         !
 ! A4    A(3,1,4)              111.9149                                         !
 ! A5    A(3,1,5)              100.4233                                         !
 ! A6    A(4,1,5)              113.8377                                         !
 ! A7    A(1,5,6)              108.5065                                         !
 ! A8    A(1,5,7)              101.5557                                         !
 ! A9    A(1,5,8)              109.5091                                         !
 ! A10   A(6,5,7)              111.6492                                         !
 ! A11   A(6,5,8)              111.166                                          !
 ! A12   A(7,5,8)              113.9102                                         !
 ! A13   A(5,7,11)             116.3169                                         !
 ! A14   A(5,7,18)             116.6356                                         !
 ! A15   A(11,7,18)            127.0474                                         !
 ! A16   A(5,8,9)              109.011                                          !
 ! A17   A(5,8,10)             108.5941                                         !
 ! A18   A(5,8,12)             112.8851                                         !
 ! A19   A(9,8,10)             107.4699                                         !
 ! A20   A(9,8,12)             109.9488                                         !
 ! A21   A(10,8,12)            108.7789                                         !
 ! A22   A(8,12,13)            112.1535                                         !
 ! A23   A(8,12,14)            110.3454                                         !
 ! A24   A(8,12,15)            114.7574                                         !
 ! A25   A(13,12,14)           106.1715                                         !
 ! A26   A(13,12,15)           107.1813                                         !
 ! A27   A(14,12,15)           105.683                                          !
 ! A28   A(12,15,16)           123.7478                                         !
 ! A29   A(12,15,17)           113.4095                                         !
 ! A30   A(16,15,17)           122.8206                                         !
 ! A31   A(15,17,62)           108.113                                          !
 ! A32   A(7,18,19)            121.378                                          !
 ! A33   A(7,18,20)            126.5381                                         !
 ! A34   A(19,18,20)           111.4795                                         !
 ! A35   A(18,20,21)           108.5669                                         !
 ! A36   A(18,20,22)           105.789                                          !
 ! A37   A(18,20,23)           110.8689                                         !
 ! A38   A(21,20,22)           110.7608                                         !
 ! A39   A(21,20,23)           111.0237                                         !
 ! A40   A(22,20,23)           109.7043                                         !
 ! A41   A(20,22,26)           118.3908                                         !
 ! A42   A(20,22,37)           115.1032                                         !
 ! A43   A(26,22,37)           126.4021                                         !
 ! A44   A(20,23,24)           108.208                                          !
 ! A45   A(20,23,25)           107.3709                                         !
 ! A46   A(20,23,27)           115.0989                                         !
 ! A47   A(24,23,25)           106.1721                                         !
 ! A48   A(24,23,27)           109.6227                                         !
 ! A49   A(25,23,27)           109.9707                                         !
 ! A50   A(23,27,28)           108.8535                                         !
 ! A51   A(23,27,29)           108.9426                                         !
 ! A52   A(23,27,33)           111.8354                                         !
 ! A53   A(28,27,29)           107.9572                                         !
 ! A54   A(28,27,33)           108.3408                                         !
 ! A55   A(29,27,33)           110.8138                                         !
 ! A56   A(27,29,30)           110.5264                                         !
 ! A57   A(27,29,31)           110.9603                                         !
 ! A58   A(27,29,32)           111.5291                                         !
 ! A59   A(30,29,31)           107.9012                                         !
 ! A60   A(30,29,32)           107.6983                                         !
 ! A61   A(31,29,32)           108.0809                                         !
 ! A62   A(27,33,34)           110.4585                                         !
 ! A63   A(27,33,35)           112.2142                                         !
 ! A64   A(27,33,36)           110.5727                                         !
 ! A65   A(34,33,35)           108.4508                                         !
 ! A66   A(34,33,36)           107.7724                                         !
 ! A67   A(35,33,36)           107.2085                                         !
 ! A68   A(22,37,38)           116.877                                          !
 ! A69   A(22,37,39)           124.0061                                         !
 ! A70   A(38,37,39)           101.005                                          !
 ! A71   A(37,39,40)           108.8124                                         !
 ! A72   A(37,39,41)           103.2064                                         !
 ! A73   A(37,39,42)           116.4098                                         !
 ! A74   A(40,39,41)           109.0363                                         !
 ! A75   A(40,39,42)           109.6783                                         !
 ! A76   A(41,39,42)           109.3636                                         !
 ! A77   A(39,41,45)           115.0435                                         !
 ! A78   A(39,41,61)           113.3649                                         !
 ! A79   A(45,41,61)           131.5794                                         !
 ! A80   A(39,42,43)           104.9151                                         !
 ! A81   A(39,42,44)           109.6139                                         !
 ! A82   A(39,42,46)           115.355                                          !
 ! A83   A(43,42,44)           106.4731                                         !
 ! A84   A(43,42,46)           109.6588                                         !
 ! A85   A(44,42,46)           110.3411                                         !
 ! A86   A(42,46,47)           110.2509                                         !
 ! A87   A(42,46,48)           109.555                                          !
 ! A88   A(42,46,49)           112.0708                                         !
 ! A89   A(47,46,48)           106.6406                                         !
 ! A90   A(47,46,49)           108.5551                                         !
 ! A91   A(48,46,49)           109.6152                                         !
 ! A92   A(46,49,50)           110.56                                           !
 ! A93   A(46,49,51)           111.4212                                         !
 ! A94   A(46,49,52)           113.5287                                         !
 ! A95   A(50,49,51)           106.4754                                         !
 ! A96   A(50,49,52)           106.6471                                         !
 ! A97   A(51,49,52)           107.8473                                         !
 ! A98   A(49,52,53)           117.1118                                         !
 ! A99   A(49,52,60)           124.0113                                         !
 ! A100  A(53,52,60)           116.7279                                         !
 ! A101  A(55,54,56)           116.3297                                         !
 ! A102  A(55,54,60)           117.5734                                         !
 ! A103  A(56,54,60)           125.1955                                         !
 ! A104  A(58,57,59)           116.0899                                         !
 ! A105  A(58,57,60)           118.2657                                         !
 ! A106  A(59,57,60)           119.3271                                         !
 ! A107  A(52,60,54)           122.2517                                         !
 ! A108  A(52,60,57)           118.8987                                         !
 ! A109  A(54,60,57)           118.8485                                         !
 ! D1    D(2,1,5,6)             18.4412                                         !
 ! D2    D(2,1,5,7)            -99.3033                                         !
 ! D3    D(2,1,5,8)            139.9443                                         !
 ! D4    D(3,1,5,6)            133.9407                                         !
 ! D5    D(3,1,5,7)             16.1962                                         !
 ! D6    D(3,1,5,8)           -104.5562                                         !
 ! D7    D(4,1,5,6)           -106.3129                                         !
 ! D8    D(4,1,5,7)            135.9426                                         !
 ! D9    D(4,1,5,8)             15.1902                                         !
 ! D10   D(1,5,7,11)           -17.0204                                         !
 ! D11   D(1,5,7,18)           163.0918                                         !
 ! D12   D(6,5,7,11)          -132.4705                                         !
 ! D13   D(6,5,7,18)            47.6417                                         !
 ! D14   D(8,5,7,11)           100.5937                                         !
 ! D15   D(8,5,7,18)           -79.294                                          !
 ! D16   D(1,5,8,9)             61.0976                                         !
 ! D17   D(1,5,8,10)           -55.7053                                         !
 ! D18   D(1,5,8,12)          -176.414                                          !
 ! D19   D(6,5,8,9)           -179.0156                                         !
 ! D20   D(6,5,8,10)            64.1815                                         !
 ! D21   D(6,5,8,12)           -56.5272                                         !
 ! D22   D(7,5,8,9)            -51.829                                          !
 ! D23   D(7,5,8,10)          -168.6319                                         !
 ! D24   D(7,5,8,12)            70.6595                                         !
 ! D25   D(5,7,18,19)            7.1025                                         !
 ! D26   D(5,7,18,20)          177.4083                                         !
 ! D27   D(11,7,18,19)        -172.7714                                         !
 ! D28   D(11,7,18,20)          -2.4657                                         !
 ! D29   D(5,8,12,13)          -65.0777                                         !
 ! D30   D(5,8,12,14)           53.0667                                         !
 ! D31   D(5,8,12,15)          172.3078                                         !
 ! D32   D(9,8,12,13)           56.8845                                         !
 ! D33   D(9,8,12,14)          175.0289                                         !
 ! D34   D(9,8,12,15)          -65.7301                                         !
 ! D35   D(10,8,12,13)         174.3191                                         !
 ! D36   D(10,8,12,14)         -67.5365                                         !
 ! D37   D(10,8,12,15)          51.7046                                         !
 ! D38   D(8,12,15,16)         163.1961                                         !
 ! D39   D(8,12,15,17)         -18.4731                                         !
 ! D40   D(13,12,15,16)         37.9393                                         !
 ! D41   D(13,12,15,17)       -143.7299                                         !
 ! D42   D(14,12,15,16)        -74.9907                                         !
 ! D43   D(14,12,15,17)        103.3401                                         !
 ! D44   D(12,15,17,62)       -177.6213                                         !
 ! D45   D(16,15,17,62)          0.7272                                         !
 ! D46   D(7,18,20,21)         -22.3628                                         !
 ! D47   D(7,18,20,22)        -141.2816                                         !
 ! D48   D(7,18,20,23)          99.8509                                         !
 ! D49   D(19,18,20,21)        148.7498                                         !
 ! D50   D(19,18,20,22)         29.831                                          !
 ! D51   D(19,18,20,23)        -89.0365                                         !
 ! D52   D(18,20,22,26)        -11.5976                                         !
 ! D53   D(18,20,22,37)        171.87                                           !
 ! D54   D(21,20,22,26)       -129.0534                                         !
 ! D55   D(21,20,22,37)         54.4142                                         !
 ! D56   D(23,20,22,26)        108.0387                                         !
 ! D57   D(23,20,22,37)        -68.4938                                         !
 ! D58   D(18,20,23,24)        167.9371                                         !
 ! D59   D(18,20,23,25)         53.725                                          !
 ! D60   D(18,20,23,27)        -69.0747                                         !
 ! D61   D(21,20,23,24)        -71.2928                                         !
 ! D62   D(21,20,23,25)        174.4951                                         !
 ! D63   D(21,20,23,27)         51.6954                                         !
 ! D64   D(22,20,23,24)         51.4596                                         !
 ! D65   D(22,20,23,25)        -62.7524                                         !
 ! D66   D(22,20,23,27)        174.4478                                         !
 ! D67   D(20,22,37,38)         12.3918                                         !
 ! D68   D(20,22,37,39)        139.2688                                         !
 ! D69   D(26,22,37,38)       -163.8177                                         !
 ! D70   D(26,22,37,39)        -36.9408                                         !
 ! D71   D(20,23,27,28)         56.7478                                         !
 ! D72   D(20,23,27,29)        174.2404                                         !
 ! D73   D(20,23,27,33)        -62.9239                                         !
 ! D74   D(24,23,27,28)        178.9782                                         !
 ! D75   D(24,23,27,29)        -63.5292                                         !
 ! D76   D(24,23,27,33)         59.3065                                         !
 ! D77   D(25,23,27,28)        -64.6513                                         !
 ! D78   D(25,23,27,29)         52.8413                                         !
 ! D79   D(25,23,27,33)        175.677                                          !
 ! D80   D(23,27,29,30)         61.5945                                         !
 ! D81   D(23,27,29,31)       -178.7424                                         !
 ! D82   D(23,27,29,32)        -58.1851                                         !
 ! D83   D(28,27,29,30)        179.6533                                         !
 ! D84   D(28,27,29,31)        -60.6836                                         !
 ! D85   D(28,27,29,32)         59.8737                                         !
 ! D86   D(33,27,29,30)        -61.852                                          !
 ! D87   D(33,27,29,31)         57.8111                                         !
 ! D88   D(33,27,29,32)        178.3683                                         !
 ! D89   D(23,27,33,34)        -55.8768                                         !
 ! D90   D(23,27,33,35)         65.2698                                         !
 ! D91   D(23,27,33,36)       -175.0858                                         !
 ! D92   D(28,27,33,34)       -175.8495                                         !
 ! D93   D(28,27,33,35)        -54.7029                                         !
 ! D94   D(28,27,33,36)         64.9415                                         !
 ! D95   D(29,27,33,34)         65.8886                                         !
 ! D96   D(29,27,33,35)       -172.9648                                         !
 ! D97   D(29,27,33,36)        -53.3204                                         !
 ! D98   D(22,37,39,40)         -4.8645                                         !
 ! D99   D(22,37,39,41)       -120.5784                                         !
 ! D100  D(22,37,39,42)        119.6336                                         !
 ! D101  D(38,37,39,40)        128.5097                                         !
 ! D102  D(38,37,39,41)         12.7958                                         !
 ! D103  D(38,37,39,42)       -106.9922                                         !
 ! D104  D(37,39,41,45)        176.1662                                         !
 ! D105  D(37,39,41,61)         -4.9492                                         !
 ! D106  D(40,39,41,45)         60.6123                                         !
 ! D107  D(40,39,41,61)       -120.5031                                         !
 ! D108  D(42,39,41,45)        -59.3109                                         !
 ! D109  D(42,39,41,61)        119.5737                                         !
 ! D110  D(37,39,42,43)        166.2999                                         !
 ! D111  D(37,39,42,44)         52.3181                                         !
 ! D112  D(37,39,42,46)        -72.9376                                         !
 ! D113  D(40,39,42,43)        -69.6456                                         !
 ! D114  D(40,39,42,44)        176.3725                                         !
 ! D115  D(40,39,42,46)         51.1169                                         !
 ! D116  D(41,39,42,43)         49.8825                                         !
 ! D117  D(41,39,42,44)        -64.0994                                         !
 ! D118  D(41,39,42,46)        170.645                                          !
 ! D119  D(39,42,46,47)       -160.9619                                         !
 ! D120  D(39,42,46,48)        -43.8992                                         !
 ! D121  D(39,42,46,49)         78.0009                                         !
 ! D122  D(43,42,46,47)        -42.8146                                         !
 ! D123  D(43,42,46,48)         74.2481                                         !
 ! D124  D(43,42,46,49)       -163.8518                                         !
 ! D125  D(44,42,46,47)         74.1591                                         !
 ! D126  D(44,42,46,48)       -168.7782                                         !
 ! D127  D(44,42,46,49)        -46.8781                                         !
 ! D128  D(42,46,49,50)         65.7633                                         !
 ! D129  D(42,46,49,51)        -52.435                                          !
 ! D130  D(42,46,49,52)       -174.4336                                         !
 ! D131  D(47,46,49,50)        -56.2477                                         !
 ! D132  D(47,46,49,51)       -174.446                                          !
 ! D133  D(47,46,49,52)         63.5554                                         !
 ! D134  D(48,46,49,50)       -172.371                                          !
 ! D135  D(48,46,49,51)         69.4307                                         !
 ! D136  D(48,46,49,52)        -52.5679                                         !
 ! D137  D(46,49,52,53)        -78.4926                                         !
 ! D138  D(46,49,52,60)         84.2606                                         !
 ! D139  D(50,49,52,53)         43.5115                                         !
 ! D140  D(50,49,52,60)       -153.7353                                         !
 ! D141  D(51,49,52,53)        157.5435                                         !
 ! D142  D(51,49,52,60)        -39.7032                                         !
 ! D143  D(49,52,60,54)         -0.1963                                         !
 ! D144  D(49,52,60,57)       -179.8203                                         !
 ! D145  D(53,52,60,54)        162.6174                                         !
 ! D146  D(53,52,60,57)        -17.0066                                         !
 ! D147  D(55,54,60,52)        164.8897                                         !
 ! D148  D(55,54,60,57)        -15.4861                                         !
 ! D149  D(56,54,60,52)         -3.8092                                         !
 ! D150  D(56,54,60,57)        175.815                                          !
 ! D151  D(58,57,60,52)       -172.5564                                         !
 ! D152  D(58,57,60,54)          7.8066                                         !
 ! D153  D(59,57,60,52)        -21.5372                                         !
 ! D154  D(59,57,60,54)        158.8258                                         !
 --------------------------------------------------------------------------------
 Symmetry turned off by external request.
 Stoichiometry    C17H33N6O6(1+)
 Framework group  C1[X(C17H33N6O6)]
 Deg. of freedom   180
 Full point group                 C1      NOp   1
                          Input orientation:                          
 ---------------------------------------------------------------------
 Center     Atomic      Atomic             Coordinates (Angstroms)
 Number     Number       Type             X           Y           Z
 ---------------------------------------------------------------------
      1          7           0       -3.543804   -1.040675   -3.364143
      2          1           0       -3.634456   -2.060080   -3.326075
      3          1           0       -3.955135   -0.625814   -2.460921
      4          1           0       -4.029034   -0.697909   -4.197452
      5          6           0       -2.110422   -0.569194   -3.253922
      6          1           0       -1.450516   -1.408757   -3.484521
      7          6           0       -2.028102   -0.169628   -1.750692
      8          6           0       -1.879021    0.601098   -4.223182
      9          1           0       -2.544870    1.428490   -3.949678
     10          1           0       -2.153884    0.277857   -5.232910
     11          8           0       -3.111955   -0.008117   -1.163072
     12          6           0       -0.421934    1.084472   -4.238477
     13          1           0       -0.119590    1.513655   -3.278726
     14          1           0        0.258677    0.241178   -4.424854
     15          6           0       -0.104650    2.111657   -5.308479
     16          8           0        0.887095    2.818360   -5.295052
     17          8           0       -1.006375    2.145630   -6.297112
     18          7           0       -0.820221   -0.037046   -1.239738
     19          1           0        0.011107   -0.083884   -1.825383
     20          6           0       -0.491575    0.380463    0.126302
     21          1           0       -1.338055    0.937667    0.532683
     22          6           0        0.746182    1.284033    0.001255
     23          6           0       -0.157279   -0.841075    1.009354
     24          1           0        0.287621   -0.476735    1.944822
     25          1           0        0.630751   -1.410441    0.497047
     26          8           0        1.355305    1.317179   -1.102371
     27          6           0       -1.346795   -1.760582    1.327412
     28          1           0       -1.794748   -2.103942    0.380548
     29          6           0       -0.834806   -2.993988    2.083235
     30          1           0       -0.373647   -2.698884    3.032575
     31          1           0       -1.655021   -3.684447    2.307629
     32          1           0       -0.081474   -3.538125    1.501723
     33          6           0       -2.428251   -1.034788    2.137779
     34          1           0       -2.001426   -0.613732    3.055639
     35          1           0       -2.897022   -0.224162    1.569910
     36          1           0       -3.223848   -1.729913    2.427250
     37          7           0        1.103935    1.903249    1.114495
     38          1           0        0.648937    1.574068    2.013260
     39          6           0        2.504399    2.071564    1.552651
     40          1           0        3.158330    1.532189    0.859810
     41          6           0        2.533053    1.338967    2.974536
     42          6           0        2.997484    3.506305    1.712844
     43          1           0        3.935986    3.421104    2.267834
     44          1           0        2.304336    4.064754    2.356805
     45          8           0        3.638654    1.286077    3.510773
     46          6           0        3.239506    4.267472    0.403891
     47          1           0        3.892692    5.131530    0.582017
     48          1           0        3.765329    3.617199   -0.307530
     49          6           0        1.934934    4.764222   -0.221835
     50          1           0        1.465225    5.517557    0.416637
     51          1           0        1.211185    3.955018   -0.329415
     52          7           0        2.116555    5.385680   -1.543655
     53          1           0        2.464685    6.335530   -1.562704
     54          7           0        2.075590    3.378950   -2.731206
     55          1           0        1.893280    2.948443   -3.633561
     56          1           0        2.003567    2.762664   -1.907473
     57          7           0        2.348963    5.379920   -3.851572
     58          1           0        2.277440    4.868408   -4.720997
     59          1           0        2.109228    6.360049   -3.891936
     60          6           0        2.174864    4.700691   -2.690537
     61          8           0        1.388310    0.933022    3.356582
     62          1           0       -0.708492    2.801739   -6.957746
 ---------------------------------------------------------------------
 Rotational constants (GHZ):           0.1495606           0.1327582           0.0749674
 Standard basis: 6-31G(d) (6D, 7F)
   501 basis functions,   944 primitive gaussians,   501 cartesian basis functions
   112 alpha electrons      112 beta electrons
       nuclear repulsion energy      3104.5804802305 Hartrees.
 NAtoms=   62 NActive=   62 NUniq=   62 SFac= 1.00D+00 NAtFMM=   60 NAOKFM=T Big=T
 Integral buffers will be    131072 words long.
 Raffenetti 2 integral format.
 Two-electron integral symmetry is turned off.
 Nuclear repulsion after empirical dispersion term =     3104.4553256476 Hartrees.
 One-electron integrals computed using PRISM.
 NBasis=   501 RedAO= T EigKep=  1.99D-03  NBF=   501
 NBsUse=   501 1.00D-06 EigRej= -1.00D+00 NBFU=   501
 Initial guess from the checkpoint file:  "conf-950.chk"
 B after Tr=     0.000000    0.000000    0.000000
         Rot=    1.000000    0.000000    0.000000    0.000000 Ang=   0.00 deg.
 Requested convergence on RMS density matrix=1.00D-08 within 128 cycles.
 Requested convergence on MAX density matrix=1.00D-06.
 Requested convergence on             energy=1.00D-06.
 No special actions if energy rises.
 SCF Done:  E(RB3LYP) =  -1447.48787553     A.U. after    1 cycles
            NFock=  1  Conv=0.79D-08     -V/T= 2.0093

 **********************************************************************

            Population analysis using the SCF Density.

 **********************************************************************

 Alpha  occ. eigenvalues --  -19.35324 -19.29917 -19.28228 -19.22718 -19.11693
 Alpha  occ. eigenvalues --  -19.10204 -14.61746 -14.50761 -14.50145 -14.50113
 Alpha  occ. eigenvalues --  -14.48091 -14.42209 -10.48380 -10.46007 -10.44973
 Alpha  occ. eigenvalues --  -10.43160 -10.38231 -10.37484 -10.36440 -10.33866
 Alpha  occ. eigenvalues --  -10.32960 -10.29112 -10.27040 -10.26796 -10.26523
 Alpha  occ. eigenvalues --  -10.26352 -10.24402 -10.23784 -10.23590  -1.26435
 Alpha  occ. eigenvalues --   -1.20908  -1.17304  -1.15504  -1.14683  -1.13261
 Alpha  occ. eigenvalues --   -1.07396  -1.04725  -1.04163  -1.02292  -0.99754
 Alpha  occ. eigenvalues --   -0.97952  -0.95793  -0.91232  -0.89113  -0.88122
 Alpha  occ. eigenvalues --   -0.84959  -0.82129  -0.81345  -0.77424  -0.77066
 Alpha  occ. eigenvalues --   -0.75876  -0.75232  -0.74777  -0.74332  -0.73934
 Alpha  occ. eigenvalues --   -0.72097  -0.71738  -0.69472  -0.68027  -0.66832
 Alpha  occ. eigenvalues --   -0.66239  -0.65380  -0.64132  -0.63885  -0.63027
 Alpha  occ. eigenvalues --   -0.62812  -0.62585  -0.61512  -0.60704  -0.60145
 Alpha  occ. eigenvalues --   -0.58316  -0.58036  -0.57664  -0.56505  -0.55956
 Alpha  occ. eigenvalues --   -0.55399  -0.55081  -0.54387  -0.53949  -0.53149
 Alpha  occ. eigenvalues --   -0.52739  -0.52563  -0.51914  -0.51129  -0.50956
 Alpha  occ. eigenvalues --   -0.49175  -0.48854  -0.47964  -0.47297  -0.46499
 Alpha  occ. eigenvalues --   -0.45885  -0.45516  -0.44773  -0.43803  -0.43763
 Alpha  occ. eigenvalues --   -0.43035  -0.42832  -0.42277  -0.41250  -0.41083
 Alpha  occ. eigenvalues --   -0.40703  -0.40423  -0.39972  -0.39566  -0.39175
 Alpha  occ. eigenvalues --   -0.38444  -0.38034  -0.36539  -0.34433  -0.26679
 Alpha  occ. eigenvalues --   -0.26461  -0.24105
 Alpha virt. eigenvalues --   -0.14903  -0.13750  -0.12813  -0.10213  -0.08424
 Alpha virt. eigenvalues --   -0.08181  -0.07355  -0.06037  -0.05391  -0.03662
 Alpha virt. eigenvalues --   -0.03169  -0.02168  -0.01615  -0.00864  -0.00414
 Alpha virt. eigenvalues --    0.00375   0.01406   0.02421   0.02436   0.02980
 Alpha virt. eigenvalues --    0.03277   0.03535   0.04591   0.04960   0.05371
 Alpha virt. eigenvalues --    0.05544   0.06299   0.06663   0.06913   0.07429
 Alpha virt. eigenvalues --    0.08155   0.08308   0.08783   0.09097   0.09969
 Alpha virt. eigenvalues --    0.10221   0.10621   0.11472   0.11739   0.12374
 Alpha virt. eigenvalues --    0.12751   0.13472   0.13548   0.14009   0.14989
 Alpha virt. eigenvalues --    0.15605   0.16095   0.16244   0.17325   0.17841
 Alpha virt. eigenvalues --    0.18011   0.18834   0.19202   0.19813   0.20312
 Alpha virt. eigenvalues --    0.21592   0.22247   0.22545   0.24959   0.27019
 Alpha virt. eigenvalues --    0.27822   0.28691   0.29084   0.32946   0.33722
 Alpha virt. eigenvalues --    0.35287   0.35709   0.36369   0.38988   0.39211
 Alpha virt. eigenvalues --    0.39803   0.40462   0.41667   0.41787   0.42482
 Alpha virt. eigenvalues --    0.42831   0.43592   0.43846   0.44405   0.44850
 Alpha virt. eigenvalues --    0.44904   0.45246   0.47022   0.47201   0.48227
 Alpha virt. eigenvalues --    0.48412   0.49024   0.50015   0.50348   0.50608
 Alpha virt. eigenvalues --    0.51100   0.51529   0.52566   0.53326   0.53729
 Alpha virt. eigenvalues --    0.54210   0.54961   0.56239   0.56486   0.57528
 Alpha virt. eigenvalues --    0.57982   0.58473   0.58905   0.59575   0.60290
 Alpha virt. eigenvalues --    0.60640   0.61356   0.62273   0.62609   0.63000
 Alpha virt. eigenvalues --    0.63137   0.63941   0.64638   0.64805   0.65608
 Alpha virt. eigenvalues --    0.66086   0.66525   0.67013   0.67943   0.68064
 Alpha virt. eigenvalues --    0.69005   0.70093   0.70281   0.70636   0.71397
 Alpha virt. eigenvalues --    0.72011   0.72343   0.73484   0.73776   0.74527
 Alpha virt. eigenvalues --    0.74867   0.75419   0.75789   0.76066   0.76751
 Alpha virt. eigenvalues --    0.77495   0.77677   0.78042   0.78908   0.79621
 Alpha virt. eigenvalues --    0.80022   0.80932   0.81253   0.81388   0.82376
 Alpha virt. eigenvalues --    0.82676   0.83152   0.83883   0.84229   0.84616
 Alpha virt. eigenvalues --    0.85520   0.85898   0.86494   0.86917   0.87363
 Alpha virt. eigenvalues --    0.87572   0.88363   0.89014   0.89488   0.89783
 Alpha virt. eigenvalues --    0.90287   0.91460   0.92021   0.92498   0.92870
 Alpha virt. eigenvalues --    0.93903   0.94829   0.95507   0.96817   0.97742
 Alpha virt. eigenvalues --    0.98998   0.99675   1.00362   1.01143   1.01580
 Alpha virt. eigenvalues --    1.02855   1.03413   1.04925   1.06641   1.07399
 Alpha virt. eigenvalues --    1.07641   1.08717   1.10234   1.12610   1.13083
 Alpha virt. eigenvalues --    1.13516   1.15080   1.15487   1.16028   1.18040
 Alpha virt. eigenvalues --    1.18812   1.20291   1.21610   1.22146   1.22945
 Alpha virt. eigenvalues --    1.24168   1.25685   1.27736   1.28510   1.29414
 Alpha virt. eigenvalues --    1.29693   1.31962   1.33384   1.34728   1.35445
 Alpha virt. eigenvalues --    1.36668   1.38012   1.39024   1.39431   1.40308
 Alpha virt. eigenvalues --    1.41632   1.43301   1.43686   1.44730   1.46420
 Alpha virt. eigenvalues --    1.46738   1.47587   1.48605   1.50864   1.51579
 Alpha virt. eigenvalues --    1.52351   1.54484   1.55486   1.55787   1.56215
 Alpha virt. eigenvalues --    1.57130   1.57656   1.58243   1.59877   1.60839
 Alpha virt. eigenvalues --    1.61823   1.62398   1.62686   1.63948   1.64568
 Alpha virt. eigenvalues --    1.65013   1.66142   1.66746   1.67780   1.68154
 Alpha virt. eigenvalues --    1.68809   1.70302   1.71125   1.72395   1.73048
 Alpha virt. eigenvalues --    1.73360   1.74274   1.75045   1.75265   1.76792
 Alpha virt. eigenvalues --    1.76909   1.77744   1.78115   1.78518   1.78794
 Alpha virt. eigenvalues --    1.80378   1.80830   1.81686   1.82515   1.83092
 Alpha virt. eigenvalues --    1.83301   1.83682   1.85345   1.85878   1.86654
 Alpha virt. eigenvalues --    1.87002   1.87369   1.88278   1.89565   1.91105
 Alpha virt. eigenvalues --    1.91373   1.92388   1.92681   1.93302   1.94716
 Alpha virt. eigenvalues --    1.95255   1.96035   1.96629   1.97523   1.97879
 Alpha virt. eigenvalues --    1.99004   1.99952   2.00900   2.01357   2.02779
 Alpha virt. eigenvalues --    2.03328   2.04573   2.06124   2.08022   2.10267
 Alpha virt. eigenvalues --    2.11318   2.12182   2.12790   2.13291   2.14225
 Alpha virt. eigenvalues --    2.15713   2.17814   2.18299   2.18478   2.19272
 Alpha virt. eigenvalues --    2.19523   2.19968   2.20882   2.21447   2.21996
 Alpha virt. eigenvalues --    2.22560   2.23712   2.27000   2.27652   2.28067
 Alpha virt. eigenvalues --    2.28860   2.30343   2.30862   2.34146   2.37791
 Alpha virt. eigenvalues --    2.38433   2.39254   2.39857   2.40883   2.41841
 Alpha virt. eigenvalues --    2.42691   2.43392   2.44150   2.44829   2.45867
 Alpha virt. eigenvalues --    2.47184   2.48401   2.48729   2.50379   2.50427
 Alpha virt. eigenvalues --    2.51950   2.53790   2.55064   2.56071   2.59306
 Alpha virt. eigenvalues --    2.60264   2.61162   2.63060   2.65218   2.67969
 Alpha virt. eigenvalues --    2.69308   2.71268   2.72242   2.72366   2.74959
 Alpha virt. eigenvalues --    2.76554   2.80103   2.82238   2.85657   2.87111
 Alpha virt. eigenvalues --    2.87757   2.91319   2.91706   2.93221   2.94308
 Alpha virt. eigenvalues --    2.98734   2.99084   3.02084   3.08636   3.15966
 Alpha virt. eigenvalues --    3.61970   3.68866   3.71971   3.84337   3.88845
 Alpha virt. eigenvalues --    3.92304   3.93736   3.97211   4.01813   4.02936
 Alpha virt. eigenvalues --    4.05325   4.07989   4.09483   4.15303   4.16051
 Alpha virt. eigenvalues --    4.19428   4.22628   4.24381   4.25272   4.31702
 Alpha virt. eigenvalues --    4.32341   4.35376   4.40521   4.41533   4.45583
 Alpha virt. eigenvalues --    4.47663   4.49623   4.58438   4.61469
          Condensed to atoms (all electrons):
 Mulliken charges:
               1
     1  N   -0.759869
     2  H    0.421971
     3  H    0.439961
     4  H    0.412927
     5  C   -0.116657
     6  H    0.217307
     7  C    0.653948
     8  C   -0.291066
     9  H    0.195545
    10  H    0.196997
    11  O   -0.539742
    12  C   -0.416472
    13  H    0.222146
    14  H    0.211955
    15  C    0.622791
    16  O   -0.482397
    17  O   -0.542847
    18  N   -0.576103
    19  H    0.363613
    20  C   -0.103764
    21  H    0.202632
    22  C    0.612796
    23  C   -0.290449
    24  H    0.232347
    25  H    0.134699
    26  O   -0.623497
    27  C   -0.066681
    28  H    0.085007
    29  C   -0.448279
    30  H    0.179761
    31  H    0.147354
    32  H    0.139613
    33  C   -0.465406
    34  H    0.176534
    35  H    0.145512
    36  H    0.150379
    37  N   -0.586651
    38  H    0.372845
    39  C   -0.107144
    40  H    0.152426
    41  C    0.605772
    42  C   -0.270063
    43  H    0.199501
    44  H    0.143432
    45  O   -0.540332
    46  C   -0.271372
    47  H    0.148481
    48  H    0.148754
    49  C   -0.179906
    50  H    0.183882
    51  H    0.187983
    52  N   -0.593609
    53  H    0.357067
    54  N   -0.821488
    55  H    0.385749
    56  H    0.436919
    57  N   -0.768686
    58  H    0.380211
    59  H    0.365075
    60  C    0.797080
    61  O   -0.608071
    62  H    0.439577
 Sum of Mulliken charges =   1.00000
 Mulliken charges with hydrogens summed into heavy atoms:
               1
     1  N    0.514989
     5  C    0.100650
     7  C    0.653948
     8  C    0.101475
    11  O   -0.539742
    12  C    0.017630
    15  C    0.622791
    16  O   -0.482397
    17  O   -0.103269
    18  N   -0.212490
    20  C    0.098868
    22  C    0.612796
    23  C    0.076598
    26  O   -0.623497
    27  C    0.018326
    29  C    0.018449
    33  C    0.007019
    37  N   -0.213806
    39  C    0.045282
    41  C    0.605772
    42  C    0.072870
    45  O   -0.540332
    46  C    0.025863
    49  C    0.191959
    52  N   -0.236543
    54  N    0.001180
    57  N   -0.023399
    60  C    0.797080
    61  O   -0.608071
 Electronic spatial extent (au):  <R**2>=          16404.3756
 Charge=              1.0000 electrons
 Dipole moment (field-independent basis, Debye):
    X=            -11.2300    Y=              9.6782    Z=            -31.1625  Tot=             34.5092
 Quadrupole moment (field-independent basis, Debye-Ang):
   XX=           -147.5768   YY=            -72.7735   ZZ=            -96.8161
   XY=             37.4673   XZ=              8.2117   YZ=            -40.8060
 Traceless Quadrupole moment (field-independent basis, Debye-Ang):
   XX=            -41.8547   YY=             32.9486   ZZ=              8.9061
   XY=             37.4673   XZ=              8.2117   YZ=            -40.8060
 Octapole moment (field-independent basis, Debye-Ang**2):
  XXX=           -368.0010  YYY=           -189.7874  ZZZ=           -219.6277  XYY=             97.9562
  XXY=           -247.7549  XXZ=            -90.7323  XZZ=           -290.0254  YZZ=            -87.9200
  YYZ=           -117.1573  XYZ=           -117.1706
 Hexadecapole moment (field-independent basis, Debye-Ang**3):
 XXXX=          -4284.7836 YYYY=          -3866.0166 ZZZZ=          -6174.8983 XXXY=          -1678.8380
 XXXZ=           -424.4978 YYYX=           -698.6935 YYYZ=             55.5976 ZZZX=           -509.9006
 ZZZY=             96.3821 XXYY=          -1493.8174 XXZZ=          -1913.9030 YYZZ=          -1480.6347
 XXYZ=            460.8972 YYXZ=           -523.2997 ZZXY=           -409.4557
 N-N= 3.104455325648D+03 E-N=-9.559816836437D+03  KE= 1.434139089251D+03
 Unable to Open any file for archive entry.
 1\1\GINC-LAC-315\SP\RB3LYP\6-31G(d)\C17H33N6O6(1+)\KENGMITH\23-Jun-202
 2\0\\# B3LYP/6-31G* empiricaldispersion=gd3bj guess=read geom=check no
 symm integral(ultrafinegrid)\\Candidate Structure: Conf:950 Charge cal
 c in gas phase\\1,1\N,0,-3.5438038212,-1.040674609,-3.3641429964\H,0,-
 3.6344563419,-2.0600795853,-3.3260752105\H,0,-3.955134865,-0.625813731
 7,-2.4609213008\H,0,-4.0290338894,-0.6979086782,-4.1974524684\C,0,-2.1
 104219958,-0.5691942027,-3.2539218736\H,0,-1.4505155833,-1.4087574968,
 -3.4845205002\C,0,-2.0281018416,-0.1696275679,-1.7506920594\C,0,-1.879
 0210327,0.6010978248,-4.2231815711\H,0,-2.5448696662,1.4284899169,-3.9
 496775943\H,0,-2.1538841672,0.2778572074,-5.2329102286\O,0,-3.11195510
 44,-0.0081173292,-1.1630720262\C,0,-0.421933956,1.0844715867,-4.238477
 0401\H,0,-0.1195900449,1.5136554584,-3.2787264566\H,0,0.258677312,0.24
 11777423,-4.4248542136\C,0,-0.1046501165,2.111657486,-5.3084789032\O,0
 ,0.8870947116,2.8183597782,-5.2950520847\O,0,-1.0063752494,2.145629695
 9,-6.2971117501\N,0,-0.8202211265,-0.0370461927,-1.239737931\H,0,0.011
 1072371,-0.0838840449,-1.8253830943\C,0,-0.4915750652,0.3804632529,0.1
 263023461\H,0,-1.3380547168,0.9376674096,0.5326833693\C,0,0.74618223,1
 .2840327062,0.0012547871\C,0,-0.1572793711,-0.8410748958,1.0093543278\
 H,0,0.2876205484,-0.4767353989,1.9448215488\H,0,0.6307506482,-1.410441
 2569,0.4970474629\O,0,1.3553047044,1.3171788845,-1.102371248\C,0,-1.34
 67953735,-1.7605816937,1.3274122558\H,0,-1.7947476678,-2.1039423258,0.
 3805484901\C,0,-0.8348059149,-2.9939884244,2.0832354506\H,0,-0.3736469
 481,-2.698883731,3.0325754251\H,0,-1.655021296,-3.684446781,2.30762865
 13\H,0,-0.0814736816,-3.5381245603,1.501722761\C,0,-2.4282514081,-1.03
 47876575,2.1377786759\H,0,-2.0014255101,-0.6137316266,3.0556391532\H,0
 ,-2.8970217179,-0.2241622989,1.5699103502\H,0,-3.2238478385,-1.7299128
 049,2.4272499544\N,0,1.1039348099,1.9032489972,1.11449476\H,0,0.648936
 869,1.5740682616,2.0132599331\C,0,2.5043986145,2.0715643417,1.55265110
 3\H,0,3.158329803,1.53218885,0.8598096801\C,0,2.5330533622,1.338967171
 1,2.9745356343\C,0,2.9974841743,3.5063051502,1.7128435534\H,0,3.935985
 613,3.4211040415,2.2678343802\H,0,2.3043361964,4.0647541892,2.35680484
 1\O,0,3.6386542184,1.286076968,3.5107725147\C,0,3.2395063502,4.2674723
 88,0.4038913431\H,0,3.8926916747,5.1315299034,0.5820166787\H,0,3.76532
 87924,3.6171985679,-0.3075302527\C,0,1.9349341301,4.7642222888,-0.2218
 354044\H,0,1.4652246445,5.5175567188,0.4166370031\H,0,1.2111845802,3.9
 550184889,-0.3294145361\N,0,2.1165547871,5.3856804707,-1.5436549599\H,
 0,2.4646848816,6.3355299321,-1.5627037343\N,0,2.0755898654,3.378950090
 2,-2.7312058319\H,0,1.8932803624,2.9484425687,-3.6335611401\H,0,2.0035
 67089,2.7626637382,-1.9074726023\N,0,2.3489629977,5.3799203518,-3.8515
 720167\H,0,2.2774403065,4.8684083316,-4.7209974077\H,0,2.1092284167,6.
 3600494244,-3.8919361038\C,0,2.1748640775,4.7006910415,-2.690536972\O,
 0,1.3883099551,0.9330223863,3.3565815426\H,0,-0.708492062,2.8017386723
 ,-6.9577464436\\Version=ES64L-G16RevC.01\HF=-1447.4878755\RMSD=7.872e-
 09\Dipole=-5.0439259,1.0939712,-10.4366985\Quadrupole=-31.1179143,24.4
 964807,6.6214336,27.8560368,6.1051816,-30.3382577\PG=C01 [X(C17H33N6O6
 )]\\@
 The archive entry for this job was punched.


 THE THINKER DIES, BUT HIS THOUGHTS ARE BEYOND THE 
 REACH OF DESTRUCTION.  MEN ARE MORTAL; BUT IDEAS 
 ARE IMMORTAL.
                              -- WALTER LIPPMANN
 Job cpu time:       0 days  0 hours  1 minutes 15.5 seconds.
 Elapsed time:       0 days  0 hours  0 minutes 20.0 seconds.
 File lengths (MBytes):  RWF=    248 Int=      0 D2E=      0 Chk=     32 Scr=     16
 Normal termination of Gaussian 16 at Thu Jun 23 05:43:04 2022.
