 Entering Gaussian System, Link 0=/opt/software/Gaussian/g16-AVX2-C.01/g16/g16
 Input=charge-conf-702.com
 Output=charge-conf-702.log
 Initial command:
 /opt/software/Gaussian/g16-AVX2-C.01/g16/l1.exe "/mnt/gs21/scratch/kengmith/Gau-78296.inp" -scrdir="/mnt/gs21/scratch/kengmith/"
 Entering Link 1 = /opt/software/Gaussian/g16-AVX2-C.01/g16/l1.exe PID=     78306.
  
 Copyright (c) 1988-2019, Gaussian, Inc.  All Rights Reserved.
  
 This is part of the Gaussian(R) 16 program.  It is based on
 the Gaussian(R) 09 system (copyright 2009, Gaussian, Inc.),
 the Gaussian(R) 03 system (copyright 2003, Gaussian, Inc.),
 the Gaussian(R) 98 system (copyright 1998, Gaussian, Inc.),
 the Gaussian(R) 94 system (copyright 1995, Gaussian, Inc.),
 the Gaussian 92(TM) system (copyright 1992, Gaussian, Inc.),
 the Gaussian 90(TM) system (copyright 1990, Gaussian, Inc.),
 the Gaussian 88(TM) system (copyright 1988, Gaussian, Inc.),
 the Gaussian 86(TM) system (copyright 1986, Carnegie Mellon
 University), and the Gaussian 82(TM) system (copyright 1983,
 Carnegie Mellon University). Gaussian is a federally registered
 trademark of Gaussian, Inc.
  
 This software contains proprietary and confidential information,
 including trade secrets, belonging to Gaussian, Inc.
  
 This software is provided under written license and may be
 used, copied, transmitted, or stored only in accord with that
 written license.
  
 The following legend is applicable only to US Government
 contracts under FAR:
  
                    RESTRICTED RIGHTS LEGEND
  
 Use, reproduction and disclosure by the US Government is
 subject to restrictions as set forth in subparagraphs (a)
 and (c) of the Commercial Computer Software - Restricted
 Rights clause in FAR 52.227-19.
  
 Gaussian, Inc.
 340 Quinnipiac St., Bldg. 40, Wallingford CT 06492
  
  
 ---------------------------------------------------------------
 Warning -- This program may not be used in any manner that
 competes with the business of Gaussian, Inc. or will provide
 assistance to any competitor of Gaussian, Inc.  The licensee
 of this program is prohibited from giving any competitor of
 Gaussian, Inc. access to this program.  By using this program,
 the user acknowledges that Gaussian, Inc. is engaged in the
 business of creating and licensing software in the field of
 computational chemistry and represents and warrants to the
 licensee that it is not a competitor of Gaussian, Inc. and that
 it will not use this program in any manner prohibited above.
 ---------------------------------------------------------------
  

 Cite this work as:
 Gaussian 16, Revision C.01,
 M. J. Frisch, G. W. Trucks, H. B. Schlegel, G. E. Scuseria, 
 M. A. Robb, J. R. Cheeseman, G. Scalmani, V. Barone, 
 G. A. Petersson, H. Nakatsuji, X. Li, M. Caricato, A. V. Marenich, 
 J. Bloino, B. G. Janesko, R. Gomperts, B. Mennucci, H. P. Hratchian, 
 J. V. Ortiz, A. F. Izmaylov, J. L. Sonnenberg, D. Williams-Young, 
 F. Ding, F. Lipparini, F. Egidi, J. Goings, B. Peng, A. Petrone, 
 T. Henderson, D. Ranasinghe, V. G. Zakrzewski, J. Gao, N. Rega, 
 G. Zheng, W. Liang, M. Hada, M. Ehara, K. Toyota, R. Fukuda, 
 J. Hasegawa, M. Ishida, T. Nakajima, Y. Honda, O. Kitao, H. Nakai, 
 T. Vreven, K. Throssell, J. A. Montgomery, Jr., J. E. Peralta, 
 F. Ogliaro, M. J. Bearpark, J. J. Heyd, E. N. Brothers, K. N. Kudin, 
 V. N. Staroverov, T. A. Keith, R. Kobayashi, J. Normand, 
 K. Raghavachari, A. P. Rendell, J. C. Burant, S. S. Iyengar, 
 J. Tomasi, M. Cossi, J. M. Millam, M. Klene, C. Adamo, R. Cammi, 
 J. W. Ochterski, R. L. Martin, K. Morokuma, O. Farkas, 
 J. B. Foresman, and D. J. Fox, Gaussian, Inc., Wallingford CT, 2019.
 
 ******************************************
 Gaussian 16:  ES64L-G16RevC.01  3-Jul-2019
                11-Aug-2022 
 ******************************************
 %mem=8gb
 %nproc=4
 Will use up to    4 processors via shared memory.
 %chk=conf-702.chk
 ----------------------------------------------------------------------
 # B3LYP/6-31G* empiricaldispersion=gd3 guess=read geom=check nosymm in
 tegral(ultrafinegrid)
 ----------------------------------------------------------------------
 1/29=2,38=1,172=1/1;
 2/12=2,15=1,40=1/2;
 3/5=1,6=6,7=1,11=2,14=-4,25=1,30=1,74=-5,75=-5,116=-2,124=31/1,2,3;
 4/5=1/1;
 5/5=2,38=6/2;
 6/7=2,8=2,9=2,10=2,28=1/1;
 99/5=1,9=1/99;
 ------------------------------------------------------
 Candidate Structure: Conf:702 Charge calc in gas phase
 ------------------------------------------------------
 Structure from the checkpoint file:  "conf-702.chk"
 Charge =  1 Multiplicity = 1
 Redundant internal coordinates found in file.  (old form).
 N,0,-5.1533396847,2.5101455918,-2.909137885
 H,0,-5.0211996499,1.5132094477,-3.0968142018
 H,0,-5.7260824135,2.9101665865,-3.656598824
 H,0,-5.6430404523,2.6491475367,-1.9659255051
 C,0,-3.8631832319,3.2469943065,-2.6712647149
 H,0,-3.0187607441,2.5484985935,-2.6293156765
 H,0,-3.694810317,3.9886378565,-3.453265677
 C,0,-4.0457471403,3.857042998,-1.2671664128
 O,0,-5.0772271443,3.559116859,-0.6468993326
 N,0,-3.0559700955,4.6234359184,-0.819792147
 H,0,-2.2179333555,4.778315808,-1.3741305466
 C,0,-2.9855662895,5.0921209182,0.5559167715
 H,0,-3.9969295759,5.2275346945,0.9448135602
 H,0,-2.4774316436,6.0576923256,0.5686884666
 C,0,-2.2490747215,4.1639835446,1.5276259866
 O,0,-2.1230363808,4.5307313373,2.6962222576
 N,0,-1.7977418528,2.9740623403,1.0633449495
 H,0,-1.7032155425,2.7851626652,0.0680423245
 C,0,-1.1939372381,2.0094551028,1.9790775195
 H,0,-1.7219551904,2.0735892791,2.9352932791
 H,0,-1.314174616,1.0072430538,1.56649775
 C,0,0.3080263851,2.2546523868,2.1796256983
 O,0,1.1492794315,1.4368392805,1.8231217431
 N,0,0.6086765936,3.4609556716,2.7383604913
 H,0,-0.1616379625,4.0380112318,3.0685702205
 C,0,1.9706023084,3.9505632057,2.787406341
 H,0,2.1557453376,4.4688317318,3.7338359814
 H,0,2.6501183361,3.0978203179,2.7342096546
 C,0,2.3577664384,4.9071159384,1.6542945757
 O,0,3.5294775201,5.2282680674,1.4823440508
 N,0,1.3309272075,5.4088702657,0.907674534
 H,0,0.456705175,4.8988211249,0.9024386447
 C,0,1.634087912,6.1901833716,-0.2657778
 H,0,1.5141656836,7.2661296829,-0.0648794529
 H,0,2.6869129546,6.0351866696,-0.5252228268
 C,0,0.7156835333,5.8536379565,-1.4272371546
 O,0,-0.4338016717,5.4227218728,-1.2583052485
 N,0,1.2073685141,6.1316058307,-2.656201625
 H,0,2.1573217487,6.4692623389,-2.7324614027
 C,0,0.3904242173,6.0918689073,-3.8695830729
 H,0,-0.6076785072,6.4685349427,-3.6233040632
 H,0,0.8443138362,6.7415495342,-4.6180571005
 C,0,0.3022228331,4.6782200734,-4.4772263781
 O,0,0.9084458316,4.3738982249,-5.492010023
 N,0,-0.5169457934,3.8339965137,-3.7755256001
 H,0,-0.7123807945,4.1198325902,-2.8199320988
 C,0,-0.5104559535,2.3891452456,-4.014171892
 H,0,-1.4493444674,2.0706648864,-4.4862480078
 H,0,0.3133061445,2.142115917,-4.6871400005
 C,0,-0.3841050021,1.7498285031,-2.6312840465
 O,0,-1.2620442142,2.000212068,-1.7768588805
 N,0,0.7080365389,1.0116664963,-2.4203679355
 H,0,1.3710757506,0.9156225941,-3.1964901033
 C,0,1.2458937551,0.7874053602,-1.0847719781
 H,0,1.781593355,-0.162274802,-1.0629381736
 H,0,0.4405052761,0.7702982893,-0.354987772
 C,0,2.1698422526,1.9795119005,-0.7870621291
 O,0,1.7491867198,3.1406783821,-0.9149173088
 N,0,3.4473788866,1.6727261725,-0.4945375176
 H,0,3.7563206632,0.7204770363,-0.7011820045
 C,0,4.4948990512,2.6900325135,-0.5695515881
 H,0,4.1923081056,3.5886055271,-0.0288479139
 H,0,5.4055196691,2.2892615231,-0.1230086268
 C,0,4.744211929,2.9315652613,-2.0586762811
 O,0,5.515552321,2.2368722486,-2.7128626815
 N,0,3.9828383821,3.9265890052,-2.6297848952
 H,0,3.151001302,4.1529979497,-2.0869751065
 C,0,3.7952851377,3.9147072581,-4.0831691877
 H,0,3.1702988486,3.0784392416,-4.4043691626
 H,0,3.2835308366,4.8343584383,-4.38184303
 C,0,5.1042839219,3.8243099204,-4.8552798249
 O,0,5.1821823593,3.1483534924,-5.8933845922
 N,0,6.1379061296,4.5699047971,-4.4102664946
 H,0,6.068904918,4.9239622482,-3.4644767309
 C,0,7.4792160561,4.3309978745,-4.935385116
 H,0,8.139020651,5.1164828628,-4.5637366109
 H,0,7.4386289535,4.3842097181,-6.0251650032
 C,0,8.0453604626,2.9854268443,-4.4436039632
 O,0,8.5515169284,2.8747869259,-3.330293386
 N,0,7.955167638,1.9581865283,-5.3299838867
 H,0,7.3175338397,2.0546500331,-6.110201495
 C,0,8.5823792593,0.6683223024,-5.0813379718
 H,0,8.8570769633,0.2154138677,-6.0351816095
 H,0,9.4880512841,0.8531532399,-4.4952618226
 C,0,7.7128736708,-0.3585070998,-4.3433565604
 O,0,7.4567825169,-1.4551972957,-4.8527450485
 N,0,7.2901775268,-0.0032992614,-3.1083565776
 H,0,7.3982265011,0.9604577193,-2.8079997779
 C,0,6.5036146986,-0.9049505788,-2.2755807474
 H,0,6.5505762951,-0.559892075,-1.2426714391
 H,0,6.9417231163,-1.9068780261,-2.3400832782
 C,0,5.0250479397,-0.9703345041,-2.6821196982
 O,0,4.1066142514,-0.5964432708,-1.9428534141
 N,0,4.7978808032,-1.4644448743,-3.9222153239
 H,0,5.6221837668,-1.6567495918,-4.4971967408
 C,0,3.5246891748,-1.2190981441,-4.5733017005
 H,0,2.7024284133,-1.4540333257,-3.8972147669
 H,0,3.4556040496,-1.8493815882,-5.4644064851
 C,0,3.4241235482,0.2494202547,-4.986300036
 O,0,2.5029596991,0.9901007011,-4.6521980762
 O,0,4.4557854942,0.6212837315,-5.71580394
 H,0,4.4953425128,1.6144861624,-5.8547316189
 Recover connectivity data from disk.
                           ----------------------------
                           !    Current Parameters    !
                           ! (Angstroms and Degrees)  !
 --------------------------                            --------------------------
 ! Name  Definition              Value                                          !
 --------------------------------------------------------------------------------
 ! R1    R(1,2)                  1.023                                          !
 ! R2    R(1,3)                  1.0231                                         !
 ! R3    R(1,4)                  1.0718                                         !
 ! R4    R(1,5)                  1.5047                                         !
 ! R5    R(5,6)                  1.0967                                         !
 ! R6    R(5,7)                  1.0908                                         !
 ! R7    R(5,8)                  1.5417                                         !
 ! R8    R(8,9)                  1.2399                                         !
 ! R9    R(8,10)                 1.3293                                         !
 ! R10   R(10,11)                1.0167                                         !
 ! R11   R(10,12)                1.4551                                         !
 ! R12   R(12,13)                1.092                                          !
 ! R13   R(12,14)                1.0912                                         !
 ! R14   R(12,15)                1.5323                                         !
 ! R15   R(15,16)                1.2313                                         !
 ! R16   R(15,17)                1.3547                                         !
 ! R17   R(17,18)                1.0175                                         !
 ! R18   R(17,19)                1.4607                                         !
 ! R19   R(19,20)                1.0942                                         !
 ! R20   R(19,21)                1.0905                                         !
 ! R21   R(19,22)                1.535                                          !
 ! R22   R(22,23)                1.2262                                         !
 ! R23   R(22,24)                1.363                                          !
 ! R24   R(24,25)                1.0176                                         !
 ! R25   R(24,26)                1.4481                                         !
 ! R26   R(26,27)                1.0948                                         !
 ! R27   R(26,28)                1.0917                                         !
 ! R28   R(26,29)                1.5326                                         !
 ! R29   R(29,30)                1.227                                          !
 ! R30   R(29,31)                1.3651                                         !
 ! R31   R(31,32)                1.0121                                         !
 ! R32   R(31,33)                1.442                                          !
 ! R33   R(33,34)                1.1011                                         !
 ! R34   R(33,35)                1.0953                                         !
 ! R35   R(33,36)                1.5185                                         !
 ! R36   R(36,37)                1.2392                                         !
 ! R37   R(36,38)                1.3525                                         !
 ! R38   R(38,39)                1.0111                                         !
 ! R39   R(38,40)                1.4633                                         !
 ! R40   R(40,41)                1.0949                                         !
 ! R41   R(40,42)                1.0901                                         !
 ! R42   R(40,43)                1.5412                                         !
 ! R43   R(43,44)                1.2206                                         !
 ! R44   R(43,45)                1.3697                                         !
 ! R45   R(45,46)                1.0164                                         !
 ! R46   R(45,47)                1.4644                                         !
 ! R47   R(47,48)                1.0981                                         !
 ! R48   R(47,49)                1.092                                          !
 ! R49   R(47,50)                1.5287                                         !
 ! R50   R(50,51)                1.2504                                         !
 ! R51   R(50,52)                1.335                                          !
 ! R52   R(52,53)                1.0253                                         !
 ! R53   R(52,54)                1.4572                                         !
 ! R54   R(54,55)                1.0906                                         !
 ! R55   R(54,56)                1.087                                          !
 ! R56   R(54,57)                1.5373                                         !
 ! R57   R(57,58)                1.2416                                         !
 ! R58   R(57,59)                1.346                                          !
 ! R59   R(59,60)                1.0222                                         !
 ! R60   R(59,61)                1.4621                                         !
 ! R61   R(61,62)                1.0915                                         !
 ! R62   R(61,63)                1.0905                                         !
 ! R63   R(61,64)                1.529                                          !
 ! R64   R(64,65)                1.227                                          !
 ! R65   R(64,66)                1.3769                                         !
 ! R66   R(66,67)                1.0188                                         !
 ! R67   R(66,68)                1.4655                                         !
 ! R68   R(68,69)                1.0923                                         !
 ! R69   R(68,70)                1.094                                          !
 ! R70   R(68,71)                1.5224                                         !
 ! R71   R(71,72)                1.2412                                         !
 ! R72   R(71,73)                1.3499                                         !
 ! R73   R(73,74)                1.0122                                         !
 ! R74   R(73,75)                1.4601                                         !
 ! R75   R(75,76)                1.0911                                         !
 ! R76   R(75,77)                1.0918                                         !
 ! R77   R(75,78)                1.5404                                         !
 ! R78   R(78,79)                1.228                                          !
 ! R79   R(78,80)                1.3598                                         !
 ! R80   R(80,81)                1.0122                                         !
 ! R81   R(80,82)                1.4557                                         !
 ! R82   R(82,83)                1.0911                                         !
 ! R83   R(82,84)                1.0945                                         !
 ! R84   R(82,85)                1.5346                                         !
 ! R85   R(85,86)                1.236                                          !
 ! R86   R(85,87)                1.3528                                         !
 ! R87   R(87,88)                1.0152                                         !
 ! R88   R(87,89)                1.4578                                         !
 ! R89   R(89,90)                1.09                                           !
 ! R90   R(89,91)                1.0954                                         !
 ! R91   R(89,92)                1.5348                                         !
 ! R92   R(92,93)                1.2369                                         !
 ! R93   R(92,94)                1.3541                                         !
 ! R94   R(94,95)                1.0233                                         !
 ! R95   R(94,96)                1.4509                                         !
 ! R96   R(96,97)                1.0901                                         !
 ! R97   R(96,98)                1.0937                                         !
 ! R98   R(96,99)                1.5288                                         !
 ! R99   R(99,100)               1.2283                                         !
 ! R100  R(99,101)               1.3171                                         !
 ! R101  R(101,102)              1.0037                                         !
 ! A1    A(2,1,3)              108.6206                                         !
 ! A2    A(2,1,4)              110.2942                                         !
 ! A3    A(2,1,5)              113.2955                                         !
 ! A4    A(3,1,4)              109.6604                                         !
 ! A5    A(3,1,5)              113.8301                                         !
 ! A6    A(4,1,5)              100.9016                                         !
 ! A7    A(1,5,6)              110.7537                                         !
 ! A8    A(1,5,7)              110.6074                                         !
 ! A9    A(1,5,8)              103.6632                                         !
 ! A10   A(6,5,7)              109.9748                                         !
 ! A11   A(6,5,8)              107.9605                                         !
 ! A12   A(7,5,8)              113.7118                                         !
 ! A13   A(5,8,9)              117.3234                                         !
 ! A14   A(5,8,10)             116.5159                                         !
 ! A15   A(9,8,10)             126.1257                                         !
 ! A16   A(8,10,11)            121.2033                                         !
 ! A17   A(8,10,12)            122.6776                                         !
 ! A18   A(11,10,12)           115.2499                                         !
 ! A19   A(10,12,13)           109.3809                                         !
 ! A20   A(10,12,14)           108.5797                                         !
 ! A21   A(10,12,15)           115.3221                                         !
 ! A22   A(13,12,14)           108.5052                                         !
 ! A23   A(13,12,15)           107.1226                                         !
 ! A24   A(14,12,15)           107.7421                                         !
 ! A25   A(12,15,16)           118.076                                          !
 ! A26   A(12,15,17)           118.3481                                         !
 ! A27   A(16,15,17)           123.56                                           !
 ! A28   A(15,17,18)           121.9571                                         !
 ! A29   A(15,17,19)           120.1934                                         !
 ! A30   A(18,17,19)           116.8883                                         !
 ! A31   A(17,19,20)           108.0399                                         !
 ! A32   A(17,19,21)           108.9146                                         !
 ! A33   A(17,19,22)           112.3889                                         !
 ! A34   A(20,19,21)           109.3479                                         !
 ! A35   A(20,19,22)           110.404                                          !
 ! A36   A(21,19,22)           107.7059                                         !
 ! A37   A(19,22,23)           121.7873                                         !
 ! A38   A(19,22,24)           114.2529                                         !
 ! A39   A(23,22,24)           123.9258                                         !
 ! A40   A(22,24,25)           117.9014                                         !
 ! A41   A(22,24,26)           121.3711                                         !
 ! A42   A(25,24,26)           120.6139                                         !
 ! A43   A(24,26,27)           110.3883                                         !
 ! A44   A(24,26,28)           108.6424                                         !
 ! A45   A(24,26,29)           115.0605                                         !
 ! A46   A(27,26,28)           107.857                                          !
 ! A47   A(27,26,29)           107.5153                                         !
 ! A48   A(28,26,29)           107.1135                                         !
 ! A49   A(26,29,30)           120.5437                                         !
 ! A50   A(26,29,31)           116.3431                                         !
 ! A51   A(30,29,31)           123.0543                                         !
 ! A52   A(29,31,32)           117.8591                                         !
 ! A53   A(29,31,33)           119.0831                                         !
 ! A54   A(32,31,33)           116.7707                                         !
 ! A55   A(31,33,34)           110.9824                                         !
 ! A56   A(31,33,35)           108.5515                                         !
 ! A57   A(31,33,36)           112.0368                                         !
 ! A58   A(34,33,35)           106.6291                                         !
 ! A59   A(34,33,36)           106.8735                                         !
 ! A60   A(35,33,36)           111.6424                                         !
 ! A61   A(33,36,37)           122.266                                          !
 ! A62   A(33,36,38)           115.4414                                         !
 ! A63   A(37,36,38)           122.1782                                         !
 ! A64   A(36,38,39)           118.6021                                         !
 ! A65   A(36,38,40)           123.0185                                         !
 ! A66   A(39,38,40)           118.1038                                         !
 ! A67   A(38,40,41)           108.245                                          !
 ! A68   A(38,40,42)           108.7053                                         !
 ! A69   A(38,40,43)           112.5678                                         !
 ! A70   A(41,40,42)           109.2072                                         !
 ! A71   A(41,40,43)           110.6135                                         !
 ! A72   A(42,40,43)           107.444                                          !
 ! A73   A(40,43,44)           121.8724                                         !
 ! A74   A(40,43,45)           113.4266                                         !
 ! A75   A(44,43,45)           124.6991                                         !
 ! A76   A(43,45,46)           115.0439                                         !
 ! A77   A(43,45,47)           121.4643                                         !
 ! A78   A(46,45,47)           115.5646                                         !
 ! A79   A(45,47,48)           110.6354                                         !
 ! A80   A(45,47,49)           109.0842                                         !
 ! A81   A(45,47,50)           105.4                                            !
 ! A82   A(48,47,49)           108.3271                                         !
 ! A83   A(48,47,50)           109.7713                                         !
 ! A84   A(49,47,50)           113.6104                                         !
 ! A85   A(47,50,51)           118.4474                                         !
 ! A86   A(47,50,52)           116.2171                                         !
 ! A87   A(51,50,52)           125.2519                                         !
 ! A88   A(50,52,53)           117.4682                                         !
 ! A89   A(50,52,54)           122.1322                                         !
 ! A90   A(53,52,54)           116.1488                                         !
 ! A91   A(52,54,55)           109.4921                                         !
 ! A92   A(52,54,56)           110.1391                                         !
 ! A93   A(52,54,57)           106.2595                                         !
 ! A94   A(55,54,56)           109.6827                                         !
 ! A95   A(55,54,57)           112.0959                                         !
 ! A96   A(56,54,57)           109.1169                                         !
 ! A97   A(54,57,58)           120.1079                                         !
 ! A98   A(54,57,59)           115.8344                                         !
 ! A99   A(58,57,59)           123.8547                                         !
 ! A100  A(57,59,60)           117.0801                                         !
 ! A101  A(57,59,61)           120.6804                                         !
 ! A102  A(60,59,61)           114.9134                                         !
 ! A103  A(59,61,62)           110.4117                                         !
 ! A104  A(59,61,63)           108.7559                                         !
 ! A105  A(59,61,64)           106.0625                                         !
 ! A106  A(62,61,63)           109.3412                                         !
 ! A107  A(62,61,64)           113.4285                                         !
 ! A108  A(63,61,64)           108.7042                                         !
 ! A109  A(61,64,65)           122.1614                                         !
 ! A110  A(61,64,66)           115.3364                                         !
 ! A111  A(65,64,66)           122.3852                                         !
 ! A112  A(64,66,67)           113.0231                                         !
 ! A113  A(64,66,68)           118.441                                          !
 ! A114  A(67,66,68)           115.1963                                         !
 ! A115  A(66,68,69)           111.7813                                         !
 ! A116  A(66,68,70)           108.8932                                         !
 ! A117  A(66,68,71)           113.1669                                         !
 ! A118  A(69,68,70)           107.1967                                         !
 ! A119  A(69,68,71)           107.2995                                         !
 ! A120  A(70,68,71)           108.2796                                         !
 ! A121  A(68,71,72)           120.6943                                         !
 ! A122  A(68,71,73)           117.2812                                         !
 ! A123  A(72,71,73)           121.9001                                         !
 ! A124  A(71,73,74)           116.68                                           !
 ! A125  A(71,73,75)           119.6336                                         !
 ! A126  A(74,73,75)           117.1217                                         !
 ! A127  A(73,75,76)           108.3744                                         !
 ! A128  A(73,75,77)           108.4721                                         !
 ! A129  A(73,75,78)           111.4524                                         !
 ! A130  A(76,75,77)           109.1097                                         !
 ! A131  A(76,75,78)           107.3287                                         !
 ! A132  A(77,75,78)           112.017                                          !
 ! A133  A(75,78,79)           121.3077                                         !
 ! A134  A(75,78,80)           115.3026                                         !
 ! A135  A(79,78,80)           123.3851                                         !
 ! A136  A(78,80,81)           118.179                                          !
 ! A137  A(78,80,82)           121.9697                                         !
 ! A138  A(81,80,82)           119.1779                                         !
 ! A139  A(80,82,83)           109.0856                                         !
 ! A140  A(80,82,84)           107.3598                                         !
 ! A141  A(80,82,85)           115.5253                                         !
 ! A142  A(83,82,84)           109.2629                                         !
 ! A143  A(83,82,85)           106.5775                                         !
 ! A144  A(84,82,85)           108.9256                                         !
 ! A145  A(82,85,86)           120.8564                                         !
 ! A146  A(82,85,87)           116.1271                                         !
 ! A147  A(86,85,87)           122.9878                                         !
 ! A148  A(85,87,88)           119.0838                                         !
 ! A149  A(85,87,89)           121.8502                                         !
 ! A150  A(88,87,89)           118.3955                                         !
 ! A151  A(87,89,90)           108.801                                          !
 ! A152  A(87,89,91)           108.4382                                         !
 ! A153  A(87,89,92)           113.2543                                         !
 ! A154  A(90,89,91)           109.1538                                         !
 ! A155  A(90,89,92)           107.8173                                         !
 ! A156  A(91,89,92)           109.3126                                         !
 ! A157  A(89,92,93)           122.9658                                         !
 ! A158  A(89,92,94)           114.8177                                         !
 ! A159  A(93,92,94)           122.2156                                         !
 ! A160  A(92,94,95)           116.6178                                         !
 ! A161  A(92,94,96)           119.767                                          !
 ! A162  A(95,94,96)           119.1122                                         !
 ! A163  A(94,96,97)           110.3124                                         !
 ! A164  A(94,96,98)           108.8815                                         !
 ! A165  A(94,96,99)           109.9611                                         !
 ! A166  A(97,96,98)           109.4798                                         !
 ! A167  A(97,96,99)           108.9617                                         !
 ! A168  A(98,96,99)           109.2272                                         !
 ! A169  A(96,99,100)          123.7161                                         !
 ! A170  A(96,99,101)          111.6725                                         !
 ! A171  A(100,99,101)         124.5977                                         !
 ! A172  A(99,101,102)         112.7637                                         !
 ! D1    D(2,1,5,6)             -6.5602                                         !
 ! D2    D(2,1,5,7)            115.6328                                         !
 ! D3    D(2,1,5,8)           -122.1217                                         !
 ! D4    D(3,1,5,6)           -131.3255                                         !
 ! D5    D(3,1,5,7)             -9.1324                                         !
 ! D6    D(3,1,5,8)            113.113                                          !
 ! D7    D(4,1,5,6)            111.3114                                         !
 ! D8    D(4,1,5,7)           -126.4955                                         !
 ! D9    D(4,1,5,8)             -4.2501                                         !
 ! D10   D(1,5,8,9)              4.7763                                         !
 ! D11   D(1,5,8,10)          -177.2442                                         !
 ! D12   D(6,5,8,9)           -112.7498                                         !
 ! D13   D(6,5,8,10)            65.2296                                         !
 ! D14   D(7,5,8,9)            124.9339                                         !
 ! D15   D(7,5,8,10)           -57.0866                                         !
 ! D16   D(5,8,10,11)           -1.1827                                         !
 ! D17   D(5,8,10,12)         -169.9991                                         !
 ! D18   D(9,8,10,11)          176.5948                                         !
 ! D19   D(9,8,10,12)            7.7784                                         !
 ! D20   D(8,10,12,13)         -31.4458                                         !
 ! D21   D(8,10,12,14)        -149.6883                                         !
 ! D22   D(8,10,12,15)          89.3333                                         !
 ! D23   D(11,10,12,13)        159.1232                                         !
 ! D24   D(11,10,12,14)         40.8807                                         !
 ! D25   D(11,10,12,15)        -80.0976                                         !
 ! D26   D(10,12,15,16)        177.7727                                         !
 ! D27   D(10,12,15,17)         -3.6218                                         !
 ! D28   D(13,12,15,16)        -60.2274                                         !
 ! D29   D(13,12,15,17)        118.378                                          !
 ! D30   D(14,12,15,16)         56.3408                                         !
 ! D31   D(14,12,15,17)       -125.0538                                         !
 ! D32   D(12,15,17,18)         16.8789                                         !
 ! D33   D(12,15,17,19)       -174.69                                           !
 ! D34   D(16,15,17,18)       -164.5978                                         !
 ! D35   D(16,15,17,19)          3.8334                                         !
 ! D36   D(15,17,19,20)         35.688                                          !
 ! D37   D(15,17,19,21)        154.3682                                         !
 ! D38   D(15,17,19,22)        -86.3662                                         !
 ! D39   D(18,17,19,20)       -155.3101                                         !
 ! D40   D(18,17,19,21)        -36.6299                                         !
 ! D41   D(18,17,19,22)         82.6357                                         !
 ! D42   D(17,19,22,23)       -115.7234                                         !
 ! D43   D(17,19,22,24)         62.2328                                         !
 ! D44   D(20,19,22,23)        123.5741                                         !
 ! D45   D(20,19,22,24)        -58.4697                                         !
 ! D46   D(21,19,22,23)          4.2458                                         !
 ! D47   D(21,19,22,24)       -177.798                                          !
 ! D48   D(19,22,24,25)          6.8734                                         !
 ! D49   D(19,22,24,26)       -169.2724                                         !
 ! D50   D(23,22,24,25)       -175.2203                                         !
 ! D51   D(23,22,24,26)          8.6338                                         !
 ! D52   D(22,24,26,27)       -141.8398                                         !
 ! D53   D(22,24,26,28)        -23.7642                                         !
 ! D54   D(22,24,26,29)         96.2744                                         !
 ! D55   D(25,24,26,27)         42.1182                                         !
 ! D56   D(25,24,26,28)        160.1938                                         !
 ! D57   D(25,24,26,29)        -79.7676                                         !
 ! D58   D(24,26,29,30)       -169.2927                                         !
 ! D59   D(24,26,29,31)         13.4138                                         !
 ! D60   D(27,26,29,30)         67.2819                                         !
 ! D61   D(27,26,29,31)       -110.0117                                         !
 ! D62   D(28,26,29,30)        -48.4154                                         !
 ! D63   D(28,26,29,31)        134.2911                                         !
 ! D64   D(26,29,31,32)        -21.6775                                         !
 ! D65   D(26,29,31,33)       -172.9553                                         !
 ! D66   D(30,29,31,32)        161.1036                                         !
 ! D67   D(30,29,31,33)          9.8258                                         !
 ! D68   D(29,31,33,34)       -101.8267                                         !
 ! D69   D(29,31,33,35)         15.0455                                         !
 ! D70   D(29,31,33,36)        138.7925                                         !
 ! D71   D(32,31,33,34)        106.5894                                         !
 ! D72   D(32,31,33,35)       -136.5384                                         !
 ! D73   D(32,31,33,36)        -12.7914                                         !
 ! D74   D(31,33,36,37)         27.5889                                         !
 ! D75   D(31,33,36,38)       -156.2249                                         !
 ! D76   D(34,33,36,37)        -94.1776                                         !
 ! D77   D(34,33,36,38)         82.0086                                         !
 ! D78   D(35,33,36,37)        149.5857                                         !
 ! D79   D(35,33,36,38)        -34.2282                                         !
 ! D80   D(33,36,38,39)          4.6167                                         !
 ! D81   D(33,36,38,40)       -169.2328                                         !
 ! D82   D(37,36,38,39)       -179.1935                                         !
 ! D83   D(37,36,38,40)          6.957                                          !
 ! D84   D(36,38,40,41)         37.0364                                         !
 ! D85   D(36,38,40,42)        155.5478                                         !
 ! D86   D(36,38,40,43)        -85.5412                                         !
 ! D87   D(39,38,40,41)       -136.842                                          !
 ! D88   D(39,38,40,42)        -18.3306                                         !
 ! D89   D(39,38,40,43)        100.5804                                         !
 ! D90   D(38,40,43,44)       -106.0055                                         !
 ! D91   D(38,40,43,45)         74.4775                                         !
 ! D92   D(41,40,43,44)        132.7588                                         !
 ! D93   D(41,40,43,45)        -46.7581                                         !
 ! D94   D(42,40,43,44)         13.6397                                         !
 ! D95   D(42,40,43,45)       -165.8772                                         !
 ! D96   D(40,43,45,46)        -19.0215                                         !
 ! D97   D(40,43,45,47)       -166.6229                                         !
 ! D98   D(44,43,45,46)        161.4774                                         !
 ! D99   D(44,43,45,47)         13.876                                          !
 ! D100  D(43,45,47,48)       -110.9888                                         !
 ! D101  D(43,45,47,49)          8.0778                                         !
 ! D102  D(43,45,47,50)        130.4141                                         !
 ! D103  D(46,45,47,48)        101.5664                                         !
 ! D104  D(46,45,47,49)       -139.367                                          !
 ! D105  D(46,45,47,50)        -17.0306                                         !
 ! D106  D(45,47,50,51)         58.8472                                         !
 ! D107  D(45,47,50,52)       -118.0042                                         !
 ! D108  D(48,47,50,51)        -60.3263                                         !
 ! D109  D(48,47,50,52)        122.8223                                         !
 ! D110  D(49,47,50,51)        178.2217                                         !
 ! D111  D(49,47,50,52)          1.3703                                         !
 ! D112  D(47,50,52,53)         -0.8461                                         !
 ! D113  D(47,50,52,54)        155.0852                                         !
 ! D114  D(51,50,52,53)       -177.4557                                         !
 ! D115  D(51,50,52,54)        -21.5245                                         !
 ! D116  D(50,52,54,55)        152.6507                                         !
 ! D117  D(50,52,54,56)         31.9628                                         !
 ! D118  D(50,52,54,57)        -86.0917                                         !
 ! D119  D(53,52,54,55)        -51.1223                                         !
 ! D120  D(53,52,54,56)       -171.8102                                         !
 ! D121  D(53,52,54,57)         70.1353                                         !
 ! D122  D(52,54,57,58)         52.6522                                         !
 ! D123  D(52,54,57,59)       -122.3682                                         !
 ! D124  D(55,54,57,58)        172.2253                                         !
 ! D125  D(55,54,57,59)         -2.7951                                         !
 ! D126  D(56,54,57,58)        -66.0767                                         !
 ! D127  D(56,54,57,59)        118.9028                                         !
 ! D128  D(54,57,59,60)         13.8029                                         !
 ! D129  D(54,57,59,61)        162.3931                                         !
 ! D130  D(58,57,59,60)       -161.0094                                         !
 ! D131  D(58,57,59,61)        -12.4192                                         !
 ! D132  D(57,59,61,62)         49.7258                                         !
 ! D133  D(57,59,61,63)        169.6969                                         !
 ! D134  D(57,59,61,64)        -73.5468                                         !
 ! D135  D(60,59,61,62)       -161.0469                                         !
 ! D136  D(60,59,61,63)        -41.0757                                         !
 ! D137  D(60,59,61,64)         75.6805                                         !
 ! D138  D(59,61,64,65)        -85.5249                                         !
 ! D139  D(59,61,64,66)         90.6277                                         !
 ! D140  D(62,61,64,65)        153.1222                                         !
 ! D141  D(62,61,64,66)        -30.7252                                         !
 ! D142  D(63,61,64,65)         31.2661                                         !
 ! D143  D(63,61,64,66)       -152.5813                                         !
 ! D144  D(61,64,66,67)        -19.4601                                         !
 ! D145  D(61,64,66,68)       -158.5923                                         !
 ! D146  D(65,64,66,67)        156.683                                          !
 ! D147  D(65,64,66,68)         17.5508                                         !
 ! D148  D(64,66,68,69)         69.0746                                         !
 ! D149  D(64,66,68,70)       -172.6785                                         !
 ! D150  D(64,66,68,71)        -52.2113                                         !
 ! D151  D(67,66,68,69)        -69.2032                                         !
 ! D152  D(67,66,68,70)         49.0437                                         !
 ! D153  D(67,66,68,71)        169.5109                                         !
 ! D154  D(66,68,71,72)        142.2407                                         !
 ! D155  D(66,68,71,73)        -41.7369                                         !
 ! D156  D(69,68,71,72)         18.4603                                         !
 ! D157  D(69,68,71,73)       -165.5173                                         !
 ! D158  D(70,68,71,72)        -96.9437                                         !
 ! D159  D(70,68,71,73)         79.0786                                         !
 ! D160  D(68,71,73,74)         17.0967                                         !
 ! D161  D(68,71,73,75)        167.8865                                         !
 ! D162  D(72,71,73,74)       -166.9322                                         !
 ! D163  D(72,71,73,75)        -16.1425                                         !
 ! D164  D(71,73,75,76)        172.1085                                         !
 ! D165  D(71,73,75,77)         53.7711                                         !
 ! D166  D(71,73,75,78)        -70.0039                                         !
 ! D167  D(74,73,75,76)        -37.2274                                         !
 ! D168  D(74,73,75,77)       -155.5648                                         !
 ! D169  D(74,73,75,78)         80.6602                                         !
 ! D170  D(73,75,78,79)        -81.1229                                         !
 ! D171  D(73,75,78,80)         99.6326                                         !
 ! D172  D(76,75,78,79)         37.3928                                         !
 ! D173  D(76,75,78,80)       -141.8518                                         !
 ! D174  D(77,75,78,79)        157.1345                                         !
 ! D175  D(77,75,78,80)        -22.11                                           !
 ! D176  D(75,78,80,81)        -16.8595                                         !
 ! D177  D(75,78,80,82)        172.6276                                         !
 ! D178  D(79,78,80,81)        163.9135                                         !
 ! D179  D(79,78,80,82)         -6.5995                                         !
 ! D180  D(78,80,82,83)       -149.9071                                         !
 ! D181  D(78,80,82,84)        -31.6183                                         !
 ! D182  D(78,80,82,85)         90.1073                                         !
 ! D183  D(81,80,82,83)         39.6717                                         !
 ! D184  D(81,80,82,84)        157.9605                                         !
 ! D185  D(81,80,82,85)        -80.3139                                         !
 ! D186  D(80,82,85,86)        121.5664                                         !
 ! D187  D(80,82,85,87)        -60.3244                                         !
 ! D188  D(83,82,85,86)          0.22                                           !
 ! D189  D(83,82,85,87)        178.3292                                         !
 ! D190  D(84,82,85,86)       -117.5517                                         !
 ! D191  D(84,82,85,87)         60.5575                                         !
 ! D192  D(82,85,87,88)         12.0702                                         !
 ! D193  D(82,85,87,89)       -177.4677                                         !
 ! D194  D(86,85,87,88)       -169.8649                                         !
 ! D195  D(86,85,87,89)          0.5971                                         !
 ! D196  D(85,87,89,90)        161.9806                                         !
 ! D197  D(85,87,89,91)         43.3697                                         !
 ! D198  D(85,87,89,92)        -78.1446                                         !
 ! D199  D(88,87,89,90)        -27.4942                                         !
 ! D200  D(88,87,89,91)       -146.1051                                         !
 ! D201  D(88,87,89,92)         92.3807                                         !
 ! D202  D(87,89,92,93)       -116.1963                                         !
 ! D203  D(87,89,92,94)         63.4556                                         !
 ! D204  D(90,89,92,93)          4.2388                                         !
 ! D205  D(90,89,92,94)       -176.1093                                         !
 ! D206  D(91,89,92,93)        122.7817                                         !
 ! D207  D(91,89,92,94)        -57.5664                                         !
 ! D208  D(89,92,94,95)         -5.8347                                         !
 ! D209  D(89,92,94,96)       -161.8349                                         !
 ! D210  D(93,92,94,95)        173.8201                                         !
 ! D211  D(93,92,94,96)         17.8199                                         !
 ! D212  D(92,94,96,97)        -48.9012                                         !
 ! D213  D(92,94,96,98)       -169.0606                                         !
 ! D214  D(92,94,96,99)         71.302                                          !
 ! D215  D(95,94,96,97)        155.6941                                         !
 ! D216  D(95,94,96,98)         35.5346                                         !
 ! D217  D(95,94,96,99)        -84.1027                                         !
 ! D218  D(94,96,99,100)      -125.0053                                         !
 ! D219  D(94,96,99,101)        53.6993                                         !
 ! D220  D(97,96,99,100)        -3.9874                                         !
 ! D221  D(97,96,99,101)       174.7171                                         !
 ! D222  D(98,96,99,100)       115.5682                                         !
 ! D223  D(98,96,99,101)       -65.7273                                         !
 ! D224  D(96,99,101,102)     -169.4638                                         !
 ! D225  D(100,99,101,102)       9.2271                                         !
 --------------------------------------------------------------------------------
 Symmetry turned off by external request.
 Stoichiometry    C28H45N14O15(1+)
 Framework group  C1[X(C28H45N14O15)]
 Deg. of freedom   300
 Full point group                 C1      NOp   1
                          Input orientation:                          
 ---------------------------------------------------------------------
 Center     Atomic      Atomic             Coordinates (Angstroms)
 Number     Number       Type             X           Y           Z
 ---------------------------------------------------------------------
      1          7           0       -5.153340    2.510146   -2.909138
      2          1           0       -5.021200    1.513209   -3.096814
      3          1           0       -5.726082    2.910167   -3.656599
      4          1           0       -5.643040    2.649148   -1.965926
      5          6           0       -3.863183    3.246994   -2.671265
      6          1           0       -3.018761    2.548499   -2.629316
      7          1           0       -3.694810    3.988638   -3.453266
      8          6           0       -4.045747    3.857043   -1.267166
      9          8           0       -5.077227    3.559117   -0.646899
     10          7           0       -3.055970    4.623436   -0.819792
     11          1           0       -2.217933    4.778316   -1.374131
     12          6           0       -2.985566    5.092121    0.555917
     13          1           0       -3.996930    5.227535    0.944814
     14          1           0       -2.477432    6.057692    0.568688
     15          6           0       -2.249075    4.163984    1.527626
     16          8           0       -2.123036    4.530731    2.696222
     17          7           0       -1.797742    2.974062    1.063345
     18          1           0       -1.703216    2.785163    0.068042
     19          6           0       -1.193937    2.009455    1.979078
     20          1           0       -1.721955    2.073589    2.935293
     21          1           0       -1.314175    1.007243    1.566498
     22          6           0        0.308026    2.254652    2.179626
     23          8           0        1.149279    1.436839    1.823122
     24          7           0        0.608677    3.460956    2.738360
     25          1           0       -0.161638    4.038011    3.068570
     26          6           0        1.970602    3.950563    2.787406
     27          1           0        2.155745    4.468832    3.733836
     28          1           0        2.650118    3.097820    2.734210
     29          6           0        2.357766    4.907116    1.654295
     30          8           0        3.529478    5.228268    1.482344
     31          7           0        1.330927    5.408870    0.907675
     32          1           0        0.456705    4.898821    0.902439
     33          6           0        1.634088    6.190183   -0.265778
     34          1           0        1.514166    7.266130   -0.064879
     35          1           0        2.686913    6.035187   -0.525223
     36          6           0        0.715684    5.853638   -1.427237
     37          8           0       -0.433802    5.422722   -1.258305
     38          7           0        1.207369    6.131606   -2.656202
     39          1           0        2.157322    6.469262   -2.732461
     40          6           0        0.390424    6.091869   -3.869583
     41          1           0       -0.607679    6.468535   -3.623304
     42          1           0        0.844314    6.741550   -4.618057
     43          6           0        0.302223    4.678220   -4.477226
     44          8           0        0.908446    4.373898   -5.492010
     45          7           0       -0.516946    3.833997   -3.775526
     46          1           0       -0.712381    4.119833   -2.819932
     47          6           0       -0.510456    2.389145   -4.014172
     48          1           0       -1.449344    2.070665   -4.486248
     49          1           0        0.313306    2.142116   -4.687140
     50          6           0       -0.384105    1.749829   -2.631284
     51          8           0       -1.262044    2.000212   -1.776859
     52          7           0        0.708037    1.011666   -2.420368
     53          1           0        1.371076    0.915623   -3.196490
     54          6           0        1.245894    0.787405   -1.084772
     55          1           0        1.781593   -0.162275   -1.062938
     56          1           0        0.440505    0.770298   -0.354988
     57          6           0        2.169842    1.979512   -0.787062
     58          8           0        1.749187    3.140678   -0.914917
     59          7           0        3.447379    1.672726   -0.494538
     60          1           0        3.756321    0.720477   -0.701182
     61          6           0        4.494899    2.690033   -0.569552
     62          1           0        4.192308    3.588606   -0.028848
     63          1           0        5.405520    2.289262   -0.123009
     64          6           0        4.744212    2.931565   -2.058676
     65          8           0        5.515552    2.236872   -2.712863
     66          7           0        3.982838    3.926589   -2.629785
     67          1           0        3.151001    4.152998   -2.086975
     68          6           0        3.795285    3.914707   -4.083169
     69          1           0        3.170299    3.078439   -4.404369
     70          1           0        3.283531    4.834358   -4.381843
     71          6           0        5.104284    3.824310   -4.855280
     72          8           0        5.182182    3.148353   -5.893385
     73          7           0        6.137906    4.569905   -4.410266
     74          1           0        6.068905    4.923962   -3.464477
     75          6           0        7.479216    4.330998   -4.935385
     76          1           0        8.139021    5.116483   -4.563737
     77          1           0        7.438629    4.384210   -6.025165
     78          6           0        8.045360    2.985427   -4.443604
     79          8           0        8.551517    2.874787   -3.330293
     80          7           0        7.955168    1.958187   -5.329984
     81          1           0        7.317534    2.054650   -6.110201
     82          6           0        8.582379    0.668322   -5.081338
     83          1           0        8.857077    0.215414   -6.035182
     84          1           0        9.488051    0.853153   -4.495262
     85          6           0        7.712874   -0.358507   -4.343357
     86          8           0        7.456783   -1.455197   -4.852745
     87          7           0        7.290178   -0.003299   -3.108357
     88          1           0        7.398227    0.960458   -2.808000
     89          6           0        6.503615   -0.904951   -2.275581
     90          1           0        6.550576   -0.559892   -1.242671
     91          1           0        6.941723   -1.906878   -2.340083
     92          6           0        5.025048   -0.970335   -2.682120
     93          8           0        4.106614   -0.596443   -1.942853
     94          7           0        4.797881   -1.464445   -3.922215
     95          1           0        5.622184   -1.656750   -4.497197
     96          6           0        3.524689   -1.219098   -4.573302
     97          1           0        2.702428   -1.454033   -3.897215
     98          1           0        3.455604   -1.849382   -5.464406
     99          6           0        3.424124    0.249420   -4.986300
    100          8           0        2.502960    0.990101   -4.652198
    101          8           0        4.455785    0.621284   -5.715804
    102          1           0        4.495343    1.614486   -5.854732
 ---------------------------------------------------------------------
 Rotational constants (GHZ):           0.0824321           0.0316227           0.0303460
 Standard basis: 6-31G(d) (6D, 7F)
   945 basis functions,  1776 primitive gaussians,   945 cartesian basis functions
   215 alpha electrons      215 beta electrons
       nuclear repulsion energy      9689.5261052118 Hartrees.
 NAtoms=  102 NActive=  102 NUniq=  102 SFac= 1.00D+00 NAtFMM=   60 NAOKFM=T Big=T
 Integral buffers will be    131072 words long.
 Raffenetti 2 integral format.
 Two-electron integral symmetry is turned off.
 Nuclear repulsion after empirical dispersion term =     9689.3455803679 Hartrees.
 One-electron integrals computed using PRISM.
 NBasis=   945 RedAO= T EigKep=  2.30D-03  NBF=   945
 NBsUse=   945 1.00D-06 EigRej= -1.00D+00 NBFU=   945
 Initial guess from the checkpoint file:  "conf-702.chk"
 B after Tr=     0.000000    0.000000    0.000000
         Rot=    1.000000    0.000000    0.000000    0.000000 Ang=   0.00 deg.
 Requested convergence on RMS density matrix=1.00D-08 within 128 cycles.
 Requested convergence on MAX density matrix=1.00D-06.
 Requested convergence on             energy=1.00D-06.
 No special actions if energy rises.
 SCF Done:  E(RB3LYP) =  -2989.18219422     A.U. after    3 cycles
            NFock=  3  Conv=0.76D-09     -V/T= 2.0091
 Hyperfine terms turned off by default for NAtoms > 100.

 **********************************************************************

            Population analysis using the SCF Density.

 **********************************************************************

 Alpha  occ. eigenvalues --  -19.27118 -19.26544 -19.25160 -19.23283 -19.23152
 Alpha  occ. eigenvalues --  -19.22093 -19.21931 -19.21427 -19.21153 -19.20748
 Alpha  occ. eigenvalues --  -19.20488 -19.19717 -19.19358 -19.18845 -19.18790
 Alpha  occ. eigenvalues --  -14.60574 -14.49549 -14.49340 -14.46278 -14.45870
 Alpha  occ. eigenvalues --  -14.45757 -14.45351 -14.45215 -14.44259 -14.44122
 Alpha  occ. eigenvalues --  -14.43803 -14.43587 -14.43334 -14.42886 -10.43809
 Alpha  occ. eigenvalues --  -10.41838 -10.40992 -10.39819 -10.39552 -10.39217
 Alpha  occ. eigenvalues --  -10.38770 -10.38735 -10.37926 -10.37559 -10.36950
 Alpha  occ. eigenvalues --  -10.36859 -10.36653 -10.36135 -10.35752 -10.34383
 Alpha  occ. eigenvalues --  -10.33651 -10.33007 -10.32947 -10.31422 -10.31376
 Alpha  occ. eigenvalues --  -10.31328 -10.30862 -10.30805 -10.30550 -10.30243
 Alpha  occ. eigenvalues --  -10.30212 -10.29598  -1.19566  -1.18585  -1.16675
 Alpha  occ. eigenvalues --   -1.14476  -1.14145  -1.13888  -1.13685  -1.13283
 Alpha  occ. eigenvalues --   -1.12944  -1.12023  -1.11901  -1.11599  -1.11163
 Alpha  occ. eigenvalues --   -1.10853  -1.10215  -1.09805  -1.06515  -1.05095
 Alpha  occ. eigenvalues --   -1.02708  -1.02332  -1.02156  -1.01741  -1.01226
 Alpha  occ. eigenvalues --   -1.01058  -1.00530  -1.00203  -0.99700  -0.99568
 Alpha  occ. eigenvalues --   -0.98626  -0.90153  -0.87723  -0.85590  -0.85092
 Alpha  occ. eigenvalues --   -0.84566  -0.84015  -0.83019  -0.82149  -0.81087
 Alpha  occ. eigenvalues --   -0.80191  -0.79092  -0.77881  -0.77344  -0.76346
 Alpha  occ. eigenvalues --   -0.74428  -0.74365  -0.72998  -0.71358  -0.70850
 Alpha  occ. eigenvalues --   -0.69087  -0.68878  -0.68752  -0.68470  -0.67342
 Alpha  occ. eigenvalues --   -0.67128  -0.66953  -0.66829  -0.66361  -0.66208
 Alpha  occ. eigenvalues --   -0.65456  -0.65240  -0.64767  -0.63967  -0.63079
 Alpha  occ. eigenvalues --   -0.62330  -0.62137  -0.61525  -0.61150  -0.60845
 Alpha  occ. eigenvalues --   -0.60753  -0.60481  -0.60059  -0.59673  -0.59282
 Alpha  occ. eigenvalues --   -0.58877  -0.58401  -0.57989  -0.57739  -0.57618
 Alpha  occ. eigenvalues --   -0.57488  -0.56987  -0.56829  -0.56396  -0.56094
 Alpha  occ. eigenvalues --   -0.55961  -0.55349  -0.54949  -0.54789  -0.54164
 Alpha  occ. eigenvalues --   -0.54049  -0.53905  -0.53775  -0.53574  -0.53260
 Alpha  occ. eigenvalues --   -0.52664  -0.52427  -0.52056  -0.51756  -0.51660
 Alpha  occ. eigenvalues --   -0.51540  -0.51475  -0.51008  -0.50631  -0.50468
 Alpha  occ. eigenvalues --   -0.49985  -0.49645  -0.49535  -0.49370  -0.49178
 Alpha  occ. eigenvalues --   -0.48897  -0.48787  -0.48539  -0.48368  -0.48311
 Alpha  occ. eigenvalues --   -0.48127  -0.47772  -0.47585  -0.47250  -0.47036
 Alpha  occ. eigenvalues --   -0.46753  -0.46595  -0.46120  -0.46086  -0.45725
 Alpha  occ. eigenvalues --   -0.45346  -0.45156  -0.44772  -0.44693  -0.44408
 Alpha  occ. eigenvalues --   -0.44075  -0.43138  -0.42119  -0.40611  -0.40214
 Alpha  occ. eigenvalues --   -0.40018  -0.39351  -0.38338  -0.37820  -0.37526
 Alpha  occ. eigenvalues --   -0.37140  -0.36718  -0.36654  -0.36175  -0.35863
 Alpha  occ. eigenvalues --   -0.35769  -0.35616  -0.35374  -0.34825  -0.34761
 Alpha  occ. eigenvalues --   -0.34704  -0.34043  -0.33905  -0.33097  -0.32839
 Alpha  occ. eigenvalues --   -0.32423  -0.31968  -0.31782  -0.31680  -0.31084
 Alpha virt. eigenvalues --   -0.12135  -0.11866  -0.11076  -0.09978  -0.08703
 Alpha virt. eigenvalues --   -0.08494  -0.07980  -0.07876  -0.07675  -0.06623
 Alpha virt. eigenvalues --   -0.06374  -0.06213  -0.05713  -0.05475  -0.05030
 Alpha virt. eigenvalues --   -0.04774  -0.04240  -0.04008  -0.01266  -0.00926
 Alpha virt. eigenvalues --   -0.00173   0.00566   0.01518   0.01698   0.02359
 Alpha virt. eigenvalues --    0.02609   0.02731   0.03090   0.03172   0.03977
 Alpha virt. eigenvalues --    0.04254   0.04413   0.05417   0.05567   0.05933
 Alpha virt. eigenvalues --    0.06003   0.06327   0.06562   0.06772   0.07017
 Alpha virt. eigenvalues --    0.07219   0.07408   0.07598   0.07722   0.08148
 Alpha virt. eigenvalues --    0.08321   0.08531   0.08716   0.09163   0.09207
 Alpha virt. eigenvalues --    0.09459   0.09784   0.09854   0.10192   0.10737
 Alpha virt. eigenvalues --    0.10896   0.11044   0.11411   0.11606   0.12145
 Alpha virt. eigenvalues --    0.12208   0.12360   0.12568   0.13036   0.13149
 Alpha virt. eigenvalues --    0.13322   0.13540   0.13827   0.14024   0.14330
 Alpha virt. eigenvalues --    0.14525   0.14790   0.14884   0.15352   0.15490
 Alpha virt. eigenvalues --    0.15903   0.16318   0.16956   0.17083   0.17136
 Alpha virt. eigenvalues --    0.17779   0.18267   0.18372   0.18759   0.18889
 Alpha virt. eigenvalues --    0.20340   0.20534   0.21113   0.21864   0.22710
 Alpha virt. eigenvalues --    0.23246   0.23834   0.24695   0.25303   0.25433
 Alpha virt. eigenvalues --    0.26481   0.26684   0.26767   0.27636   0.28031
 Alpha virt. eigenvalues --    0.28970   0.29785   0.30181   0.30362   0.31107
 Alpha virt. eigenvalues --    0.31162   0.31577   0.32404   0.32505   0.33448
 Alpha virt. eigenvalues --    0.33827   0.34668   0.35016   0.35697   0.35903
 Alpha virt. eigenvalues --    0.36476   0.36895   0.38160   0.39375   0.40031
 Alpha virt. eigenvalues --    0.40940   0.41315   0.41715   0.42094   0.42310
 Alpha virt. eigenvalues --    0.42585   0.42936   0.43451   0.43818   0.44185
 Alpha virt. eigenvalues --    0.44424   0.44611   0.44940   0.44984   0.45390
 Alpha virt. eigenvalues --    0.45544   0.46051   0.46397   0.46479   0.46731
 Alpha virt. eigenvalues --    0.47214   0.47516   0.47939   0.48239   0.48674
 Alpha virt. eigenvalues --    0.48901   0.49082   0.49500   0.49664   0.49862
 Alpha virt. eigenvalues --    0.49981   0.50197   0.50468   0.51022   0.51227
 Alpha virt. eigenvalues --    0.51408   0.51751   0.52167   0.52287   0.52799
 Alpha virt. eigenvalues --    0.52982   0.53374   0.53905   0.54275   0.54469
 Alpha virt. eigenvalues --    0.55016   0.55058   0.55300   0.55841   0.56225
 Alpha virt. eigenvalues --    0.56742   0.57059   0.57223   0.57403   0.57877
 Alpha virt. eigenvalues --    0.58124   0.58232   0.58535   0.58808   0.59318
 Alpha virt. eigenvalues --    0.59502   0.59804   0.59905   0.60129   0.60558
 Alpha virt. eigenvalues --    0.60664   0.61049   0.61600   0.61870   0.62045
 Alpha virt. eigenvalues --    0.62243   0.62412   0.62594   0.62947   0.63583
 Alpha virt. eigenvalues --    0.63802   0.63908   0.64380   0.64531   0.65043
 Alpha virt. eigenvalues --    0.65281   0.65656   0.66276   0.66401   0.66811
 Alpha virt. eigenvalues --    0.67566   0.67983   0.68907   0.69186   0.69737
 Alpha virt. eigenvalues --    0.69805   0.70879   0.71138   0.71453   0.72272
 Alpha virt. eigenvalues --    0.72335   0.72629   0.72940   0.73182   0.73308
 Alpha virt. eigenvalues --    0.73686   0.73843   0.74069   0.74258   0.74477
 Alpha virt. eigenvalues --    0.74730   0.75375   0.75700   0.76076   0.76277
 Alpha virt. eigenvalues --    0.76581   0.77006   0.77243   0.77489   0.78001
 Alpha virt. eigenvalues --    0.78309   0.78848   0.79072   0.79444   0.79735
 Alpha virt. eigenvalues --    0.80173   0.80547   0.80923   0.81055   0.81307
 Alpha virt. eigenvalues --    0.81536   0.81743   0.82035   0.82290   0.82419
 Alpha virt. eigenvalues --    0.83131   0.83539   0.83871   0.83893   0.84250
 Alpha virt. eigenvalues --    0.84548   0.84923   0.85586   0.85817   0.86137
 Alpha virt. eigenvalues --    0.86462   0.86928   0.87119   0.87491   0.88314
 Alpha virt. eigenvalues --    0.88657   0.88751   0.89049   0.89691   0.89933
 Alpha virt. eigenvalues --    0.90158   0.91228   0.91456   0.91838   0.92121
 Alpha virt. eigenvalues --    0.92142   0.92594   0.92853   0.93821   0.94040
 Alpha virt. eigenvalues --    0.94450   0.95188   0.95578   0.95796   0.96199
 Alpha virt. eigenvalues --    0.96492   0.96803   0.97510   0.97848   0.98364
 Alpha virt. eigenvalues --    0.99055   0.99150   1.00111   1.00190   1.00480
 Alpha virt. eigenvalues --    1.01354   1.01764   1.02312   1.02616   1.02861
 Alpha virt. eigenvalues --    1.03739   1.03966   1.04599   1.04926   1.05242
 Alpha virt. eigenvalues --    1.05704   1.05905   1.06786   1.07356   1.07693
 Alpha virt. eigenvalues --    1.08109   1.08950   1.09548   1.10282   1.10599
 Alpha virt. eigenvalues --    1.11316   1.11548   1.11896   1.12886   1.13386
 Alpha virt. eigenvalues --    1.14048   1.14317   1.14714   1.14956   1.15593
 Alpha virt. eigenvalues --    1.16352   1.16994   1.17302   1.17592   1.17838
 Alpha virt. eigenvalues --    1.18734   1.19121   1.19627   1.20354   1.20434
 Alpha virt. eigenvalues --    1.20864   1.21570   1.21951   1.22432   1.22905
 Alpha virt. eigenvalues --    1.23099   1.23994   1.24113   1.24546   1.24640
 Alpha virt. eigenvalues --    1.25708   1.25889   1.26202   1.26595   1.27150
 Alpha virt. eigenvalues --    1.27381   1.27936   1.29417   1.29601   1.30236
 Alpha virt. eigenvalues --    1.30509   1.30882   1.31230   1.31919   1.32464
 Alpha virt. eigenvalues --    1.32907   1.33272   1.34165   1.34821   1.34914
 Alpha virt. eigenvalues --    1.35288   1.36623   1.36860   1.37156   1.37395
 Alpha virt. eigenvalues --    1.37721   1.38585   1.39291   1.40028   1.40371
 Alpha virt. eigenvalues --    1.40504   1.40615   1.41704   1.42172   1.42321
 Alpha virt. eigenvalues --    1.43076   1.43375   1.43858   1.43961   1.45517
 Alpha virt. eigenvalues --    1.45752   1.46181   1.46833   1.47670   1.47845
 Alpha virt. eigenvalues --    1.48116   1.48448   1.50018   1.50301   1.50575
 Alpha virt. eigenvalues --    1.51154   1.51207   1.52992   1.53940   1.54747
 Alpha virt. eigenvalues --    1.55541   1.55818   1.56551   1.57060   1.58029
 Alpha virt. eigenvalues --    1.58303   1.58842   1.59401   1.59675   1.61046
 Alpha virt. eigenvalues --    1.61339   1.61503   1.62083   1.62619   1.63583
 Alpha virt. eigenvalues --    1.63718   1.64249   1.64799   1.65215   1.66127
 Alpha virt. eigenvalues --    1.66609   1.66690   1.66978   1.67603   1.67954
 Alpha virt. eigenvalues --    1.68260   1.68973   1.69282   1.69546   1.69633
 Alpha virt. eigenvalues --    1.70106   1.70461   1.70835   1.71101   1.71163
 Alpha virt. eigenvalues --    1.71513   1.71888   1.71945   1.72904   1.73081
 Alpha virt. eigenvalues --    1.73308   1.73521   1.73976   1.74330   1.74447
 Alpha virt. eigenvalues --    1.74784   1.75009   1.75463   1.75810   1.75923
 Alpha virt. eigenvalues --    1.76386   1.76746   1.77435   1.77483   1.77937
 Alpha virt. eigenvalues --    1.78099   1.78210   1.78705   1.78933   1.79510
 Alpha virt. eigenvalues --    1.80127   1.80626   1.80866   1.81097   1.81501
 Alpha virt. eigenvalues --    1.81616   1.81886   1.81961   1.82672   1.82806
 Alpha virt. eigenvalues --    1.83305   1.83947   1.84276   1.84456   1.85139
 Alpha virt. eigenvalues --    1.85570   1.85850   1.86384   1.86460   1.87016
 Alpha virt. eigenvalues --    1.87179   1.87560   1.87722   1.87806   1.88290
 Alpha virt. eigenvalues --    1.88580   1.89026   1.89132   1.89448   1.90354
 Alpha virt. eigenvalues --    1.90644   1.90744   1.90893   1.91311   1.91711
 Alpha virt. eigenvalues --    1.92203   1.92359   1.92850   1.93157   1.93530
 Alpha virt. eigenvalues --    1.94330   1.94446   1.94914   1.94975   1.95524
 Alpha virt. eigenvalues --    1.95708   1.96374   1.96862   1.97437   1.97529
 Alpha virt. eigenvalues --    1.98231   1.98646   1.98819   1.99280   2.00254
 Alpha virt. eigenvalues --    2.00649   2.01205   2.01752   2.02349   2.02982
 Alpha virt. eigenvalues --    2.03299   2.03796   2.04754   2.04900   2.05451
 Alpha virt. eigenvalues --    2.05706   2.07293   2.07462   2.08675   2.09470
 Alpha virt. eigenvalues --    2.09716   2.09924   2.10268   2.11533   2.12260
 Alpha virt. eigenvalues --    2.12901   2.14297   2.14654   2.15650   2.16382
 Alpha virt. eigenvalues --    2.16830   2.17064   2.18129   2.18257   2.19419
 Alpha virt. eigenvalues --    2.20320   2.21716   2.22232   2.22815   2.23059
 Alpha virt. eigenvalues --    2.23546   2.24037   2.24721   2.24956   2.25018
 Alpha virt. eigenvalues --    2.25242   2.25610   2.26150   2.26820   2.27173
 Alpha virt. eigenvalues --    2.28062   2.28331   2.29630   2.30553   2.30988
 Alpha virt. eigenvalues --    2.31501   2.31602   2.32475   2.32918   2.33565
 Alpha virt. eigenvalues --    2.33922   2.34291   2.34784   2.35070   2.35497
 Alpha virt. eigenvalues --    2.36104   2.36502   2.37035   2.37275   2.37589
 Alpha virt. eigenvalues --    2.38327   2.38487   2.39209   2.39391   2.40384
 Alpha virt. eigenvalues --    2.40493   2.41340   2.41591   2.41935   2.43401
 Alpha virt. eigenvalues --    2.44064   2.44915   2.45314   2.46642   2.46858
 Alpha virt. eigenvalues --    2.47279   2.48549   2.48935   2.50073   2.50633
 Alpha virt. eigenvalues --    2.51274   2.52139   2.53064   2.54213   2.54528
 Alpha virt. eigenvalues --    2.55264   2.55522   2.55816   2.56552   2.57281
 Alpha virt. eigenvalues --    2.58213   2.58553   2.59572   2.59874   2.60472
 Alpha virt. eigenvalues --    2.61549   2.62156   2.62469   2.62966   2.63210
 Alpha virt. eigenvalues --    2.63817   2.64401   2.64573   2.65551   2.65767
 Alpha virt. eigenvalues --    2.66544   2.66788   2.67232   2.68803   2.70454
 Alpha virt. eigenvalues --    2.71070   2.74202   2.75455   2.76962   2.77885
 Alpha virt. eigenvalues --    2.78294   2.80295   2.81046   2.82164   2.82515
 Alpha virt. eigenvalues --    2.83038   2.83736   2.84129   2.85883   2.86362
 Alpha virt. eigenvalues --    2.87793   2.89522   2.91628   2.92193   2.92519
 Alpha virt. eigenvalues --    2.92976   2.93170   2.93784   2.94346   2.95685
 Alpha virt. eigenvalues --    2.96146   2.96450   2.98296   2.99430   2.99896
 Alpha virt. eigenvalues --    3.01975   3.02735   3.03575   3.04126   3.04391
 Alpha virt. eigenvalues --    3.04983   3.05363   3.05946   3.06207   3.06903
 Alpha virt. eigenvalues --    3.08612   3.09185   3.09475   3.62698   3.83199
 Alpha virt. eigenvalues --    3.84810   3.86203   3.88320   3.89385   3.90268
 Alpha virt. eigenvalues --    3.91358   3.92762   3.94122   3.95778   3.96209
 Alpha virt. eigenvalues --    3.97291   3.98418   3.98590   4.00554   4.01370
 Alpha virt. eigenvalues --    4.02032   4.02770   4.04015   4.06493   4.07645
 Alpha virt. eigenvalues --    4.09078   4.10582   4.12135   4.14173   4.14777
 Alpha virt. eigenvalues --    4.16265   4.17232   4.17965   4.18656   4.20663
 Alpha virt. eigenvalues --    4.21211   4.23965   4.24902   4.26698   4.26941
 Alpha virt. eigenvalues --    4.28593   4.30189   4.30359   4.31153   4.36595
 Alpha virt. eigenvalues --    4.37694   4.39654   4.42533   4.44273   4.44993
 Alpha virt. eigenvalues --    4.45671   4.47229   4.48825   4.49554   4.50278
 Alpha virt. eigenvalues --    4.51065   4.51638   4.54219   4.57193   4.58310
          Condensed to atoms (all electrons):
 Mulliken charges:
               1
     1  N   -0.751757
     2  H    0.420574
     3  H    0.417404
     4  H    0.435824
     5  C   -0.310764
     6  H    0.278722
     7  H    0.229776
     8  C    0.631223
     9  O   -0.523558
    10  N   -0.620978
    11  H    0.405703
    12  C   -0.237185
    13  H    0.230739
    14  H    0.208690
    15  C    0.602334
    16  O   -0.523536
    17  N   -0.620465
    18  H    0.394289
    19  C   -0.245330
    20  H    0.208325
    21  H    0.186094
    22  C    0.605284
    23  O   -0.514342
    24  N   -0.619805
    25  H    0.377269
    26  C   -0.232209
    27  H    0.201376
    28  H    0.221678
    29  C    0.607677
    30  O   -0.520436
    31  N   -0.591067
    32  H    0.359776
    33  C   -0.200646
    34  H    0.200555
    35  H    0.193233
    36  C    0.649276
    37  O   -0.584851
    38  N   -0.589712
    39  H    0.357285
    40  C   -0.248285
    41  H    0.185883
    42  H    0.204070
    43  C    0.595690
    44  O   -0.482734
    45  N   -0.643030
    46  H    0.389235
    47  C   -0.216299
    48  H    0.148666
    49  H    0.235238
    50  C    0.591121
    51  O   -0.577570
    52  N   -0.593086
    53  H    0.409811
    54  C   -0.258481
    55  H    0.203752
    56  H    0.210482
    57  C    0.637694
    58  O   -0.585180
    59  N   -0.573263
    60  H    0.392652
    61  C   -0.271699
    62  H    0.227776
    63  H    0.190589
    64  C    0.582780
    65  O   -0.513488
    66  N   -0.635110
    67  H    0.373490
    68  C   -0.258616
    69  H    0.231886
    70  H    0.175760
    71  C    0.643516
    72  O   -0.579587
    73  N   -0.548155
    74  H    0.352845
    75  C   -0.237553
    76  H    0.195327
    77  H    0.191730
    78  C    0.611076
    79  O   -0.524997
    80  N   -0.576067
    81  H    0.358135
    82  C   -0.233052
    83  H    0.192240
    84  H    0.208506
    85  C    0.599655
    86  O   -0.539522
    87  N   -0.567862
    88  H    0.388787
    89  C   -0.235511
    90  H    0.179740
    91  H    0.204336
    92  C    0.619938
    93  O   -0.559109
    94  N   -0.577756
    95  H    0.395995
    96  C   -0.216725
    97  H    0.190225
    98  H    0.198704
    99  C    0.609149
   100  O   -0.506511
   101  O   -0.570780
   102  H    0.467089
 Sum of Mulliken charges =   1.00000
 Mulliken charges with hydrogens summed into heavy atoms:
               1
     1  N    0.522045
     5  C    0.197735
     8  C    0.631223
     9  O   -0.523558
    10  N   -0.215275
    12  C    0.202244
    15  C    0.602334
    16  O   -0.523536
    17  N   -0.226175
    19  C    0.149089
    22  C    0.605284
    23  O   -0.514342
    24  N   -0.242536
    26  C    0.190845
    29  C    0.607677
    30  O   -0.520436
    31  N   -0.231292
    33  C    0.193141
    36  C    0.649276
    37  O   -0.584851
    38  N   -0.232427
    40  C    0.141668
    43  C    0.595690
    44  O   -0.482734
    45  N   -0.253796
    47  C    0.167604
    50  C    0.591121
    51  O   -0.577570
    52  N   -0.183276
    54  C    0.155753
    57  C    0.637694
    58  O   -0.585180
    59  N   -0.180610
    61  C    0.146666
    64  C    0.582780
    65  O   -0.513488
    66  N   -0.261620
    68  C    0.149030
    71  C    0.643516
    72  O   -0.579587
    73  N   -0.195310
    75  C    0.149504
    78  C    0.611076
    79  O   -0.524997
    80  N   -0.217932
    82  C    0.167695
    85  C    0.599655
    86  O   -0.539522
    87  N   -0.179075
    89  C    0.148565
    92  C    0.619938
    93  O   -0.559109
    94  N   -0.181761
    96  C    0.172203
    99  C    0.609149
   100  O   -0.506511
   101  O   -0.103691
 Electronic spatial extent (au):  <R**2>=          62978.2530
 Charge=              1.0000 electrons
 Dipole moment (field-independent basis, Debye):
    X=             -8.0618    Y=             16.4725    Z=            -16.2207  Tot=             24.4836
 Quadrupole moment (field-independent basis, Debye-Ang):
   XX=           -216.5576   YY=           -234.2869   ZZ=           -274.4760
   XY=             -9.8571   XZ=             22.7777   YZ=            -55.4772
 Traceless Quadrupole moment (field-independent basis, Debye-Ang):
   XX=             25.2159   YY=              7.4866   ZZ=            -32.7025
   XY=             -9.8571   XZ=             22.7777   YZ=            -55.4772
 Octapole moment (field-independent basis, Debye-Ang**2):
  XXX=          -2297.8537  YYY=          -2094.0518  ZZZ=           1891.3289  XYY=           -684.6610
  XXY=           -594.4544  XXZ=            139.0998  XZZ=           -733.0338  YZZ=           -747.4024
  YYZ=            373.2933  XYZ=            -12.3951
 Hexadecapole moment (field-independent basis, Debye-Ang**3):
 XXXX=         -31805.3298 YYYY=         -19777.9987 ZZZZ=         -20509.7260 XXXY=          -3048.5976
 XXXZ=           8297.6372 YYYX=          -2327.1235 YYYZ=           2121.4721 ZZZX=           8529.3246
 ZZZY=           3787.9162 XXYY=          -8848.5244 XXZZ=          -7032.0920 YYZZ=          -6689.5216
 XXYZ=           -669.4497 YYXZ=           2627.2808 ZZXY=           -657.7412
 N-N= 9.689345580368D+03 E-N=-2.632522009731D+04  KE= 2.962154458323D+03
 Unable to Open any file for archive entry.
 1\1\GINC-AMR-160\SP\RB3LYP\6-31G(d)\C28H45N14O15(1+)\KENGMITH\11-Aug-2
 022\0\\# B3LYP/6-31G* empiricaldispersion=gd3 guess=read geom=check no
 symm integral(ultrafinegrid)\\Candidate Structure: Conf:702 Charge cal
 c in gas phase\\1,1\N,0,-5.1533396847,2.5101455918,-2.909137885\H,0,-5
 .0211996499,1.5132094477,-3.0968142018\H,0,-5.7260824135,2.9101665865,
 -3.656598824\H,0,-5.6430404523,2.6491475367,-1.9659255051\C,0,-3.86318
 32319,3.2469943065,-2.6712647149\H,0,-3.0187607441,2.5484985935,-2.629
 3156765\H,0,-3.694810317,3.9886378565,-3.453265677\C,0,-4.0457471403,3
 .857042998,-1.2671664128\O,0,-5.0772271443,3.559116859,-0.6468993326\N
 ,0,-3.0559700955,4.6234359184,-0.819792147\H,0,-2.2179333555,4.7783158
 08,-1.3741305466\C,0,-2.9855662895,5.0921209182,0.5559167715\H,0,-3.99
 69295759,5.2275346945,0.9448135602\H,0,-2.4774316436,6.0576923256,0.56
 86884666\C,0,-2.2490747215,4.1639835446,1.5276259866\O,0,-2.1230363808
 ,4.5307313373,2.6962222576\N,0,-1.7977418528,2.9740623403,1.0633449495
 \H,0,-1.7032155425,2.7851626652,0.0680423245\C,0,-1.1939372381,2.00945
 51028,1.9790775195\H,0,-1.7219551904,2.0735892791,2.9352932791\H,0,-1.
 314174616,1.0072430538,1.56649775\C,0,0.3080263851,2.2546523868,2.1796
 256983\O,0,1.1492794315,1.4368392805,1.8231217431\N,0,0.6086765936,3.4
 609556716,2.7383604913\H,0,-0.1616379625,4.0380112318,3.0685702205\C,0
 ,1.9706023084,3.9505632057,2.787406341\H,0,2.1557453376,4.4688317318,3
 .7338359814\H,0,2.6501183361,3.0978203179,2.7342096546\C,0,2.357766438
 4,4.9071159384,1.6542945757\O,0,3.5294775201,5.2282680674,1.4823440508
 \N,0,1.3309272075,5.4088702657,0.907674534\H,0,0.456705175,4.898821124
 9,0.9024386447\C,0,1.634087912,6.1901833716,-0.2657778\H,0,1.514165683
 6,7.2661296829,-0.0648794529\H,0,2.6869129546,6.0351866696,-0.52522282
 68\C,0,0.7156835333,5.8536379565,-1.4272371546\O,0,-0.4338016717,5.422
 7218728,-1.2583052485\N,0,1.2073685141,6.1316058307,-2.656201625\H,0,2
 .1573217487,6.4692623389,-2.7324614027\C,0,0.3904242173,6.0918689073,-
 3.8695830729\H,0,-0.6076785072,6.4685349427,-3.6233040632\H,0,0.844313
 8362,6.7415495342,-4.6180571005\C,0,0.3022228331,4.6782200734,-4.47722
 63781\O,0,0.9084458316,4.3738982249,-5.492010023\N,0,-0.5169457934,3.8
 339965137,-3.7755256001\H,0,-0.7123807945,4.1198325902,-2.8199320988\C
 ,0,-0.5104559535,2.3891452456,-4.014171892\H,0,-1.4493444674,2.0706648
 864,-4.4862480078\H,0,0.3133061445,2.142115917,-4.6871400005\C,0,-0.38
 41050021,1.7498285031,-2.6312840465\O,0,-1.2620442142,2.000212068,-1.7
 768588805\N,0,0.7080365389,1.0116664963,-2.4203679355\H,0,1.3710757506
 ,0.9156225941,-3.1964901033\C,0,1.2458937551,0.7874053602,-1.084771978
 1\H,0,1.781593355,-0.162274802,-1.0629381736\H,0,0.4405052761,0.770298
 2893,-0.354987772\C,0,2.1698422526,1.9795119005,-0.7870621291\O,0,1.74
 91867198,3.1406783821,-0.9149173088\N,0,3.4473788866,1.6727261725,-0.4
 945375176\H,0,3.7563206632,0.7204770363,-0.7011820045\C,0,4.4948990512
 ,2.6900325135,-0.5695515881\H,0,4.1923081056,3.5886055271,-0.028847913
 9\H,0,5.4055196691,2.2892615231,-0.1230086268\C,0,4.744211929,2.931565
 2613,-2.0586762811\O,0,5.515552321,2.2368722486,-2.7128626815\N,0,3.98
 28383821,3.9265890052,-2.6297848952\H,0,3.151001302,4.1529979497,-2.08
 69751065\C,0,3.7952851377,3.9147072581,-4.0831691877\H,0,3.1702988486,
 3.0784392416,-4.4043691626\H,0,3.2835308366,4.8343584383,-4.38184303\C
 ,0,5.1042839219,3.8243099204,-4.8552798249\O,0,5.1821823593,3.14835349
 24,-5.8933845922\N,0,6.1379061296,4.5699047971,-4.4102664946\H,0,6.068
 904918,4.9239622482,-3.4644767309\C,0,7.4792160561,4.3309978745,-4.935
 385116\H,0,8.139020651,5.1164828628,-4.5637366109\H,0,7.4386289535,4.3
 842097181,-6.0251650032\C,0,8.0453604626,2.9854268443,-4.4436039632\O,
 0,8.5515169284,2.8747869259,-3.330293386\N,0,7.955167638,1.9581865283,
 -5.3299838867\H,0,7.3175338397,2.0546500331,-6.110201495\C,0,8.5823792
 593,0.6683223024,-5.0813379718\H,0,8.8570769633,0.2154138677,-6.035181
 6095\H,0,9.4880512841,0.8531532399,-4.4952618226\C,0,7.7128736708,-0.3
 585070998,-4.3433565604\O,0,7.4567825169,-1.4551972957,-4.8527450485\N
 ,0,7.2901775268,-0.0032992614,-3.1083565776\H,0,7.3982265011,0.9604577
 193,-2.8079997779\C,0,6.5036146986,-0.9049505788,-2.2755807474\H,0,6.5
 505762951,-0.559892075,-1.2426714391\H,0,6.9417231163,-1.9068780261,-2
 .3400832782\C,0,5.0250479397,-0.9703345041,-2.6821196982\O,0,4.1066142
 514,-0.5964432708,-1.9428534141\N,0,4.7978808032,-1.4644448743,-3.9222
 153239\H,0,5.6221837668,-1.6567495918,-4.4971967408\C,0,3.5246891748,-
 1.2190981441,-4.5733017005\H,0,2.7024284133,-1.4540333257,-3.897214766
 9\H,0,3.4556040496,-1.8493815882,-5.4644064851\C,0,3.4241235482,0.2494
 202547,-4.986300036\O,0,2.5029596991,0.9901007011,-4.6521980762\O,0,4.
 4557854942,0.6212837315,-5.71580394\H,0,4.4953425128,1.6144861624,-5.8
 547316189\\Version=ES64L-G16RevC.01\HF=-2989.1821942\RMSD=7.580e-10\Di
 pole=-7.3301209,1.3303084,-2.4513753\Quadrupole=18.7473986,5.5661113,-
 24.31351,-7.3285393,16.9346814,-41.2459096\PG=C01 [X(C28H45N14O15)]\\@
 The archive entry for this job was punched.


 THE WORLD IS MADE UP OF THE WILLS, THE WON'TS, AND THE CANT'S:
 THE WILLS DO EVERYTHING,
 THE WON'TS DO NOTHING,
 THE CAN'TS CAN'T DO ANYTHING.

                               -- FROM WALT DISNEY'S "BLACK HOLE"
 Job cpu time:       0 days  0 hours  8 minutes 21.6 seconds.
 Elapsed time:       0 days  0 hours  2 minutes  6.0 seconds.
 File lengths (MBytes):  RWF=    704 Int=      0 D2E=      0 Chk=     96 Scr=     32
 Normal termination of Gaussian 16 at Thu Aug 11 11:22:33 2022.
