 Entering Gaussian System, Link 0=/opt/software/Gaussian/g16-AVX2-C.01/g16/g16
 Input=charge-conf-306.com
 Output=charge-conf-306.log
 Initial command:
 /opt/software/Gaussian/g16-AVX2-C.01/g16/l1.exe "/mnt/gs18/scratch/users/kengmith/Gau-91557.inp" -scrdir="/mnt/gs18/scratch/users/kengmith/"
 Entering Link 1 = /opt/software/Gaussian/g16-AVX2-C.01/g16/l1.exe PID=     91567.
  
 Copyright (c) 1988-2019, Gaussian, Inc.  All Rights Reserved.
  
 This is part of the Gaussian(R) 16 program.  It is based on
 the Gaussian(R) 09 system (copyright 2009, Gaussian, Inc.),
 the Gaussian(R) 03 system (copyright 2003, Gaussian, Inc.),
 the Gaussian(R) 98 system (copyright 1998, Gaussian, Inc.),
 the Gaussian(R) 94 system (copyright 1995, Gaussian, Inc.),
 the Gaussian 92(TM) system (copyright 1992, Gaussian, Inc.),
 the Gaussian 90(TM) system (copyright 1990, Gaussian, Inc.),
 the Gaussian 88(TM) system (copyright 1988, Gaussian, Inc.),
 the Gaussian 86(TM) system (copyright 1986, Carnegie Mellon
 University), and the Gaussian 82(TM) system (copyright 1983,
 Carnegie Mellon University). Gaussian is a federally registered
 trademark of Gaussian, Inc.
  
 This software contains proprietary and confidential information,
 including trade secrets, belonging to Gaussian, Inc.
  
 This software is provided under written license and may be
 used, copied, transmitted, or stored only in accord with that
 written license.
  
 The following legend is applicable only to US Government
 contracts under FAR:
  
                    RESTRICTED RIGHTS LEGEND
  
 Use, reproduction and disclosure by the US Government is
 subject to restrictions as set forth in subparagraphs (a)
 and (c) of the Commercial Computer Software - Restricted
 Rights clause in FAR 52.227-19.
  
 Gaussian, Inc.
 340 Quinnipiac St., Bldg. 40, Wallingford CT 06492
  
  
 ---------------------------------------------------------------
 Warning -- This program may not be used in any manner that
 competes with the business of Gaussian, Inc. or will provide
 assistance to any competitor of Gaussian, Inc.  The licensee
 of this program is prohibited from giving any competitor of
 Gaussian, Inc. access to this program.  By using this program,
 the user acknowledges that Gaussian, Inc. is engaged in the
 business of creating and licensing software in the field of
 computational chemistry and represents and warrants to the
 licensee that it is not a competitor of Gaussian, Inc. and that
 it will not use this program in any manner prohibited above.
 ---------------------------------------------------------------
  

 Cite this work as:
 Gaussian 16, Revision C.01,
 M. J. Frisch, G. W. Trucks, H. B. Schlegel, G. E. Scuseria, 
 M. A. Robb, J. R. Cheeseman, G. Scalmani, V. Barone, 
 G. A. Petersson, H. Nakatsuji, X. Li, M. Caricato, A. V. Marenich, 
 J. Bloino, B. G. Janesko, R. Gomperts, B. Mennucci, H. P. Hratchian, 
 J. V. Ortiz, A. F. Izmaylov, J. L. Sonnenberg, D. Williams-Young, 
 F. Ding, F. Lipparini, F. Egidi, J. Goings, B. Peng, A. Petrone, 
 T. Henderson, D. Ranasinghe, V. G. Zakrzewski, J. Gao, N. Rega, 
 G. Zheng, W. Liang, M. Hada, M. Ehara, K. Toyota, R. Fukuda, 
 J. Hasegawa, M. Ishida, T. Nakajima, Y. Honda, O. Kitao, H. Nakai, 
 T. Vreven, K. Throssell, J. A. Montgomery, Jr., J. E. Peralta, 
 F. Ogliaro, M. J. Bearpark, J. J. Heyd, E. N. Brothers, K. N. Kudin, 
 V. N. Staroverov, T. A. Keith, R. Kobayashi, J. Normand, 
 K. Raghavachari, A. P. Rendell, J. C. Burant, S. S. Iyengar, 
 J. Tomasi, M. Cossi, J. M. Millam, M. Klene, C. Adamo, R. Cammi, 
 J. W. Ochterski, R. L. Martin, K. Morokuma, O. Farkas, 
 J. B. Foresman, and D. J. Fox, Gaussian, Inc., Wallingford CT, 2019.
 
 ******************************************
 Gaussian 16:  ES64L-G16RevC.01  3-Jul-2019
                 2-Jun-2022 
 ******************************************
 %mem=8gb
 %nproc=4
 Will use up to    4 processors via shared memory.
 %chk=conf-306.chk
 ----------------------------------------------------------------------
 # B3LYP/6-31G* empiricaldispersion=gd3 guess=read geom=check nosymm in
 tegral(ultrafinegrid)
 ----------------------------------------------------------------------
 1/29=2,38=1,172=1/1;
 2/12=2,15=1,40=1/2;
 3/5=1,6=6,7=1,11=2,14=-4,25=1,30=1,74=-5,75=-5,116=-2,124=31/1,2,3;
 4/5=1/1;
 5/5=2,38=6/2;
 6/7=2,8=2,9=2,10=2,28=1/1;
 99/5=1,9=1/99;
 ------------------------------------------------------
 Candidate Structure: Conf:306 Charge calc in gas phase
 ------------------------------------------------------
 Structure from the checkpoint file:  "conf-306.chk"
 Charge =  1 Multiplicity = 1
 Redundant internal coordinates found in file.  (old form).
 N,0,0.0863150372,-2.6089474341,3.9676078241
 H,0,0.6040474551,-3.2254735806,3.3430196633
 H,0,0.7711098002,-2.0560125813,4.4781184964
 C,0,-0.8018541179,-1.7614180917,3.1945277591
 H,0,-1.2312342747,-1.0093190753,3.870679429
 C,0,-0.0955835204,-1.0353175169,2.0418542856
 C,0,-1.9509573914,-2.5924987085,2.5808039326
 H,0,-1.5260578356,-3.3340537022,1.8930241131
 H,0,-2.5962520531,-1.9515217713,1.9690305349
 O,0,0.9434410332,-1.4544848112,1.5197346752
 C,0,-2.7926018096,-3.3005385912,3.6407284941
 H,0,-3.2350843956,-2.5842338313,4.3455893315
 H,0,-2.1766699921,-3.9712215482,4.2474718627
 C,0,-3.9167894606,-4.0900488813,3.0034032215
 O,0,-4.1586098713,-4.1234889969,1.8158091586
 O,0,-4.6334067355,-4.758794477,3.9307165924
 N,0,-0.6739803125,0.096715985,1.5544548095
 H,0,-1.5508402598,0.4284412194,1.9337604293
 C,0,-0.18425719,0.6918984055,0.3200415996
 H,0,-0.5496718493,1.7263316854,0.2978864689
 C,0,1.3187332768,0.8484519638,0.4064068346
 C,0,-0.6814849876,-0.0510905349,-0.9486237612
 H,0,-0.3135279118,-1.0814070733,-0.9095769914
 H,0,-1.7727843658,-0.1015735829,-0.858503145
 O,0,1.8284984098,1.4569195088,1.4542471314
 C,0,-0.2743406061,0.6310194071,-2.2401763693
 C,0,-0.645174097,1.961410217,-2.4987500102
 H,0,-1.3141581207,2.4823396299,-1.8172223452
 C,0,0.5453009141,-0.0165492913,-3.1759111213
 H,0,0.8030463738,-1.0653382476,-3.0352343353
 C,0,-0.1837064691,2.6366660836,-3.6216673102
 H,0,-0.4770253964,3.6610098158,-3.825180951
 C,0,1.0314900134,0.6546543074,-4.3022909449
 H,0,1.668953099,0.133760471,-5.0128317213
 O,0,1.1492995235,2.734167187,-5.5573070343
 H,0,1.6641668193,2.182054381,-6.1676411357
 C,0,0.6817900246,1.9923026292,-4.5168854071
 N,0,2.191620934,0.6143839336,-0.5333607951
 H,0,1.9238145811,0.2812528564,-1.4577681615
 C,0,3.5145931628,1.1570119176,-0.2137883441
 H,0,4.2342865114,0.339859804,-0.127271288
 C,0,3.2629799028,1.69029433,1.186923095
 C,0,3.9588716648,2.2197052317,-1.2359660104
 H,0,4.9498525271,2.5720068311,-0.9301319333
 H,0,4.0929578108,1.6963140065,-2.1917870485
 O,0,3.9298793362,2.2763836713,1.960487515
 C,0,2.9812150053,3.391263373,-1.4067964469
 H,0,3.0841843443,4.0852346186,-0.562009844
 H,0,1.9465694513,3.0206758535,-1.38622114
 C,0,3.1752787474,4.1311275205,-2.7361411159
 H,0,4.2031334128,4.5104576745,-2.8190198996
 H,0,3.0369876288,3.4154728451,-3.559110954
 C,0,2.171266716,5.2854369904,-2.9230546655
 H,0,1.1730600695,4.9319937343,-2.6309431547
 H,0,2.4159804291,6.1028592119,-2.2330527871
 N,0,2.0680678008,5.8354273728,-4.2698948267
 H,0,1.8603912049,5.0912442327,-4.9350697399
 H,0,2.9525684585,6.2506814005,-4.5565893237
 O,0,3.6315380855,-0.8373025343,1.8088673679
 H,0,2.7906782666,-1.3243820911,1.8844436666
 H,0,4.048082123,-0.8851628013,2.6817532643
 H,0,-5.3377226506,-5.2403830912,3.4563466661
 Recover connectivity data from disk.
                           ----------------------------
                           !    Current Parameters    !
                           ! (Angstroms and Degrees)  !
 --------------------------                            --------------------------
 ! Name  Definition              Value                                          !
 --------------------------------------------------------------------------------
 ! R1    R(1,2)                  1.019                                          !
 ! R2    R(1,3)                  1.0175                                         !
 ! R3    R(1,4)                  1.4508                                         !
 ! R4    R(4,5)                  1.0987                                         !
 ! R5    R(4,6)                  1.5345                                         !
 ! R6    R(4,7)                  1.5452                                         !
 ! R7    R(6,10)                 1.2361                                         !
 ! R8    R(6,17)                 1.3615                                         !
 ! R9    R(7,8)                  1.097                                          !
 ! R10   R(7,9)                  1.0961                                         !
 ! R11   R(7,11)                 1.5275                                         !
 ! R12   R(11,12)                1.098                                          !
 ! R13   R(11,13)                1.0942                                         !
 ! R14   R(11,14)                1.5144                                         !
 ! R15   R(14,15)                1.2124                                         !
 ! R16   R(14,16)                1.3493                                         !
 ! R17   R(16,62)                0.9762                                         !
 ! R18   R(17,18)                1.0113                                         !
 ! R19   R(17,19)                1.4553                                         !
 ! R20   R(19,20)                1.0973                                         !
 ! R21   R(19,21)                1.5136                                         !
 ! R22   R(19,22)                1.552                                          !
 ! R23   R(21,25)                1.3146                                         !
 ! R24   R(21,38)                1.3038                                         !
 ! R25   R(22,23)                1.0947                                         !
 ! R26   R(22,24)                1.0962                                         !
 ! R27   R(22,26)                1.5163                                         !
 ! R28   R(26,27)                1.4051                                         !
 ! R29   R(26,29)                1.4024                                         !
 ! R30   R(27,28)                1.0878                                         !
 ! R31   R(27,31)                1.3892                                         !
 ! R32   R(29,30)                1.0891                                         !
 ! R33   R(29,33)                1.3984                                         !
 ! R34   R(31,32)                1.0848                                         !
 ! R35   R(31,37)                1.402                                          !
 ! R36   R(33,34)                1.0875                                         !
 ! R37   R(33,37)                1.3992                                         !
 ! R38   R(35,36)                0.9708                                         !
 ! R39   R(35,37)                1.3607                                         !
 ! R40   R(38,39)                1.0184                                         !
 ! R41   R(38,40)                1.4652                                         !
 ! R42   R(40,41)                1.0923                                         !
 ! R43   R(40,42)                1.5198                                         !
 ! R44   R(40,43)                1.54                                           !
 ! R45   R(42,46)                1.1776                                         !
 ! R46   R(42,59)                2.629                                          !
 ! R47   R(43,44)                1.0953                                         !
 ! R48   R(43,45)                1.098                                          !
 ! R49   R(43,47)                1.5354                                         !
 ! R50   R(47,48)                1.0981                                         !
 ! R51   R(47,49)                1.0992                                         !
 ! R52   R(47,50)                1.5337                                         !
 ! R53   R(50,51)                1.0987                                         !
 ! R54   R(50,52)                1.0993                                         !
 ! R55   R(50,53)                1.5412                                         !
 ! R56   R(53,54)                1.0985                                         !
 ! R57   R(53,55)                1.0973                                         !
 ! R58   R(53,56)                1.4585                                         !
 ! R59   R(56,57)                1.0195                                         !
 ! R60   R(56,58)                1.0183                                         !
 ! R61   R(59,60)                0.9747                                         !
 ! R62   R(59,61)                0.9684                                         !
 ! A1    A(2,1,3)              107.1209                                         !
 ! A2    A(2,1,4)              109.7485                                         !
 ! A3    A(3,1,4)              111.2178                                         !
 ! A4    A(1,4,5)              108.1319                                         !
 ! A5    A(1,4,6)              113.2616                                         !
 ! A6    A(1,4,7)              110.6524                                         !
 ! A7    A(5,4,6)              108.5561                                         !
 ! A8    A(5,4,7)              108.7814                                         !
 ! A9    A(6,4,7)              107.3626                                         !
 ! A10   A(4,6,10)             122.9373                                         !
 ! A11   A(4,6,17)             117.8283                                         !
 ! A12   A(10,6,17)            119.1996                                         !
 ! A13   A(4,7,8)              108.9373                                         !
 ! A14   A(4,7,9)              110.1783                                         !
 ! A15   A(4,7,11)             112.548                                          !
 ! A16   A(8,7,9)              105.8655                                         !
 ! A17   A(8,7,11)             109.5801                                         !
 ! A18   A(9,7,11)             109.5097                                         !
 ! A19   A(7,11,12)            111.4132                                         !
 ! A20   A(7,11,13)            111.0223                                         !
 ! A21   A(7,11,14)            111.0186                                         !
 ! A22   A(12,11,13)           105.7076                                         !
 ! A23   A(12,11,14)           108.1259                                         !
 ! A24   A(13,11,14)           109.3705                                         !
 ! A25   A(11,14,15)           125.0769                                         !
 ! A26   A(11,14,16)           111.3101                                         !
 ! A27   A(15,14,16)           123.6124                                         !
 ! A28   A(14,16,62)           107.0806                                         !
 ! A29   A(6,17,18)            120.4514                                         !
 ! A30   A(6,17,19)            120.0502                                         !
 ! A31   A(18,17,19)           118.4083                                         !
 ! A32   A(17,19,20)           106.8946                                         !
 ! A33   A(17,19,21)           109.1511                                         !
 ! A34   A(17,19,22)           112.94                                           !
 ! A35   A(20,19,21)           103.5519                                         !
 ! A36   A(20,19,22)           109.1536                                         !
 ! A37   A(21,19,22)           114.4745                                         !
 ! A38   A(19,21,25)           118.5828                                         !
 ! A39   A(19,21,38)           127.2369                                         !
 ! A40   A(25,21,38)           113.4548                                         !
 ! A41   A(19,22,23)           108.283                                          !
 ! A42   A(19,22,24)           105.89                                           !
 ! A43   A(19,22,26)           113.2591                                         !
 ! A44   A(23,22,24)           106.7586                                         !
 ! A45   A(23,22,26)           111.3158                                         !
 ! A46   A(24,22,26)           110.9813                                         !
 ! A47   A(22,26,27)           120.7849                                         !
 ! A48   A(22,26,29)           121.1679                                         !
 ! A49   A(27,26,29)           117.9475                                         !
 ! A50   A(26,27,28)           120.0275                                         !
 ! A51   A(26,27,31)           121.4203                                         !
 ! A52   A(28,27,31)           118.5502                                         !
 ! A53   A(26,29,30)           119.7875                                         !
 ! A54   A(26,29,33)           121.2648                                         !
 ! A55   A(30,29,33)           118.944                                          !
 ! A56   A(27,31,32)           121.3877                                         !
 ! A57   A(27,31,37)           119.8538                                         !
 ! A58   A(32,31,37)           118.7584                                         !
 ! A59   A(29,33,34)           120.0118                                         !
 ! A60   A(29,33,37)           119.7033                                         !
 ! A61   A(34,33,37)           120.2811                                         !
 ! A62   A(36,35,37)           110.6633                                         !
 ! A63   A(31,37,33)           119.7189                                         !
 ! A64   A(31,37,35)           116.7281                                         !
 ! A65   A(33,37,35)           123.5493                                         !
 ! A66   A(21,38,39)           122.4739                                         !
 ! A67   A(21,38,40)           112.3838                                         !
 ! A68   A(39,38,40)           123.8167                                         !
 ! A69   A(38,40,41)           109.5805                                         !
 ! A70   A(38,40,42)           100.4563                                         !
 ! A71   A(38,40,43)           111.7946                                         !
 ! A72   A(41,40,42)           107.3725                                         !
 ! A73   A(41,40,43)           112.2545                                         !
 ! A74   A(42,40,43)           114.6694                                         !
 ! A75   A(40,42,46)           133.3411                                         !
 ! A76   A(40,42,59)            81.8053                                         !
 ! A77   A(46,42,59)           104.1061                                         !
 ! A78   A(40,43,44)           107.3159                                         !
 ! A79   A(40,43,45)           106.5057                                         !
 ! A80   A(40,43,47)           114.6257                                         !
 ! A81   A(44,43,45)           106.6134                                         !
 ! A82   A(44,43,47)           111.2064                                         !
 ! A83   A(45,43,47)           110.1592                                         !
 ! A84   A(43,47,48)           109.6882                                         !
 ! A85   A(43,47,49)           109.8773                                         !
 ! A86   A(43,47,50)           112.5786                                         !
 ! A87   A(48,47,49)           106.6738                                         !
 ! A88   A(48,47,50)           110.4918                                         !
 ! A89   A(49,47,50)           107.3355                                         !
 ! A90   A(47,50,51)           110.5054                                         !
 ! A91   A(47,50,52)           108.5964                                         !
 ! A92   A(47,50,53)           112.5809                                         !
 ! A93   A(51,50,52)           106.6159                                         !
 ! A94   A(51,50,53)           109.9797                                         !
 ! A95   A(52,50,53)           108.35                                           !
 ! A96   A(50,53,54)           108.5866                                         !
 ! A97   A(50,53,55)           109.6559                                         !
 ! A98   A(50,53,56)           116.137                                          !
 ! A99   A(54,53,55)           105.9689                                         !
 ! A100  A(54,53,56)           107.6142                                         !
 ! A101  A(55,53,56)           108.3934                                         !
 ! A102  A(53,56,57)           109.9782                                         !
 ! A103  A(53,56,58)           110.6284                                         !
 ! A104  A(57,56,58)           106.9122                                         !
 ! A105  A(42,59,60)           112.2015                                         !
 ! A106  A(42,59,61)           108.7277                                         !
 ! A107  A(60,59,61)           106.0514                                         !
 ! D1    D(2,1,4,5)           -171.5795                                         !
 ! D2    D(2,1,4,6)            -51.2309                                         !
 ! D3    D(2,1,4,7)             69.3768                                         !
 ! D4    D(3,1,4,5)            -53.2261                                         !
 ! D5    D(3,1,4,6)             67.1225                                         !
 ! D6    D(3,1,4,7)           -172.2698                                         !
 ! D7    D(1,4,6,10)            24.3682                                         !
 ! D8    D(1,4,6,17)          -157.7966                                         !
 ! D9    D(5,4,6,10)           144.4754                                         !
 ! D10   D(5,4,6,17)           -37.6894                                         !
 ! D11   D(7,4,6,10)           -98.0869                                         !
 ! D12   D(7,4,6,17)            79.7483                                         !
 ! D13   D(1,4,7,8)            -62.23                                           !
 ! D14   D(1,4,7,9)           -177.9525                                         !
 ! D15   D(1,4,7,11)            59.511                                          !
 ! D16   D(5,4,7,8)            179.1199                                         !
 ! D17   D(5,4,7,9)             63.3974                                         !
 ! D18   D(5,4,7,11)           -59.1391                                         !
 ! D19   D(6,4,7,8)             61.8293                                         !
 ! D20   D(6,4,7,9)            -53.8932                                         !
 ! D21   D(6,4,7,11)          -176.4297                                         !
 ! D22   D(4,6,17,18)           -1.2787                                         !
 ! D23   D(4,6,17,19)         -169.1533                                         !
 ! D24   D(10,6,17,18)         176.6399                                         !
 ! D25   D(10,6,17,19)           8.7654                                         !
 ! D26   D(4,7,11,12)           58.7431                                         !
 ! D27   D(4,7,11,13)          -58.7892                                         !
 ! D28   D(4,7,11,14)          179.3188                                         !
 ! D29   D(8,7,11,12)         -179.8815                                         !
 ! D30   D(8,7,11,13)           62.5862                                         !
 ! D31   D(8,7,11,14)          -59.3058                                         !
 ! D32   D(9,7,11,12)          -64.1689                                         !
 ! D33   D(9,7,11,13)          178.2988                                         !
 ! D34   D(9,7,11,14)           56.4068                                         !
 ! D35   D(7,11,14,15)          -2.6097                                         !
 ! D36   D(7,11,14,16)         177.6651                                         !
 ! D37   D(12,11,14,15)        119.8915                                         !
 ! D38   D(12,11,14,16)        -59.8337                                         !
 ! D39   D(13,11,14,15)       -125.4603                                         !
 ! D40   D(13,11,14,16)         54.8145                                         !
 ! D41   D(11,14,16,62)        179.8195                                         !
 ! D42   D(15,14,16,62)          0.0896                                         !
 ! D43   D(6,17,19,20)        -161.8492                                         !
 ! D44   D(6,17,19,21)         -50.4589                                         !
 ! D45   D(6,17,19,22)          78.0916                                         !
 ! D46   D(18,17,19,20)         30.0311                                         !
 ! D47   D(18,17,19,21)        141.4214                                         !
 ! D48   D(18,17,19,22)        -90.0281                                         !
 ! D49   D(17,19,21,25)        -51.7742                                         !
 ! D50   D(17,19,21,38)        138.6708                                         !
 ! D51   D(20,19,21,25)         61.8137                                         !
 ! D52   D(20,19,21,38)       -107.7414                                         !
 ! D53   D(22,19,21,25)       -179.4659                                         !
 ! D54   D(22,19,21,38)         10.979                                          !
 ! D55   D(17,19,22,23)        -60.9698                                         !
 ! D56   D(17,19,22,24)         53.2216                                         !
 ! D57   D(17,19,22,26)        175.0636                                         !
 ! D58   D(20,19,22,23)       -179.7248                                         !
 ! D59   D(20,19,22,24)        -65.5334                                         !
 ! D60   D(20,19,22,26)         56.3087                                         !
 ! D61   D(21,19,22,23)         64.7665                                         !
 ! D62   D(21,19,22,24)        178.9579                                         !
 ! D63   D(21,19,22,26)        -59.2001                                         !
 ! D64   D(19,21,38,39)         -0.43                                           !
 ! D65   D(19,21,38,40)        166.8747                                         !
 ! D66   D(25,21,38,39)       -170.4366                                         !
 ! D67   D(25,21,38,40)         -3.1319                                         !
 ! D68   D(19,22,26,27)        -57.816                                          !
 ! D69   D(19,22,26,29)        118.479                                          !
 ! D70   D(23,22,26,27)        179.8907                                         !
 ! D71   D(23,22,26,29)         -3.8143                                         !
 ! D72   D(24,22,26,27)         61.1314                                         !
 ! D73   D(24,22,26,29)       -122.5736                                         !
 ! D74   D(22,26,27,28)         -6.1811                                         !
 ! D75   D(22,26,27,31)        174.3466                                         !
 ! D76   D(29,26,27,28)        177.4075                                         !
 ! D77   D(29,26,27,31)         -2.0649                                         !
 ! D78   D(22,26,29,30)          7.177                                          !
 ! D79   D(22,26,29,33)       -173.5304                                         !
 ! D80   D(27,26,29,30)       -176.426                                          !
 ! D81   D(27,26,29,33)          2.8666                                         !
 ! D82   D(26,27,31,32)        179.4761                                         !
 ! D83   D(26,27,31,37)         -0.6472                                         !
 ! D84   D(28,27,31,32)         -0.0038                                         !
 ! D85   D(28,27,31,37)        179.8728                                         !
 ! D86   D(26,29,33,34)        179.7529                                         !
 ! D87   D(26,29,33,37)         -0.9543                                         !
 ! D88   D(30,29,33,34)         -0.9486                                         !
 ! D89   D(30,29,33,37)        178.3441                                         !
 ! D90   D(27,31,37,33)          2.6187                                         !
 ! D91   D(27,31,37,35)       -176.7052                                         !
 ! D92   D(32,31,37,33)       -177.5014                                         !
 ! D93   D(32,31,37,35)          3.1747                                         !
 ! D94   D(29,33,37,31)         -1.8279                                         !
 ! D95   D(29,33,37,35)        177.4475                                         !
 ! D96   D(34,33,37,31)        177.4629                                         !
 ! D97   D(34,33,37,35)         -3.2617                                         !
 ! D98   D(36,35,37,31)       -174.2623                                         !
 ! D99   D(36,35,37,33)          6.4423                                         !
 ! D100  D(21,38,40,41)        116.6454                                         !
 ! D101  D(21,38,40,42)          3.8212                                         !
 ! D102  D(21,38,40,43)       -118.2449                                         !
 ! D103  D(39,38,40,41)        -76.2491                                         !
 ! D104  D(39,38,40,42)        170.9267                                         !
 ! D105  D(39,38,40,43)         48.8606                                         !
 ! D106  D(38,40,42,46)       -177.2922                                         !
 ! D107  D(38,40,42,59)         81.015                                          !
 ! D108  D(41,40,42,46)         68.2001                                         !
 ! D109  D(41,40,42,59)        -33.4928                                         !
 ! D110  D(43,40,42,46)        -57.2767                                         !
 ! D111  D(43,40,42,59)       -158.9695                                         !
 ! D112  D(38,40,43,44)       -179.908                                          !
 ! D113  D(38,40,43,45)        -66.0331                                         !
 ! D114  D(38,40,43,47)         56.0556                                         !
 ! D115  D(41,40,43,44)        -56.2933                                         !
 ! D116  D(41,40,43,45)         57.5816                                         !
 ! D117  D(41,40,43,47)        179.6703                                         !
 ! D118  D(42,40,43,44)         66.5922                                         !
 ! D119  D(42,40,43,45)       -179.5328                                         !
 ! D120  D(42,40,43,47)        -57.4441                                         !
 ! D121  D(40,42,59,60)        -95.812                                          !
 ! D122  D(40,42,59,61)        147.2067                                         !
 ! D123  D(46,42,59,60)        131.4387                                         !
 ! D124  D(46,42,59,61)         14.4574                                         !
 ! D125  D(40,43,47,48)         77.3208                                         !
 ! D126  D(40,43,47,49)        -39.6421                                         !
 ! D127  D(40,43,47,50)       -159.2118                                         !
 ! D128  D(44,43,47,48)        -44.6207                                         !
 ! D129  D(44,43,47,49)       -161.5835                                         !
 ! D130  D(44,43,47,50)         78.8467                                         !
 ! D131  D(45,43,47,48)       -162.599                                          !
 ! D132  D(45,43,47,49)         80.4382                                         !
 ! D133  D(45,43,47,50)        -39.1316                                         !
 ! D134  D(43,47,50,51)        -57.9977                                         !
 ! D135  D(43,47,50,52)         58.6147                                         !
 ! D136  D(43,47,50,53)        178.5927                                         !
 ! D137  D(48,47,50,51)         65.0213                                         !
 ! D138  D(48,47,50,52)       -178.3663                                         !
 ! D139  D(48,47,50,53)        -58.3883                                         !
 ! D140  D(49,47,50,51)       -179.0319                                         !
 ! D141  D(49,47,50,52)        -62.4195                                         !
 ! D142  D(49,47,50,53)         57.5585                                         !
 ! D143  D(47,50,53,54)        -44.6065                                         !
 ! D144  D(47,50,53,55)         70.7549                                         !
 ! D145  D(47,50,53,56)       -165.9811                                         !
 ! D146  D(51,50,53,54)       -168.3083                                         !
 ! D147  D(51,50,53,55)        -52.9469                                         !
 ! D148  D(51,50,53,56)         70.3171                                         !
 ! D149  D(52,50,53,54)         75.5139                                         !
 ! D150  D(52,50,53,55)       -169.1247                                         !
 ! D151  D(52,50,53,56)        -45.8607                                         !
 ! D152  D(50,53,56,57)         54.8807                                         !
 ! D153  D(50,53,56,58)        -62.9972                                         !
 ! D154  D(54,53,56,57)        -67.0099                                         !
 ! D155  D(54,53,56,58)        175.1122                                         !
 ! D156  D(55,53,56,57)        178.8001                                         !
 ! D157  D(55,53,56,58)         60.9222                                         !
 --------------------------------------------------------------------------------
 Symmetry turned off by external request.
 Stoichiometry    C20H31N4O7(1+)
 Framework group  C1[X(C20H31N4O7)]
 Deg. of freedom   180
 Full point group                 C1      NOp   1
                          Input orientation:                          
 ---------------------------------------------------------------------
 Center     Atomic      Atomic             Coordinates (Angstroms)
 Number     Number       Type             X           Y           Z
 ---------------------------------------------------------------------
      1          7           0        0.086315   -2.608947    3.967608
      2          1           0        0.604047   -3.225474    3.343020
      3          1           0        0.771110   -2.056013    4.478118
      4          6           0       -0.801854   -1.761418    3.194528
      5          1           0       -1.231234   -1.009319    3.870679
      6          6           0       -0.095584   -1.035318    2.041854
      7          6           0       -1.950957   -2.592499    2.580804
      8          1           0       -1.526058   -3.334054    1.893024
      9          1           0       -2.596252   -1.951522    1.969031
     10          8           0        0.943441   -1.454485    1.519735
     11          6           0       -2.792602   -3.300539    3.640728
     12          1           0       -3.235084   -2.584234    4.345589
     13          1           0       -2.176670   -3.971222    4.247472
     14          6           0       -3.916789   -4.090049    3.003403
     15          8           0       -4.158610   -4.123489    1.815809
     16          8           0       -4.633407   -4.758794    3.930717
     17          7           0       -0.673980    0.096716    1.554455
     18          1           0       -1.550840    0.428441    1.933760
     19          6           0       -0.184257    0.691898    0.320042
     20          1           0       -0.549672    1.726332    0.297886
     21          6           0        1.318733    0.848452    0.406407
     22          6           0       -0.681485   -0.051091   -0.948624
     23          1           0       -0.313528   -1.081407   -0.909577
     24          1           0       -1.772784   -0.101574   -0.858503
     25          8           0        1.828498    1.456920    1.454247
     26          6           0       -0.274341    0.631019   -2.240176
     27          6           0       -0.645174    1.961410   -2.498750
     28          1           0       -1.314158    2.482340   -1.817222
     29          6           0        0.545301   -0.016549   -3.175911
     30          1           0        0.803046   -1.065338   -3.035234
     31          6           0       -0.183706    2.636666   -3.621667
     32          1           0       -0.477025    3.661010   -3.825181
     33          6           0        1.031490    0.654654   -4.302291
     34          1           0        1.668953    0.133760   -5.012832
     35          8           0        1.149300    2.734167   -5.557307
     36          1           0        1.664167    2.182054   -6.167641
     37          6           0        0.681790    1.992303   -4.516885
     38          7           0        2.191621    0.614384   -0.533361
     39          1           0        1.923815    0.281253   -1.457768
     40          6           0        3.514593    1.157012   -0.213788
     41          1           0        4.234287    0.339860   -0.127271
     42          6           0        3.262980    1.690294    1.186923
     43          6           0        3.958872    2.219705   -1.235966
     44          1           0        4.949853    2.572007   -0.930132
     45          1           0        4.092958    1.696314   -2.191787
     46          8           0        3.929879    2.276384    1.960488
     47          6           0        2.981215    3.391263   -1.406796
     48          1           0        3.084184    4.085235   -0.562010
     49          1           0        1.946569    3.020676   -1.386221
     50          6           0        3.175279    4.131128   -2.736141
     51          1           0        4.203133    4.510458   -2.819020
     52          1           0        3.036988    3.415473   -3.559111
     53          6           0        2.171267    5.285437   -2.923055
     54          1           0        1.173060    4.931994   -2.630943
     55          1           0        2.415980    6.102859   -2.233053
     56          7           0        2.068068    5.835427   -4.269895
     57          1           0        1.860391    5.091244   -4.935070
     58          1           0        2.952568    6.250681   -4.556589
     59          8           0        3.631538   -0.837303    1.808867
     60          1           0        2.790678   -1.324382    1.884444
     61          1           0        4.048082   -0.885163    2.681753
     62          1           0       -5.337723   -5.240383    3.456347
 ---------------------------------------------------------------------
 Rotational constants (GHZ):           0.2334802           0.0687313           0.0577141
 Standard basis: 6-31G(d) (6D, 7F)
   527 basis functions,   992 primitive gaussians,   527 cartesian basis functions
   117 alpha electrons      117 beta electrons
       nuclear repulsion energy      3291.0055918638 Hartrees.
 NAtoms=   62 NActive=   62 NUniq=   62 SFac= 1.00D+00 NAtFMM=   60 NAOKFM=T Big=T
 Integral buffers will be    131072 words long.
 Raffenetti 2 integral format.
 Two-electron integral symmetry is turned off.
 Nuclear repulsion after empirical dispersion term =     3290.9251801902 Hartrees.
 One-electron integrals computed using PRISM.
 NBasis=   527 RedAO= T EigKep=  4.27D-04  NBF=   527
 NBsUse=   527 1.00D-06 EigRej= -1.00D+00 NBFU=   527
 Initial guess from the checkpoint file:  "conf-306.chk"
 B after Tr=     0.000000    0.000000    0.000000
         Rot=    1.000000    0.000000    0.000000    0.000000 Ang=   0.00 deg.
 Requested convergence on RMS density matrix=1.00D-08 within 128 cycles.
 Requested convergence on MAX density matrix=1.00D-06.
 Requested convergence on             energy=1.00D-06.
 No special actions if energy rises.
 SCF Done:  E(RB3LYP) =  -1526.24675810     A.U. after    3 cycles
            NFock=  3  Conv=0.85D-09     -V/T= 2.0092

 **********************************************************************

            Population analysis using the SCF Density.

 **********************************************************************

 Alpha  occ. eigenvalues --  -19.37382 -19.30722 -19.29869 -19.26913 -19.26855
 Alpha  occ. eigenvalues --  -19.25256 -19.21450 -14.55702 -14.51454 -14.42543
 Alpha  occ. eigenvalues --  -14.38427 -10.49513 -10.47988 -10.42831 -10.41106
 Alpha  occ. eigenvalues --  -10.39713 -10.39588 -10.37457 -10.34535 -10.33733
 Alpha  occ. eigenvalues --  -10.32668 -10.32586 -10.32177 -10.31875 -10.31690
 Alpha  occ. eigenvalues --  -10.30961 -10.30056 -10.29613 -10.28947 -10.28495
 Alpha  occ. eigenvalues --  -10.27737  -1.29722  -1.21425  -1.18685  -1.17936
 Alpha  occ. eigenvalues --   -1.17839  -1.12600  -1.11050  -1.08963  -1.07939
 Alpha  occ. eigenvalues --   -1.00465  -0.98625  -0.96251  -0.95541  -0.92614
 Alpha  occ. eigenvalues --   -0.89211  -0.88750  -0.87581  -0.86775  -0.82720
 Alpha  occ. eigenvalues --   -0.82119  -0.80603  -0.78600  -0.77208  -0.74987
 Alpha  occ. eigenvalues --   -0.74856  -0.72905  -0.72465  -0.71850  -0.69110
 Alpha  occ. eigenvalues --   -0.68406  -0.67630  -0.66997  -0.66765  -0.65056
 Alpha  occ. eigenvalues --   -0.64381  -0.62937  -0.61632  -0.61306  -0.60330
 Alpha  occ. eigenvalues --   -0.60165  -0.59528  -0.59168  -0.58773  -0.57653
 Alpha  occ. eigenvalues --   -0.57193  -0.56730  -0.56653  -0.56360  -0.55731
 Alpha  occ. eigenvalues --   -0.55677  -0.55104  -0.54844  -0.54595  -0.54141
 Alpha  occ. eigenvalues --   -0.53603  -0.52711  -0.52497  -0.52284  -0.52003
 Alpha  occ. eigenvalues --   -0.50749  -0.49676  -0.49149  -0.48973  -0.48861
 Alpha  occ. eigenvalues --   -0.48440  -0.47459  -0.47251  -0.46789  -0.46198
 Alpha  occ. eigenvalues --   -0.45947  -0.45258  -0.45018  -0.44725  -0.44331
 Alpha  occ. eigenvalues --   -0.44197  -0.43514  -0.42261  -0.41418  -0.40605
 Alpha  occ. eigenvalues --   -0.40392  -0.39190  -0.38012  -0.35404  -0.34841
 Alpha  occ. eigenvalues --   -0.34432  -0.30591
 Alpha virt. eigenvalues --   -0.19129  -0.13978  -0.13592  -0.12785  -0.11741
 Alpha virt. eigenvalues --   -0.06467  -0.06361  -0.04778  -0.04435  -0.04123
 Alpha virt. eigenvalues --   -0.02949  -0.02601  -0.01849  -0.01611  -0.00318
 Alpha virt. eigenvalues --   -0.00148   0.00751   0.00931   0.01086   0.01302
 Alpha virt. eigenvalues --    0.02053   0.02618   0.02940   0.03432   0.04139
 Alpha virt. eigenvalues --    0.04462   0.04916   0.04971   0.05721   0.06069
 Alpha virt. eigenvalues --    0.06574   0.06675   0.07141   0.07194   0.07922
 Alpha virt. eigenvalues --    0.08394   0.08893   0.09299   0.09715   0.10194
 Alpha virt. eigenvalues --    0.10410   0.10875   0.11264   0.11646   0.12075
 Alpha virt. eigenvalues --    0.12249   0.12421   0.13070   0.13531   0.14225
 Alpha virt. eigenvalues --    0.15074   0.15802   0.16751   0.17637   0.18370
 Alpha virt. eigenvalues --    0.18932   0.19635   0.20178   0.21154   0.22049
 Alpha virt. eigenvalues --    0.22705   0.23651   0.24085   0.26678   0.27709
 Alpha virt. eigenvalues --    0.28972   0.30762   0.34732   0.35935   0.36670
 Alpha virt. eigenvalues --    0.37159   0.38767   0.39119   0.39551   0.39957
 Alpha virt. eigenvalues --    0.40994   0.41516   0.42141   0.42618   0.43176
 Alpha virt. eigenvalues --    0.43506   0.43868   0.44343   0.45494   0.45714
 Alpha virt. eigenvalues --    0.46558   0.46878   0.47061   0.47643   0.48683
 Alpha virt. eigenvalues --    0.49108   0.49247   0.49945   0.50490   0.50940
 Alpha virt. eigenvalues --    0.51373   0.51876   0.52590   0.52891   0.53025
 Alpha virt. eigenvalues --    0.53803   0.54423   0.55017   0.55279   0.56012
 Alpha virt. eigenvalues --    0.56895   0.58696   0.59130   0.59341   0.59517
 Alpha virt. eigenvalues --    0.60136   0.61252   0.61880   0.62825   0.63316
 Alpha virt. eigenvalues --    0.64248   0.64595   0.65001   0.65776   0.66184
 Alpha virt. eigenvalues --    0.66704   0.66812   0.67705   0.68702   0.68880
 Alpha virt. eigenvalues --    0.69574   0.69673   0.70424   0.70948   0.71535
 Alpha virt. eigenvalues --    0.72164   0.72676   0.73459   0.74399   0.74672
 Alpha virt. eigenvalues --    0.74964   0.75172   0.76032   0.76121   0.76320
 Alpha virt. eigenvalues --    0.76781   0.77499   0.78173   0.78469   0.79023
 Alpha virt. eigenvalues --    0.79266   0.79920   0.79944   0.80154   0.80787
 Alpha virt. eigenvalues --    0.81336   0.81659   0.82046   0.82405   0.82959
 Alpha virt. eigenvalues --    0.83534   0.84092   0.84346   0.85024   0.85126
 Alpha virt. eigenvalues --    0.85898   0.86174   0.86257   0.86999   0.87247
 Alpha virt. eigenvalues --    0.87485   0.88591   0.89399   0.89514   0.89957
 Alpha virt. eigenvalues --    0.90565   0.90699   0.91362   0.92486   0.93044
 Alpha virt. eigenvalues --    0.94678   0.95470   0.96166   0.98223   0.99429
 Alpha virt. eigenvalues --    0.99761   1.00227   1.00546   1.01603   1.03135
 Alpha virt. eigenvalues --    1.03845   1.04052   1.05396   1.06736   1.06869
 Alpha virt. eigenvalues --    1.07217   1.08897   1.10599   1.12117   1.12583
 Alpha virt. eigenvalues --    1.13525   1.16279   1.16667   1.17657   1.18482
 Alpha virt. eigenvalues --    1.19448   1.20139   1.21787   1.22883   1.23516
 Alpha virt. eigenvalues --    1.24727   1.25964   1.26652   1.27717   1.29146
 Alpha virt. eigenvalues --    1.29608   1.31101   1.31664   1.31789   1.32467
 Alpha virt. eigenvalues --    1.33249   1.33911   1.34931   1.35057   1.36122
 Alpha virt. eigenvalues --    1.36863   1.37197   1.38828   1.40157   1.42228
 Alpha virt. eigenvalues --    1.43308   1.44984   1.45074   1.47298   1.47664
 Alpha virt. eigenvalues --    1.49854   1.51327   1.52049   1.52712   1.54047
 Alpha virt. eigenvalues --    1.54627   1.55245   1.56955   1.58325   1.58835
 Alpha virt. eigenvalues --    1.60280   1.60463   1.61818   1.62555   1.63044
 Alpha virt. eigenvalues --    1.63207   1.63398   1.65119   1.66266   1.67326
 Alpha virt. eigenvalues --    1.67387   1.67580   1.68633   1.69124   1.69421
 Alpha virt. eigenvalues --    1.70272   1.71274   1.72025   1.72673   1.73617
 Alpha virt. eigenvalues --    1.74613   1.75074   1.75854   1.76056   1.77200
 Alpha virt. eigenvalues --    1.78057   1.79259   1.80234   1.80941   1.81626
 Alpha virt. eigenvalues --    1.82328   1.82386   1.82826   1.83718   1.84271
 Alpha virt. eigenvalues --    1.84667   1.85242   1.85820   1.85967   1.86186
 Alpha virt. eigenvalues --    1.88450   1.89004   1.89350   1.90233   1.90919
 Alpha virt. eigenvalues --    1.91622   1.92627   1.93366   1.93738   1.94166
 Alpha virt. eigenvalues --    1.96343   1.96852   1.98443   1.99084   2.00142
 Alpha virt. eigenvalues --    2.00353   2.01141   2.01454   2.02151   2.02822
 Alpha virt. eigenvalues --    2.03678   2.04811   2.06397   2.06621   2.08400
 Alpha virt. eigenvalues --    2.09105   2.10050   2.11204   2.13725   2.15242
 Alpha virt. eigenvalues --    2.15884   2.17317   2.18841   2.19191   2.20182
 Alpha virt. eigenvalues --    2.21656   2.22840   2.23959   2.24224   2.24500
 Alpha virt. eigenvalues --    2.25880   2.26857   2.28153   2.28716   2.29260
 Alpha virt. eigenvalues --    2.30730   2.31124   2.32045   2.33159   2.34010
 Alpha virt. eigenvalues --    2.35906   2.36432   2.37072   2.38237   2.39061
 Alpha virt. eigenvalues --    2.40436   2.41337   2.42964   2.44361   2.44923
 Alpha virt. eigenvalues --    2.46664   2.48228   2.49677   2.50528   2.50640
 Alpha virt. eigenvalues --    2.51455   2.53041   2.54039   2.54902   2.56024
 Alpha virt. eigenvalues --    2.57000   2.57588   2.59463   2.61383   2.62272
 Alpha virt. eigenvalues --    2.64493   2.65790   2.66856   2.67493   2.69502
 Alpha virt. eigenvalues --    2.70064   2.71820   2.73532   2.75235   2.76201
 Alpha virt. eigenvalues --    2.77212   2.80512   2.81843   2.83495   2.86471
 Alpha virt. eigenvalues --    2.88521   2.90017   2.93026   2.94307   3.00123
 Alpha virt. eigenvalues --    3.03271   3.04197   3.10051   3.28931   3.64440
 Alpha virt. eigenvalues --    3.70843   3.73276   3.76695   3.84525   3.89932
 Alpha virt. eigenvalues --    3.93878   3.99706   4.00232   4.02520   4.03074
 Alpha virt. eigenvalues --    4.05915   4.08470   4.09105   4.13823   4.16624
 Alpha virt. eigenvalues --    4.20282   4.22002   4.24189   4.27094   4.29634
 Alpha virt. eigenvalues --    4.33696   4.35167   4.38029   4.38887   4.43148
 Alpha virt. eigenvalues --    4.45968   4.52933   4.57362   4.63573   4.64678
          Condensed to atoms (all electrons):
 Mulliken charges:
               1
     1  N   -0.685731
     2  H    0.318089
     3  H    0.313822
     4  C   -0.092146
     5  H    0.161158
     6  C    0.624766
     7  C   -0.265134
     8  H    0.172284
     9  H    0.150520
    10  O   -0.553531
    11  C   -0.352419
    12  H    0.180449
    13  H    0.216978
    14  C    0.584434
    15  O   -0.463489
    16  O   -0.559517
    17  N   -0.589085
    18  H    0.361619
    19  C   -0.059658
    20  H    0.215256
    21  C    0.726587
    22  C   -0.372078
    23  H    0.196040
    24  H    0.196531
    25  O   -0.458736
    26  C    0.142353
    27  C   -0.193965
    28  H    0.150393
    29  C   -0.265752
    30  H    0.165987
    31  C   -0.151841
    32  H    0.192543
    33  C   -0.177819
    34  H    0.158350
    35  O   -0.631528
    36  H    0.426594
    37  C    0.363627
    38  N   -0.597882
    39  H    0.390360
    40  C   -0.060538
    41  H    0.268305
    42  C    0.650741
    43  C   -0.278033
    44  H    0.201798
    45  H    0.168860
    46  O   -0.366678
    47  C   -0.297164
    48  H    0.168476
    49  H    0.126314
    50  C   -0.273944
    51  H    0.148409
    52  H    0.129368
    53  C   -0.140861
    54  H    0.126697
    55  H    0.155452
    56  N   -0.714156
    57  H    0.309167
    58  H    0.302070
    59  O   -0.826010
    60  H    0.431449
    61  H    0.411409
    62  H    0.420442
 Sum of Mulliken charges =   1.00000
 Mulliken charges with hydrogens summed into heavy atoms:
               1
     1  N   -0.053821
     4  C    0.069012
     6  C    0.624766
     7  C    0.057670
    10  O   -0.553531
    11  C    0.045008
    14  C    0.584434
    15  O   -0.463489
    16  O   -0.139075
    17  N   -0.227466
    19  C    0.155597
    21  C    0.726587
    22  C    0.020494
    25  O   -0.458736
    26  C    0.142353
    27  C   -0.043572
    29  C   -0.099765
    31  C    0.040702
    33  C   -0.019469
    35  O   -0.204934
    37  C    0.363627
    38  N   -0.207522
    40  C    0.207767
    42  C    0.650741
    43  C    0.092625
    46  O   -0.366678
    47  C   -0.002375
    50  C    0.003832
    53  C    0.141288
    56  N   -0.102919
    59  O    0.016849
 Electronic spatial extent (au):  <R**2>=          18502.7540
 Charge=              1.0000 electrons
 Dipole moment (field-independent basis, Debye):
    X=              5.3409    Y=              1.5292    Z=             -1.8450  Tot=              5.8539
 Quadrupole moment (field-independent basis, Debye-Ang):
   XX=           -140.7403   YY=           -173.2789   ZZ=           -130.6256
   XY=             13.3788   XZ=            -29.0093   YZ=            -15.3146
 Traceless Quadrupole moment (field-independent basis, Debye-Ang):
   XX=              7.4746   YY=            -25.0639   ZZ=             17.5893
   XY=             13.3788   XZ=            -29.0093   YZ=            -15.3146
 Octapole moment (field-independent basis, Debye-Ang**2):
  XXX=           -281.8728  YYY=           -373.0849  ZZZ=            -43.3292  XYY=           -107.8268
  XXY=            -84.2780  XXZ=             38.8307  XZZ=             -3.7539  YZZ=            -98.4730
  YYZ=             94.5727  XYZ=            -34.6358
 Hexadecapole moment (field-independent basis, Debye-Ang**3):
 XXXX=          -5614.8636 YYYY=          -8307.0296 ZZZZ=          -7277.3485 XXXY=          -2027.4138
 XXXZ=           1036.1524 YYYX=          -2044.2479 YYYZ=           3202.8523 ZZZX=            973.1246
 ZZZY=           2951.1150 XXYY=          -1804.4246 XXZZ=          -2017.0356 YYZZ=          -2898.3193
 XXYZ=            481.4871 YYXZ=             79.7266 ZZXY=           -652.0988
 N-N= 3.290925180190D+03 E-N=-1.011302849823D+04  KE= 1.512290041276D+03
 Unable to Open any file for archive entry.
 1\1\GINC-AMR-148\SP\RB3LYP\6-31G(d)\C20H31N4O7(1+)\KENGMITH\02-Jun-202
 2\0\\# B3LYP/6-31G* empiricaldispersion=gd3 guess=read geom=check nosy
 mm integral(ultrafinegrid)\\Candidate Structure: Conf:306 Charge calc 
 in gas phase\\1,1\N,0,0.0863150372,-2.6089474341,3.9676078241\H,0,0.60
 40474551,-3.2254735806,3.3430196633\H,0,0.7711098002,-2.0560125813,4.4
 781184964\C,0,-0.8018541179,-1.7614180917,3.1945277591\H,0,-1.23123427
 47,-1.0093190753,3.870679429\C,0,-0.0955835204,-1.0353175169,2.0418542
 856\C,0,-1.9509573914,-2.5924987085,2.5808039326\H,0,-1.5260578356,-3.
 3340537022,1.8930241131\H,0,-2.5962520531,-1.9515217713,1.9690305349\O
 ,0,0.9434410332,-1.4544848112,1.5197346752\C,0,-2.7926018096,-3.300538
 5912,3.6407284941\H,0,-3.2350843956,-2.5842338313,4.3455893315\H,0,-2.
 1766699921,-3.9712215482,4.2474718627\C,0,-3.9167894606,-4.0900488813,
 3.0034032215\O,0,-4.1586098713,-4.1234889969,1.8158091586\O,0,-4.63340
 67355,-4.758794477,3.9307165924\N,0,-0.6739803125,0.096715985,1.554454
 8095\H,0,-1.5508402598,0.4284412194,1.9337604293\C,0,-0.18425719,0.691
 8984055,0.3200415996\H,0,-0.5496718493,1.7263316854,0.2978864689\C,0,1
 .3187332768,0.8484519638,0.4064068346\C,0,-0.6814849876,-0.0510905349,
 -0.9486237612\H,0,-0.3135279118,-1.0814070733,-0.9095769914\H,0,-1.772
 7843658,-0.1015735829,-0.858503145\O,0,1.8284984098,1.4569195088,1.454
 2471314\C,0,-0.2743406061,0.6310194071,-2.2401763693\C,0,-0.645174097,
 1.961410217,-2.4987500102\H,0,-1.3141581207,2.4823396299,-1.8172223452
 \C,0,0.5453009141,-0.0165492913,-3.1759111213\H,0,0.8030463738,-1.0653
 382476,-3.0352343353\C,0,-0.1837064691,2.6366660836,-3.6216673102\H,0,
 -0.4770253964,3.6610098158,-3.825180951\C,0,1.0314900134,0.6546543074,
 -4.3022909449\H,0,1.668953099,0.133760471,-5.0128317213\O,0,1.14929952
 35,2.734167187,-5.5573070343\H,0,1.6641668193,2.182054381,-6.167641135
 7\C,0,0.6817900246,1.9923026292,-4.5168854071\N,0,2.191620934,0.614383
 9336,-0.5333607951\H,0,1.9238145811,0.2812528564,-1.4577681615\C,0,3.5
 145931628,1.1570119176,-0.2137883441\H,0,4.2342865114,0.339859804,-0.1
 27271288\C,0,3.2629799028,1.69029433,1.186923095\C,0,3.9588716648,2.21
 97052317,-1.2359660104\H,0,4.9498525271,2.5720068311,-0.9301319333\H,0
 ,4.0929578108,1.6963140065,-2.1917870485\O,0,3.9298793362,2.2763836713
 ,1.960487515\C,0,2.9812150053,3.391263373,-1.4067964469\H,0,3.08418434
 43,4.0852346186,-0.562009844\H,0,1.9465694513,3.0206758535,-1.38622114
 \C,0,3.1752787474,4.1311275205,-2.7361411159\H,0,4.2031334128,4.510457
 6745,-2.8190198996\H,0,3.0369876288,3.4154728451,-3.559110954\C,0,2.17
 1266716,5.2854369904,-2.9230546655\H,0,1.1730600695,4.9319937343,-2.63
 09431547\H,0,2.4159804291,6.1028592119,-2.2330527871\N,0,2.0680678008,
 5.8354273728,-4.2698948267\H,0,1.8603912049,5.0912442327,-4.9350697399
 \H,0,2.9525684585,6.2506814005,-4.5565893237\O,0,3.6315380855,-0.83730
 25343,1.8088673679\H,0,2.7906782666,-1.3243820911,1.8844436666\H,0,4.0
 48082123,-0.8851628013,2.6817532643\H,0,-5.3377226506,-5.2403830912,3.
 4563466661\\Version=ES64L-G16RevC.01\HF=-1526.2467581\RMSD=8.544e-10\D
 ipole=0.9749864,-0.2158058,-0.4460783\Quadrupole=5.5572186,-18.6344305
 ,13.077212,9.9467832,-21.5676707,-11.3860278\PG=C01 [X(C20H31N4O7)]\\@
 The archive entry for this job was punched.


 FROM THE ASHES OF OUR DESPAIR GROW THE FLOWERS OF TOMORROW.
 Job cpu time:       0 days  0 hours  2 minutes 19.3 seconds.
 Elapsed time:       0 days  0 hours  0 minutes 35.2 seconds.
 File lengths (MBytes):  RWF=    264 Int=      0 D2E=      0 Chk=     40 Scr=     16
 Normal termination of Gaussian 16 at Thu Jun  2 00:17:52 2022.
