 Entering Gaussian System, Link 0=/opt/software/Gaussian/g16-AVX2-C.01/g16/g16
 Input=charge-conf-771.com
 Output=charge-conf-771.log
 Initial command:
 /opt/software/Gaussian/g16-AVX2-C.01/g16/l1.exe "/mnt/gs18/scratch/users/kengmith/Gau-27348.inp" -scrdir="/mnt/gs18/scratch/users/kengmith/"
 Entering Link 1 = /opt/software/Gaussian/g16-AVX2-C.01/g16/l1.exe PID=     27373.
  
 Copyright (c) 1988-2019, Gaussian, Inc.  All Rights Reserved.
  
 This is part of the Gaussian(R) 16 program.  It is based on
 the Gaussian(R) 09 system (copyright 2009, Gaussian, Inc.),
 the Gaussian(R) 03 system (copyright 2003, Gaussian, Inc.),
 the Gaussian(R) 98 system (copyright 1998, Gaussian, Inc.),
 the Gaussian(R) 94 system (copyright 1995, Gaussian, Inc.),
 the Gaussian 92(TM) system (copyright 1992, Gaussian, Inc.),
 the Gaussian 90(TM) system (copyright 1990, Gaussian, Inc.),
 the Gaussian 88(TM) system (copyright 1988, Gaussian, Inc.),
 the Gaussian 86(TM) system (copyright 1986, Carnegie Mellon
 University), and the Gaussian 82(TM) system (copyright 1983,
 Carnegie Mellon University). Gaussian is a federally registered
 trademark of Gaussian, Inc.
  
 This software contains proprietary and confidential information,
 including trade secrets, belonging to Gaussian, Inc.
  
 This software is provided under written license and may be
 used, copied, transmitted, or stored only in accord with that
 written license.
  
 The following legend is applicable only to US Government
 contracts under FAR:
  
                    RESTRICTED RIGHTS LEGEND
  
 Use, reproduction and disclosure by the US Government is
 subject to restrictions as set forth in subparagraphs (a)
 and (c) of the Commercial Computer Software - Restricted
 Rights clause in FAR 52.227-19.
  
 Gaussian, Inc.
 340 Quinnipiac St., Bldg. 40, Wallingford CT 06492
  
  
 ---------------------------------------------------------------
 Warning -- This program may not be used in any manner that
 competes with the business of Gaussian, Inc. or will provide
 assistance to any competitor of Gaussian, Inc.  The licensee
 of this program is prohibited from giving any competitor of
 Gaussian, Inc. access to this program.  By using this program,
 the user acknowledges that Gaussian, Inc. is engaged in the
 business of creating and licensing software in the field of
 computational chemistry and represents and warrants to the
 licensee that it is not a competitor of Gaussian, Inc. and that
 it will not use this program in any manner prohibited above.
 ---------------------------------------------------------------
  

 Cite this work as:
 Gaussian 16, Revision C.01,
 M. J. Frisch, G. W. Trucks, H. B. Schlegel, G. E. Scuseria, 
 M. A. Robb, J. R. Cheeseman, G. Scalmani, V. Barone, 
 G. A. Petersson, H. Nakatsuji, X. Li, M. Caricato, A. V. Marenich, 
 J. Bloino, B. G. Janesko, R. Gomperts, B. Mennucci, H. P. Hratchian, 
 J. V. Ortiz, A. F. Izmaylov, J. L. Sonnenberg, D. Williams-Young, 
 F. Ding, F. Lipparini, F. Egidi, J. Goings, B. Peng, A. Petrone, 
 T. Henderson, D. Ranasinghe, V. G. Zakrzewski, J. Gao, N. Rega, 
 G. Zheng, W. Liang, M. Hada, M. Ehara, K. Toyota, R. Fukuda, 
 J. Hasegawa, M. Ishida, T. Nakajima, Y. Honda, O. Kitao, H. Nakai, 
 T. Vreven, K. Throssell, J. A. Montgomery, Jr., J. E. Peralta, 
 F. Ogliaro, M. J. Bearpark, J. J. Heyd, E. N. Brothers, K. N. Kudin, 
 V. N. Staroverov, T. A. Keith, R. Kobayashi, J. Normand, 
 K. Raghavachari, A. P. Rendell, J. C. Burant, S. S. Iyengar, 
 J. Tomasi, M. Cossi, J. M. Millam, M. Klene, C. Adamo, R. Cammi, 
 J. W. Ochterski, R. L. Martin, K. Morokuma, O. Farkas, 
 J. B. Foresman, and D. J. Fox, Gaussian, Inc., Wallingford CT, 2019.
 
 ******************************************
 Gaussian 16:  ES64L-G16RevC.01  3-Jul-2019
                 2-Jun-2022 
 ******************************************
 %mem=8gb
 %nproc=4
 Will use up to    4 processors via shared memory.
 %chk=conf-771.chk
 ----------------------------------------------------------------------
 # B3LYP/6-31G* empiricaldispersion=gd3 guess=read geom=check nosymm in
 tegral(ultrafinegrid)
 ----------------------------------------------------------------------
 1/29=2,38=1,172=1/1;
 2/12=2,15=1,40=1/2;
 3/5=1,6=6,7=1,11=2,14=-4,25=1,30=1,74=-5,75=-5,116=-2,124=31/1,2,3;
 4/5=1/1;
 5/5=2,38=6/2;
 6/7=2,8=2,9=2,10=2,28=1/1;
 99/5=1,9=1/99;
 ------------------------------------------------------
 Candidate Structure: Conf:771 Charge calc in gas phase
 ------------------------------------------------------
 Structure from the checkpoint file:  "conf-771.chk"
 Charge =  1 Multiplicity = 1
 Redundant internal coordinates found in file.  (old form).
 N,0,-0.1299760911,-4.2576922305,3.8764460983
 H,0,0.2035128711,-4.8486195639,3.1156811572
 H,0,0.7104001365,-4.0328747077,4.405447682
 C,0,-0.6941588794,-3.0352701944,3.3205926866
 H,0,-0.7061854863,-2.2811382119,4.1194131057
 C,0,0.1994547266,-2.4436541847,2.1993104635
 C,0,-2.1758450699,-3.267115371,2.9312800696
 H,0,-2.6614676335,-2.3282229575,2.6398420984
 H,0,-2.6660443123,-3.6046520304,3.8480808103
 O,0,1.2440383066,-2.9801291283,1.8630361774
 C,0,-2.4208232848,-4.3159120841,1.8417922516
 H,0,-3.4497604802,-4.6930161059,1.9128899039
 H,0,-1.787506074,-5.1998127449,1.9694758662
 C,0,-2.2696173761,-3.7975842227,0.429089181
 O,0,-2.210964197,-2.6235663806,0.1033547089
 O,0,-2.241026497,-4.8013719989,-0.4643096133
 N,0,-0.2231040006,-1.2316806112,1.6783661703
 H,0,-1.2186284308,-1.0672199681,1.7499268782
 C,0,0.3747123609,-0.6044104904,0.5120721447
 H,0,-0.3610846168,0.1142475197,0.1366642767
 C,0,1.6081430721,0.1918579357,0.8756066539
 C,0,0.7318886819,-1.5557756996,-0.6926652027
 H,0,1.3582884579,-2.3591536969,-0.3063802863
 H,0,-0.226718659,-1.9857285064,-0.9952067681
 O,0,2.4520876427,-0.3460367198,1.6958106798
 C,0,1.4124229952,-0.8317512832,-1.8291057676
 C,0,0.692264738,-0.0083806855,-2.7105554089
 H,0,-0.3903160035,0.0587665815,-2.6190912238
 C,0,2.8007146305,-0.9204478506,-2.0002310751
 H,0,3.3805206159,-1.5671403156,-1.3451301023
 C,0,1.3305712489,0.7073269537,-3.7210674026
 H,0,0.7724552779,1.3318888201,-4.4110253298
 C,0,3.4562659147,-0.2105099165,-3.007298181
 H,0,4.5324561928,-0.3080883654,-3.1327829096
 O,0,3.2918355523,1.3514392148,-4.8612295754
 H,0,4.2469224082,1.1821113718,-4.8990168705
 C,0,2.7215698658,0.6113565064,-3.8711061355
 N,0,1.8313250314,1.3459693624,0.2790412056
 H,0,1.1061709411,1.6475063553,-0.3650408665
 C,0,3.1484603521,2.0013859793,0.0474528743
 H,0,3.8635934717,1.1944649357,-0.157630256
 C,0,3.6195827371,2.7474030065,1.3023243754
 C,0,3.0405840794,2.9289727584,-1.1652903242
 H,0,2.4024132074,2.439592406,-1.9088834209
 H,0,2.5567625554,3.8632406194,-0.8595207299
 O,0,3.7924460495,3.9266192213,1.4114396044
 C,0,4.3989737135,3.2162862013,-1.8144129708
 H,0,4.8613640587,2.2573925777,-2.0913980029
 H,0,5.0681563337,3.6991786709,-1.0915743269
 C,0,4.251163394,4.0959046714,-3.0614384229
 H,0,3.4652217639,3.6797613106,-3.7065889715
 H,0,3.9354615669,5.1068827567,-2.7795142077
 C,0,5.5450659313,4.1945511773,-3.8736613562
 H,0,6.3463419442,4.5944025037,-3.2392637383
 H,0,5.8613674956,3.1681046171,-4.1593769765
 N,0,5.3625845342,5.10704803,-4.998453695
 H,0,4.7210239354,4.7043427677,-5.679802236
 H,0,6.2439810008,5.2604225453,-5.4833517139
 O,0,3.8502007652,1.8522816868,2.3168847649
 H,0,3.1526209414,0.2868987398,2.0010217719
 H,0,4.1401295098,2.3325489233,3.1181736847
 H,0,-2.2100893578,-4.4061109608,-1.3561490667
 Recover connectivity data from disk.
                           ----------------------------
                           !    Current Parameters    !
                           ! (Angstroms and Degrees)  !
 --------------------------                            --------------------------
 ! Name  Definition              Value                                          !
 --------------------------------------------------------------------------------
 ! R1    R(1,2)                  1.0194                                         !
 ! R2    R(1,3)                  1.0181                                         !
 ! R3    R(1,4)                  1.4566                                         !
 ! R4    R(4,5)                  1.0986                                         !
 ! R5    R(4,6)                  1.5511                                         !
 ! R6    R(4,7)                  1.5494                                         !
 ! R7    R(6,10)                 1.2215                                         !
 ! R8    R(6,17)                 1.3852                                         !
 ! R9    R(7,8)                  1.0965                                         !
 ! R10   R(7,9)                  1.093                                          !
 ! R11   R(7,11)                 1.532                                          !
 ! R12   R(11,12)                1.0982                                         !
 ! R13   R(11,13)                1.0948                                         !
 ! R14   R(11,14)                1.5124                                         !
 ! R15   R(14,15)                1.2198                                         !
 ! R16   R(14,16)                1.3441                                         !
 ! R17   R(16,62)                0.976                                          !
 ! R18   R(17,18)                1.0116                                         !
 ! R19   R(17,19)                1.453                                          !
 ! R20   R(19,20)                1.0949                                         !
 ! R21   R(19,21)                1.5125                                         !
 ! R22   R(19,22)                1.5761                                         !
 ! R23   R(21,25)                1.294                                          !
 ! R24   R(21,38)                1.3182                                         !
 ! R25   R(22,23)                1.0895                                         !
 ! R26   R(22,24)                1.0933                                         !
 ! R27   R(22,26)                1.5096                                         !
 ! R28   R(26,27)                1.4048                                         !
 ! R29   R(26,29)                1.4016                                         !
 ! R30   R(27,28)                1.0885                                         !
 ! R31   R(27,31)                1.3931                                         !
 ! R32   R(29,30)                1.0879                                         !
 ! R33   R(29,33)                1.3957                                         !
 ! R34   R(31,32)                1.0852                                         !
 ! R35   R(31,37)                1.4024                                         !
 ! R36   R(33,34)                1.0879                                         !
 ! R37   R(33,37)                1.4005                                         !
 ! R38   R(35,36)                0.9707                                         !
 ! R39   R(35,37)                1.3613                                         !
 ! R40   R(38,39)                1.0157                                         !
 ! R41   R(38,40)                1.4893                                         !
 ! R42   R(40,41)                1.0975                                         !
 ! R43   R(40,42)                1.534                                          !
 ! R44   R(40,43)                1.5306                                         !
 ! R45   R(42,46)                1.1968                                         !
 ! R46   R(42,59)                1.3725                                         !
 ! R47   R(43,44)                1.0953                                         !
 ! R48   R(43,45)                1.0956                                         !
 ! R49   R(43,47)                1.5327                                         !
 ! R50   R(47,48)                1.1                                            !
 ! R51   R(47,49)                1.097                                          !
 ! R52   R(47,50)                1.5332                                         !
 ! R53   R(50,51)                1.0987                                         !
 ! R54   R(50,52)                1.096                                          !
 ! R55   R(50,53)                1.5309                                         !
 ! R56   R(53,54)                1.0974                                         !
 ! R57   R(53,55)                1.1114                                         !
 ! R58   R(53,56)                1.4598                                         !
 ! R59   R(56,57)                1.0188                                         !
 ! R60   R(56,58)                1.0176                                         !
 ! R61   R(59,60)                1.7426                                         !
 ! R62   R(59,61)                0.9782                                         !
 ! A1    A(2,1,3)              104.2249                                         !
 ! A2    A(2,1,4)              109.1726                                         !
 ! A3    A(3,1,4)              109.431                                          !
 ! A4    A(1,4,5)              107.6288                                         !
 ! A5    A(1,4,6)              111.8902                                         !
 ! A6    A(1,4,7)              109.9202                                         !
 ! A7    A(5,4,6)              105.6713                                         !
 ! A8    A(5,4,7)              105.9585                                         !
 ! A9    A(6,4,7)              115.2376                                         !
 ! A10   A(4,6,10)             121.6131                                         !
 ! A11   A(4,6,17)             115.4575                                         !
 ! A12   A(10,6,17)            122.793                                          !
 ! A13   A(4,7,8)              111.2344                                         !
 ! A14   A(4,7,9)              105.3268                                         !
 ! A15   A(4,7,11)             115.7246                                         !
 ! A16   A(8,7,9)              106.7821                                         !
 ! A17   A(8,7,11)             109.0481                                         !
 ! A18   A(9,7,11)             108.2625                                         !
 ! A19   A(7,11,12)            109.8083                                         !
 ! A20   A(7,11,13)            112.1642                                         !
 ! A21   A(7,11,14)            114.4361                                         !
 ! A22   A(12,11,13)           104.9043                                         !
 ! A23   A(12,11,14)           105.7739                                         !
 ! A24   A(13,11,14)           109.1352                                         !
 ! A25   A(11,14,15)           125.741                                          !
 ! A26   A(11,14,16)           111.5343                                         !
 ! A27   A(15,14,16)           122.7025                                         !
 ! A28   A(14,16,62)           107.7944                                         !
 ! A29   A(6,17,18)            114.5735                                         !
 ! A30   A(6,17,19)            123.6481                                         !
 ! A31   A(18,17,19)           113.0494                                         !
 ! A32   A(17,19,20)           106.3849                                         !
 ! A33   A(17,19,21)           111.7088                                         !
 ! A34   A(17,19,22)           116.5014                                         !
 ! A35   A(20,19,21)           106.5526                                         !
 ! A36   A(20,19,22)           106.6432                                         !
 ! A37   A(21,19,22)           108.4637                                         !
 ! A38   A(19,21,25)           117.736                                          !
 ! A39   A(19,21,38)           119.3556                                         !
 ! A40   A(25,21,38)           122.7102                                         !
 ! A41   A(19,22,23)           107.721                                          !
 ! A42   A(19,22,24)           104.4894                                         !
 ! A43   A(19,22,26)           112.8361                                         !
 ! A44   A(23,22,24)           108.1941                                         !
 ! A45   A(23,22,26)           111.1854                                         !
 ! A46   A(24,22,26)           112.0591                                         !
 ! A47   A(22,26,27)           121.4907                                         !
 ! A48   A(22,26,29)           120.5366                                         !
 ! A49   A(27,26,29)           117.9206                                         !
 ! A50   A(26,27,28)           119.556                                          !
 ! A51   A(26,27,31)           121.4227                                         !
 ! A52   A(28,27,31)           119.0088                                         !
 ! A53   A(26,29,30)           119.4714                                         !
 ! A54   A(26,29,33)           121.4089                                         !
 ! A55   A(30,29,33)           119.1133                                         !
 ! A56   A(27,31,32)           121.4136                                         !
 ! A57   A(27,31,37)           119.7964                                         !
 ! A58   A(32,31,37)           118.7838                                         !
 ! A59   A(29,33,34)           120.1497                                         !
 ! A60   A(29,33,37)           119.8114                                         !
 ! A61   A(34,33,37)           120.0302                                         !
 ! A62   A(36,35,37)           110.2206                                         !
 ! A63   A(31,37,33)           119.6379                                         !
 ! A64   A(31,37,35)           117.1368                                         !
 ! A65   A(33,37,35)           123.221                                          !
 ! A66   A(21,38,39)           115.2158                                         !
 ! A67   A(21,38,40)           127.2579                                         !
 ! A68   A(39,38,40)           113.7131                                         !
 ! A69   A(38,40,41)           106.365                                          !
 ! A70   A(38,40,42)           111.0036                                         !
 ! A71   A(38,40,43)           109.1215                                         !
 ! A72   A(41,40,42)           108.0766                                         !
 ! A73   A(41,40,43)           110.0855                                         !
 ! A74   A(42,40,43)           112.0287                                         !
 ! A75   A(40,42,46)           126.7347                                         !
 ! A76   A(40,42,59)           109.8239                                         !
 ! A77   A(46,42,59)           123.4311                                         !
 ! A78   A(40,43,44)           107.9506                                         !
 ! A79   A(40,43,45)           109.0725                                         !
 ! A80   A(40,43,47)           112.7495                                         !
 ! A81   A(44,43,45)           108.2502                                         !
 ! A82   A(44,43,47)           108.217                                          !
 ! A83   A(45,43,47)           110.47                                           !
 ! A84   A(43,47,48)           108.4082                                         !
 ! A85   A(43,47,49)           110.1257                                         !
 ! A86   A(43,47,50)           111.5046                                         !
 ! A87   A(48,47,49)           107.0505                                         !
 ! A88   A(48,47,50)           109.6238                                         !
 ! A89   A(49,47,50)           110.0104                                         !
 ! A90   A(47,50,51)           109.2243                                         !
 ! A91   A(47,50,52)           110.3506                                         !
 ! A92   A(47,50,53)           112.7691                                         !
 ! A93   A(51,50,52)           107.12                                           !
 ! A94   A(51,50,53)           108.5102                                         !
 ! A95   A(52,50,53)           108.6928                                         !
 ! A96   A(50,53,54)           109.5046                                         !
 ! A97   A(50,53,55)           108.5067                                         !
 ! A98   A(50,53,56)           110.0852                                         !
 ! A99   A(54,53,55)           106.0995                                         !
 ! A100  A(54,53,56)           107.9943                                         !
 ! A101  A(55,53,56)           114.5054                                         !
 ! A102  A(53,56,57)           110.2991                                         !
 ! A103  A(53,56,58)           110.6765                                         !
 ! A104  A(57,56,58)           106.6381                                         !
 ! A105  A(42,59,60)           112.6187                                         !
 ! A106  A(42,59,61)           109.5807                                         !
 ! A107  A(60,59,61)           135.0873                                         !
 ! D1    D(2,1,4,5)           -159.7739                                         !
 ! D2    D(2,1,4,6)            -44.1074                                         !
 ! D3    D(2,1,4,7)             85.2647                                         !
 ! D4    D(3,1,4,5)            -46.2877                                         !
 ! D5    D(3,1,4,6)             69.3788                                         !
 ! D6    D(3,1,4,7)           -161.2491                                         !
 ! D7    D(1,4,6,10)            -0.0747                                         !
 ! D8    D(1,4,6,17)          -175.9422                                         !
 ! D9    D(5,4,6,10)           116.7785                                         !
 ! D10   D(5,4,6,17)           -59.0891                                         !
 ! D11   D(7,4,6,10)          -126.6106                                         !
 ! D12   D(7,4,6,17)            57.5218                                         !
 ! D13   D(1,4,7,8)            172.1881                                         !
 ! D14   D(1,4,7,9)             56.8676                                         !
 ! D15   D(1,4,7,11)           -62.6519                                         !
 ! D16   D(5,4,7,8)             56.1694                                         !
 ! D17   D(5,4,7,9)            -59.1512                                         !
 ! D18   D(5,4,7,11)          -178.6706                                         !
 ! D19   D(6,4,7,8)            -60.2786                                         !
 ! D20   D(6,4,7,9)           -175.5991                                         !
 ! D21   D(6,4,7,11)            64.8814                                         !
 ! D22   D(4,6,17,18)          -26.4961                                         !
 ! D23   D(4,6,17,19)         -171.7345                                         !
 ! D24   D(10,6,17,18)         157.6904                                         !
 ! D25   D(10,6,17,19)          12.452                                          !
 ! D26   D(4,7,11,12)          157.6697                                         !
 ! D27   D(4,7,11,13)           41.4432                                         !
 ! D28   D(4,7,11,14)          -83.5777                                         !
 ! D29   D(8,7,11,12)          -76.055                                          !
 ! D30   D(8,7,11,13)          167.7186                                         !
 ! D31   D(8,7,11,14)           42.6976                                         !
 ! D32   D(9,7,11,12)           39.7682                                         !
 ! D33   D(9,7,11,13)          -76.4583                                         !
 ! D34   D(9,7,11,14)          158.5207                                         !
 ! D35   D(7,11,14,15)         -13.5692                                         !
 ! D36   D(7,11,14,16)         168.1177                                         !
 ! D37   D(12,11,14,15)        107.4372                                         !
 ! D38   D(12,11,14,16)        -70.8759                                         !
 ! D39   D(13,11,14,15)       -140.1726                                         !
 ! D40   D(13,11,14,16)         41.5143                                         !
 ! D41   D(11,14,16,62)        175.8288                                         !
 ! D42   D(15,14,16,62)         -2.5441                                         !
 ! D43   D(6,17,19,20)         160.3045                                         !
 ! D44   D(6,17,19,21)         -83.803                                          !
 ! D45   D(6,17,19,22)          41.6064                                         !
 ! D46   D(18,17,19,20)         14.6033                                         !
 ! D47   D(18,17,19,21)        130.4958                                         !
 ! D48   D(18,17,19,22)       -104.0948                                         !
 ! D49   D(17,19,21,25)         43.946                                          !
 ! D50   D(17,19,21,38)       -141.0293                                         !
 ! D51   D(20,19,21,25)        159.7362                                         !
 ! D52   D(20,19,21,38)        -25.2392                                         !
 ! D53   D(22,19,21,25)        -85.792                                          !
 ! D54   D(22,19,21,38)         89.2326                                         !
 ! D55   D(17,19,22,23)        -53.9051                                         !
 ! D56   D(17,19,22,24)         61.0012                                         !
 ! D57   D(17,19,22,26)       -177.0129                                         !
 ! D58   D(20,19,22,23)       -172.4629                                         !
 ! D59   D(20,19,22,24)        -57.5565                                         !
 ! D60   D(20,19,22,26)         64.4294                                         !
 ! D61   D(21,19,22,23)         73.1248                                         !
 ! D62   D(21,19,22,24)       -171.9689                                         !
 ! D63   D(21,19,22,26)        -49.9829                                         !
 ! D64   D(19,21,38,39)          3.3265                                         !
 ! D65   D(19,21,38,40)       -153.1186                                         !
 ! D66   D(25,21,38,39)        178.0921                                         !
 ! D67   D(25,21,38,40)         21.647                                          !
 ! D68   D(19,22,26,27)        -75.7781                                         !
 ! D69   D(19,22,26,29)        101.5404                                         !
 ! D70   D(23,22,26,27)        163.0627                                         !
 ! D71   D(23,22,26,29)        -19.6189                                         !
 ! D72   D(24,22,26,27)         41.8392                                         !
 ! D73   D(24,22,26,29)       -140.8423                                         !
 ! D74   D(22,26,27,28)         -4.2843                                         !
 ! D75   D(22,26,27,31)        177.0173                                         !
 ! D76   D(29,26,27,28)        178.3296                                         !
 ! D77   D(29,26,27,31)         -0.3688                                         !
 ! D78   D(22,26,29,30)          3.8761                                         !
 ! D79   D(22,26,29,33)       -177.0517                                         !
 ! D80   D(27,26,29,30)       -178.7117                                         !
 ! D81   D(27,26,29,33)          0.3604                                         !
 ! D82   D(26,27,31,32)        179.0887                                         !
 ! D83   D(26,27,31,37)          0.0057                                         !
 ! D84   D(28,27,31,32)          0.3834                                         !
 ! D85   D(28,27,31,37)       -178.6996                                         !
 ! D86   D(26,29,33,34)       -178.9209                                         !
 ! D87   D(26,29,33,37)          0.0106                                         !
 ! D88   D(30,29,33,34)          0.1545                                         !
 ! D89   D(30,29,33,37)        179.086                                          !
 ! D90   D(27,31,37,33)          0.3748                                         !
 ! D91   D(27,31,37,35)       -178.8961                                         !
 ! D92   D(32,31,37,33)       -178.7323                                         !
 ! D93   D(32,31,37,35)          1.9968                                         !
 ! D94   D(29,33,37,31)         -0.3829                                         !
 ! D95   D(29,33,37,35)        178.8415                                         !
 ! D96   D(34,33,37,31)        178.5499                                         !
 ! D97   D(34,33,37,35)         -2.2258                                         !
 ! D98   D(36,35,37,31)       -177.6713                                         !
 ! D99   D(36,35,37,33)          3.0862                                         !
 ! D100  D(21,38,40,41)         35.8008                                         !
 ! D101  D(21,38,40,42)        -81.5315                                         !
 ! D102  D(21,38,40,43)        154.5276                                         !
 ! D103  D(39,38,40,41)       -120.9403                                         !
 ! D104  D(39,38,40,42)        121.7275                                         !
 ! D105  D(39,38,40,43)         -2.2134                                         !
 ! D106  D(38,40,42,46)       -116.4116                                         !
 ! D107  D(38,40,42,59)         64.7296                                         !
 ! D108  D(41,40,42,46)        127.3061                                         !
 ! D109  D(41,40,42,59)        -51.5527                                         !
 ! D110  D(43,40,42,46)          5.8553                                         !
 ! D111  D(43,40,42,59)       -173.0035                                         !
 ! D112  D(38,40,43,44)        -38.1023                                         !
 ! D113  D(38,40,43,45)         79.3054                                         !
 ! D114  D(38,40,43,47)       -157.5863                                         !
 ! D115  D(41,40,43,44)         78.276                                          !
 ! D116  D(41,40,43,45)       -164.3163                                         !
 ! D117  D(41,40,43,47)        -41.208                                          !
 ! D118  D(42,40,43,44)       -161.4358                                         !
 ! D119  D(42,40,43,45)        -44.028                                          !
 ! D120  D(42,40,43,47)         79.0802                                         !
 ! D121  D(40,42,59,60)        -15.0776                                         !
 ! D122  D(40,42,59,61)       -179.3334                                         !
 ! D123  D(46,42,59,60)        166.0183                                         !
 ! D124  D(46,42,59,61)          1.7625                                         !
 ! D125  D(40,43,47,48)         56.6916                                         !
 ! D126  D(40,43,47,49)        -60.1218                                         !
 ! D127  D(40,43,47,50)        177.4599                                         !
 ! D128  D(44,43,47,48)        -62.638                                          !
 ! D129  D(44,43,47,49)       -179.4514                                         !
 ! D130  D(44,43,47,50)         58.1303                                         !
 ! D131  D(45,43,47,48)        179.0178                                         !
 ! D132  D(45,43,47,49)         62.2044                                         !
 ! D133  D(45,43,47,50)        -60.2139                                         !
 ! D134  D(43,47,50,51)        -48.943                                          !
 ! D135  D(43,47,50,52)         68.5639                                         !
 ! D136  D(43,47,50,53)       -169.6735                                         !
 ! D137  D(48,47,50,51)         71.1116                                         !
 ! D138  D(48,47,50,52)       -171.3816                                         !
 ! D139  D(48,47,50,53)        -49.6189                                         !
 ! D140  D(49,47,50,51)       -171.4275                                         !
 ! D141  D(49,47,50,52)        -53.9207                                         !
 ! D142  D(49,47,50,53)         67.842                                          !
 ! D143  D(47,50,53,54)        -57.9871                                         !
 ! D144  D(47,50,53,55)         57.404                                          !
 ! D145  D(47,50,53,56)       -176.5726                                         !
 ! D146  D(51,50,53,54)       -179.1248                                         !
 ! D147  D(51,50,53,55)        -63.7338                                         !
 ! D148  D(51,50,53,56)         62.2897                                         !
 ! D149  D(52,50,53,54)         64.7079                                         !
 ! D150  D(52,50,53,55)       -179.9011                                         !
 ! D151  D(52,50,53,56)        -53.8776                                         !
 ! D152  D(50,53,56,57)        -68.5569                                         !
 ! D153  D(50,53,56,58)        173.6746                                         !
 ! D154  D(54,53,56,57)        171.9344                                         !
 ! D155  D(54,53,56,58)         54.166                                          !
 ! D156  D(55,53,56,57)         53.9979                                         !
 ! D157  D(55,53,56,58)        -63.7705                                         !
 --------------------------------------------------------------------------------
 Symmetry turned off by external request.
 Stoichiometry    C20H31N4O7(1+)
 Framework group  C1[X(C20H31N4O7)]
 Deg. of freedom   180
 Full point group                 C1      NOp   1
                          Input orientation:                          
 ---------------------------------------------------------------------
 Center     Atomic      Atomic             Coordinates (Angstroms)
 Number     Number       Type             X           Y           Z
 ---------------------------------------------------------------------
      1          7           0       -0.129976   -4.257692    3.876446
      2          1           0        0.203513   -4.848620    3.115681
      3          1           0        0.710400   -4.032875    4.405448
      4          6           0       -0.694159   -3.035270    3.320593
      5          1           0       -0.706185   -2.281138    4.119413
      6          6           0        0.199455   -2.443654    2.199310
      7          6           0       -2.175845   -3.267115    2.931280
      8          1           0       -2.661468   -2.328223    2.639842
      9          1           0       -2.666044   -3.604652    3.848081
     10          8           0        1.244038   -2.980129    1.863036
     11          6           0       -2.420823   -4.315912    1.841792
     12          1           0       -3.449760   -4.693016    1.912890
     13          1           0       -1.787506   -5.199813    1.969476
     14          6           0       -2.269617   -3.797584    0.429089
     15          8           0       -2.210964   -2.623566    0.103355
     16          8           0       -2.241026   -4.801372   -0.464310
     17          7           0       -0.223104   -1.231681    1.678366
     18          1           0       -1.218628   -1.067220    1.749927
     19          6           0        0.374712   -0.604410    0.512072
     20          1           0       -0.361085    0.114248    0.136664
     21          6           0        1.608143    0.191858    0.875607
     22          6           0        0.731889   -1.555776   -0.692665
     23          1           0        1.358288   -2.359154   -0.306380
     24          1           0       -0.226719   -1.985729   -0.995207
     25          8           0        2.452088   -0.346037    1.695811
     26          6           0        1.412423   -0.831751   -1.829106
     27          6           0        0.692265   -0.008381   -2.710555
     28          1           0       -0.390316    0.058767   -2.619091
     29          6           0        2.800715   -0.920448   -2.000231
     30          1           0        3.380521   -1.567140   -1.345130
     31          6           0        1.330571    0.707327   -3.721067
     32          1           0        0.772455    1.331889   -4.411025
     33          6           0        3.456266   -0.210510   -3.007298
     34          1           0        4.532456   -0.308088   -3.132783
     35          8           0        3.291836    1.351439   -4.861230
     36          1           0        4.246922    1.182111   -4.899017
     37          6           0        2.721570    0.611357   -3.871106
     38          7           0        1.831325    1.345969    0.279041
     39          1           0        1.106171    1.647506   -0.365041
     40          6           0        3.148460    2.001386    0.047453
     41          1           0        3.863593    1.194465   -0.157630
     42          6           0        3.619583    2.747403    1.302324
     43          6           0        3.040584    2.928973   -1.165290
     44          1           0        2.402413    2.439592   -1.908883
     45          1           0        2.556763    3.863241   -0.859521
     46          8           0        3.792446    3.926619    1.411440
     47          6           0        4.398974    3.216286   -1.814413
     48          1           0        4.861364    2.257393   -2.091398
     49          1           0        5.068156    3.699179   -1.091574
     50          6           0        4.251163    4.095905   -3.061438
     51          1           0        3.465222    3.679761   -3.706589
     52          1           0        3.935462    5.106883   -2.779514
     53          6           0        5.545066    4.194551   -3.873661
     54          1           0        6.346342    4.594403   -3.239264
     55          1           0        5.861367    3.168105   -4.159377
     56          7           0        5.362585    5.107048   -4.998454
     57          1           0        4.721024    4.704343   -5.679802
     58          1           0        6.243981    5.260423   -5.483352
     59          8           0        3.850201    1.852282    2.316885
     60          1           0        3.152621    0.286899    2.001022
     61          1           0        4.140130    2.332549    3.118174
     62          1           0       -2.210089   -4.406111   -1.356149
 ---------------------------------------------------------------------
 Rotational constants (GHZ):           0.2612119           0.0714425           0.0600666
 Standard basis: 6-31G(d) (6D, 7F)
   527 basis functions,   992 primitive gaussians,   527 cartesian basis functions
   117 alpha electrons      117 beta electrons
       nuclear repulsion energy      3314.1483984340 Hartrees.
 NAtoms=   62 NActive=   62 NUniq=   62 SFac= 1.00D+00 NAtFMM=   60 NAOKFM=T Big=T
 Integral buffers will be    131072 words long.
 Raffenetti 2 integral format.
 Two-electron integral symmetry is turned off.
 Nuclear repulsion after empirical dispersion term =     3314.0650542779 Hartrees.
 One-electron integrals computed using PRISM.
 NBasis=   527 RedAO= T EigKep=  4.26D-04  NBF=   527
 NBsUse=   527 1.00D-06 EigRej= -1.00D+00 NBFU=   527
 Initial guess from the checkpoint file:  "conf-771.chk"
 B after Tr=     0.000000    0.000000    0.000000
         Rot=    1.000000    0.000000    0.000000    0.000000 Ang=   0.00 deg.
 Requested convergence on RMS density matrix=1.00D-08 within 128 cycles.
 Requested convergence on MAX density matrix=1.00D-06.
 Requested convergence on             energy=1.00D-06.
 No special actions if energy rises.
 SCF Done:  E(RB3LYP) =  -1526.25030471     A.U. after    2 cycles
            NFock=  2  Conv=0.71D-08     -V/T= 2.0093

 **********************************************************************

            Population analysis using the SCF Density.

 **********************************************************************

 Alpha  occ. eigenvalues --  -19.37345 -19.36327 -19.29871 -19.29323 -19.28977
 Alpha  occ. eigenvalues --  -19.24301 -19.22831 -14.56414 -14.47627 -14.39977
 Alpha  occ. eigenvalues --  -14.38464 -10.49446 -10.47805 -10.42218 -10.40384
 Alpha  occ. eigenvalues --  -10.39306 -10.39047 -10.36566 -10.32114 -10.31839
 Alpha  occ. eigenvalues --  -10.31148 -10.31029 -10.30939 -10.30874 -10.30668
 Alpha  occ. eigenvalues --  -10.30112 -10.29426 -10.29395 -10.29007 -10.28714
 Alpha  occ. eigenvalues --  -10.26796  -1.28232  -1.26073  -1.20468  -1.17815
 Alpha  occ. eigenvalues --   -1.17091  -1.14717  -1.13315  -1.11442  -1.04742
 Alpha  occ. eigenvalues --   -0.97933  -0.97234  -0.96038  -0.95404  -0.91380
 Alpha  occ. eigenvalues --   -0.88464  -0.88243  -0.86458  -0.86114  -0.82460
 Alpha  occ. eigenvalues --   -0.81491  -0.80658  -0.77849  -0.77493  -0.75181
 Alpha  occ. eigenvalues --   -0.73961  -0.73526  -0.71474  -0.70640  -0.69817
 Alpha  occ. eigenvalues --   -0.67889  -0.67484  -0.67237  -0.66268  -0.65832
 Alpha  occ. eigenvalues --   -0.64136  -0.63093  -0.61877  -0.61217  -0.60241
 Alpha  occ. eigenvalues --   -0.59823  -0.59028  -0.58937  -0.58342  -0.57697
 Alpha  occ. eigenvalues --   -0.57430  -0.57105  -0.56731  -0.56210  -0.55464
 Alpha  occ. eigenvalues --   -0.55350  -0.54479  -0.53686  -0.53374  -0.53212
 Alpha  occ. eigenvalues --   -0.53049  -0.52295  -0.51891  -0.51107  -0.50837
 Alpha  occ. eigenvalues --   -0.50696  -0.50315  -0.49632  -0.49367  -0.48540
 Alpha  occ. eigenvalues --   -0.48235  -0.47886  -0.47529  -0.46975  -0.46027
 Alpha  occ. eigenvalues --   -0.45818  -0.45068  -0.44872  -0.44337  -0.44204
 Alpha  occ. eigenvalues --   -0.43380  -0.42931  -0.42542  -0.41859  -0.41796
 Alpha  occ. eigenvalues --   -0.38659  -0.37321  -0.37054  -0.35877  -0.33288
 Alpha  occ. eigenvalues --   -0.33011  -0.30683
 Alpha virt. eigenvalues --   -0.18716  -0.15349  -0.12586  -0.11136  -0.09990
 Alpha virt. eigenvalues --   -0.08401  -0.07809  -0.06696  -0.05366  -0.03648
 Alpha virt. eigenvalues --   -0.02988  -0.01943  -0.01356  -0.00709  -0.00250
 Alpha virt. eigenvalues --    0.00849   0.00933   0.01921   0.02134   0.02841
 Alpha virt. eigenvalues --    0.03470   0.03604   0.04035   0.04336   0.04562
 Alpha virt. eigenvalues --    0.04868   0.06015   0.06523   0.07248   0.07862
 Alpha virt. eigenvalues --    0.08165   0.08413   0.08516   0.08872   0.09321
 Alpha virt. eigenvalues --    0.09701   0.09827   0.10082   0.10315   0.11031
 Alpha virt. eigenvalues --    0.11081   0.11647   0.12078   0.12264   0.12588
 Alpha virt. eigenvalues --    0.13037   0.13866   0.13982   0.14311   0.15486
 Alpha virt. eigenvalues --    0.16250   0.16465   0.17540   0.17738   0.19036
 Alpha virt. eigenvalues --    0.20080   0.20298   0.20654   0.21628   0.22085
 Alpha virt. eigenvalues --    0.22786   0.23405   0.25142   0.25899   0.27425
 Alpha virt. eigenvalues --    0.28025   0.31146   0.32967   0.34891   0.35474
 Alpha virt. eigenvalues --    0.37384   0.38494   0.38777   0.39552   0.40136
 Alpha virt. eigenvalues --    0.40441   0.41422   0.41962   0.42408   0.43339
 Alpha virt. eigenvalues --    0.44341   0.44644   0.45469   0.46032   0.46322
 Alpha virt. eigenvalues --    0.46779   0.47622   0.48056   0.48566   0.48924
 Alpha virt. eigenvalues --    0.49784   0.50083   0.50320   0.51037   0.51453
 Alpha virt. eigenvalues --    0.52277   0.52749   0.53097   0.53578   0.53825
 Alpha virt. eigenvalues --    0.54346   0.55036   0.55805   0.56094   0.56945
 Alpha virt. eigenvalues --    0.57013   0.58434   0.58763   0.59478   0.60238
 Alpha virt. eigenvalues --    0.60839   0.61333   0.62009   0.62835   0.63209
 Alpha virt. eigenvalues --    0.63958   0.63977   0.65288   0.65715   0.66510
 Alpha virt. eigenvalues --    0.66712   0.66797   0.67358   0.68120   0.69158
 Alpha virt. eigenvalues --    0.69647   0.69901   0.70946   0.71362   0.71736
 Alpha virt. eigenvalues --    0.72156   0.72490   0.73411   0.73542   0.73994
 Alpha virt. eigenvalues --    0.74523   0.74953   0.75653   0.76128   0.76164
 Alpha virt. eigenvalues --    0.76486   0.76924   0.77717   0.77872   0.78926
 Alpha virt. eigenvalues --    0.79103   0.79530   0.80332   0.80470   0.80691
 Alpha virt. eigenvalues --    0.81507   0.82077   0.82442   0.82887   0.83637
 Alpha virt. eigenvalues --    0.83915   0.84423   0.84633   0.84925   0.85441
 Alpha virt. eigenvalues --    0.86144   0.86669   0.86903   0.86957   0.87541
 Alpha virt. eigenvalues --    0.88070   0.88398   0.89278   0.89718   0.89860
 Alpha virt. eigenvalues --    0.91694   0.91862   0.92575   0.93238   0.94321
 Alpha virt. eigenvalues --    0.95047   0.95481   0.96680   0.97287   0.98477
 Alpha virt. eigenvalues --    0.99597   1.00241   1.00833   1.02167   1.03303
 Alpha virt. eigenvalues --    1.04161   1.04991   1.05372   1.07242   1.07952
 Alpha virt. eigenvalues --    1.09037   1.09392   1.10831   1.11626   1.13284
 Alpha virt. eigenvalues --    1.14001   1.15285   1.15520   1.17354   1.17627
 Alpha virt. eigenvalues --    1.18926   1.19801   1.20611   1.21854   1.23880
 Alpha virt. eigenvalues --    1.25442   1.25984   1.26847   1.26911   1.28028
 Alpha virt. eigenvalues --    1.29614   1.31557   1.31869   1.32438   1.33897
 Alpha virt. eigenvalues --    1.34152   1.34835   1.35713   1.35941   1.36751
 Alpha virt. eigenvalues --    1.37784   1.39645   1.39987   1.40538   1.41505
 Alpha virt. eigenvalues --    1.43248   1.43654   1.45549   1.46950   1.47537
 Alpha virt. eigenvalues --    1.49149   1.49975   1.50512   1.52487   1.53178
 Alpha virt. eigenvalues --    1.53744   1.55368   1.56699   1.58005   1.58472
 Alpha virt. eigenvalues --    1.59674   1.60951   1.61686   1.62343   1.63174
 Alpha virt. eigenvalues --    1.64478   1.64683   1.64886   1.66284   1.66689
 Alpha virt. eigenvalues --    1.67194   1.67966   1.68505   1.69103   1.70350
 Alpha virt. eigenvalues --    1.70811   1.71159   1.72594   1.73884   1.74061
 Alpha virt. eigenvalues --    1.74519   1.75204   1.75935   1.76827   1.77351
 Alpha virt. eigenvalues --    1.78611   1.78813   1.79735   1.80692   1.81143
 Alpha virt. eigenvalues --    1.82516   1.83105   1.83885   1.84632   1.84849
 Alpha virt. eigenvalues --    1.85466   1.86047   1.86355   1.87316   1.87937
 Alpha virt. eigenvalues --    1.88376   1.88895   1.89562   1.90116   1.90756
 Alpha virt. eigenvalues --    1.91376   1.91572   1.92896   1.94245   1.94940
 Alpha virt. eigenvalues --    1.95715   1.96222   1.96807   1.99308   1.99994
 Alpha virt. eigenvalues --    2.00824   2.01511   2.02350   2.03577   2.04184
 Alpha virt. eigenvalues --    2.04636   2.04738   2.06449   2.08826   2.12830
 Alpha virt. eigenvalues --    2.13319   2.14230   2.15812   2.15954   2.17260
 Alpha virt. eigenvalues --    2.17874   2.18849   2.20219   2.20535   2.21269
 Alpha virt. eigenvalues --    2.21662   2.23048   2.23544   2.25746   2.26173
 Alpha virt. eigenvalues --    2.26758   2.27715   2.28925   2.29694   2.30187
 Alpha virt. eigenvalues --    2.31394   2.31561   2.32401   2.34332   2.35916
 Alpha virt. eigenvalues --    2.36446   2.37613   2.38002   2.38822   2.40365
 Alpha virt. eigenvalues --    2.41731   2.42741   2.42955   2.44600   2.47186
 Alpha virt. eigenvalues --    2.47650   2.48948   2.50011   2.50895   2.51107
 Alpha virt. eigenvalues --    2.52133   2.52884   2.54097   2.54288   2.55776
 Alpha virt. eigenvalues --    2.55969   2.56692   2.57486   2.59545   2.62748
 Alpha virt. eigenvalues --    2.63986   2.66201   2.67758   2.67847   2.69437
 Alpha virt. eigenvalues --    2.71300   2.72615   2.74835   2.76806   2.78653
 Alpha virt. eigenvalues --    2.79218   2.80481   2.84241   2.85454   2.86211
 Alpha virt. eigenvalues --    2.88805   2.90495   2.93796   2.95773   2.99055
 Alpha virt. eigenvalues --    2.99543   3.00633   3.03475   3.30027   3.70551
 Alpha virt. eigenvalues --    3.71212   3.74401   3.75280   3.82849   3.90799
 Alpha virt. eigenvalues --    3.92618   3.95446   3.98632   4.03560   4.05010
 Alpha virt. eigenvalues --    4.05871   4.08955   4.10928   4.13430   4.16883
 Alpha virt. eigenvalues --    4.19543   4.20005   4.21239   4.25304   4.27514
 Alpha virt. eigenvalues --    4.30673   4.36447   4.37905   4.39136   4.44690
 Alpha virt. eigenvalues --    4.45626   4.52061   4.52905   4.58258   4.66045
          Condensed to atoms (all electrons):
 Mulliken charges:
               1
     1  N   -0.686906
     2  H    0.314331
     3  H    0.315931
     4  C   -0.096257
     5  H    0.170707
     6  C    0.581910
     7  C   -0.264959
     8  H    0.145034
     9  H    0.187146
    10  O   -0.502311
    11  C   -0.366099
    12  H    0.209408
    13  H    0.200224
    14  C    0.590179
    15  O   -0.500728
    16  O   -0.542877
    17  N   -0.602413
    18  H    0.359221
    19  C   -0.048629
    20  H    0.179471
    21  C    0.646033
    22  C   -0.391574
    23  H    0.224194
    24  H    0.205956
    25  O   -0.529138
    26  C    0.137736
    27  C   -0.222760
    28  H    0.152969
    29  C   -0.215549
    30  H    0.157263
    31  C   -0.164291
    32  H    0.173571
    33  C   -0.194525
    34  H    0.149826
    35  O   -0.631255
    36  H    0.423850
    37  C    0.363644
    38  N   -0.557583
    39  H    0.388502
    40  C   -0.075156
    41  H    0.212823
    42  C    0.643517
    43  C   -0.323688
    44  H    0.170703
    45  H    0.191632
    46  O   -0.385965
    47  C   -0.281073
    48  H    0.128716
    49  H    0.166725
    50  C   -0.265875
    51  H    0.148877
    52  H    0.168911
    53  C   -0.129599
    54  H    0.152214
    55  H    0.085161
    56  N   -0.711248
    57  H    0.300501
    58  H    0.310345
    59  O   -0.622076
    60  H    0.481112
    61  H    0.455699
    62  H    0.418487
 Sum of Mulliken charges =   1.00000
 Mulliken charges with hydrogens summed into heavy atoms:
               1
     1  N   -0.056644
     4  C    0.074450
     6  C    0.581910
     7  C    0.067221
    10  O   -0.502311
    11  C    0.043534
    14  C    0.590179
    15  O   -0.500728
    16  O   -0.124390
    17  N   -0.243192
    19  C    0.130842
    21  C    0.646033
    22  C    0.038576
    25  O   -0.048026
    26  C    0.137736
    27  C   -0.069791
    29  C   -0.058286
    31  C    0.009279
    33  C   -0.044699
    35  O   -0.207405
    37  C    0.363644
    38  N   -0.169080
    40  C    0.137667
    42  C    0.643517
    43  C    0.038647
    46  O   -0.385965
    47  C    0.014369
    50  C    0.051913
    53  C    0.107776
    56  N   -0.100402
    59  O   -0.166377
 Electronic spatial extent (au):  <R**2>=          19640.3899
 Charge=              1.0000 electrons
 Dipole moment (field-independent basis, Debye):
    X=              9.0998    Y=              1.2528    Z=             -0.0918  Tot=              9.1861
 Quadrupole moment (field-independent basis, Debye-Ang):
   XX=           -116.2462   YY=           -174.7346   ZZ=           -139.8475
   XY=             24.2295   XZ=            -12.8124   YZ=              0.7252
 Traceless Quadrupole moment (field-independent basis, Debye-Ang):
   XX=             27.3632   YY=            -31.1252   ZZ=              3.7620
   XY=             24.2295   XZ=            -12.8124   YZ=              0.7252
 Octapole moment (field-independent basis, Debye-Ang**2):
  XXX=           -588.4639  YYY=            -93.6089  ZZZ=            160.8055  XYY=           -338.6995
  XXY=             69.1798  XXZ=            -17.3795  XZZ=           -120.5330  YZZ=             62.8837
  YYZ=             75.8080  XYZ=            -16.6518
 Hexadecapole moment (field-independent basis, Debye-Ang**3):
 XXXX=          -7337.2168 YYYY=          -9369.6418 ZZZZ=          -6390.3029 XXXY=          -2470.5422
 XXXZ=           1337.1829 YYYX=          -3399.3091 YYYZ=           2462.3983 ZZZX=           1651.7826
 ZZZY=           2019.2221 XXYY=          -2755.6792 XXZZ=          -1589.6155 YYZZ=          -2618.8975
 XXYZ=            435.2429 YYXZ=            714.1426 ZZXY=           -647.5654
 N-N= 3.314065054278D+03 E-N=-1.015986078052D+04  KE= 1.512222577089D+03
 Unable to Open any file for archive entry.
 1\1\GINC-AMR-135\SP\RB3LYP\6-31G(d)\C20H31N4O7(1+)\KENGMITH\02-Jun-202
 2\0\\# B3LYP/6-31G* empiricaldispersion=gd3 guess=read geom=check nosy
 mm integral(ultrafinegrid)\\Candidate Structure: Conf:771 Charge calc 
 in gas phase\\1,1\N,0,-0.1299760911,-4.2576922305,3.8764460983\H,0,0.2
 035128711,-4.8486195639,3.1156811572\H,0,0.7104001365,-4.0328747077,4.
 405447682\C,0,-0.6941588794,-3.0352701944,3.3205926866\H,0,-0.70618548
 63,-2.2811382119,4.1194131057\C,0,0.1994547266,-2.4436541847,2.1993104
 635\C,0,-2.1758450699,-3.267115371,2.9312800696\H,0,-2.6614676335,-2.3
 282229575,2.6398420984\H,0,-2.6660443123,-3.6046520304,3.8480808103\O,
 0,1.2440383066,-2.9801291283,1.8630361774\C,0,-2.4208232848,-4.3159120
 841,1.8417922516\H,0,-3.4497604802,-4.6930161059,1.9128899039\H,0,-1.7
 87506074,-5.1998127449,1.9694758662\C,0,-2.2696173761,-3.7975842227,0.
 429089181\O,0,-2.210964197,-2.6235663806,0.1033547089\O,0,-2.241026497
 ,-4.8013719989,-0.4643096133\N,0,-0.2231040006,-1.2316806112,1.6783661
 703\H,0,-1.2186284308,-1.0672199681,1.7499268782\C,0,0.3747123609,-0.6
 044104904,0.5120721447\H,0,-0.3610846168,0.1142475197,0.1366642767\C,0
 ,1.6081430721,0.1918579357,0.8756066539\C,0,0.7318886819,-1.5557756996
 ,-0.6926652027\H,0,1.3582884579,-2.3591536969,-0.3063802863\H,0,-0.226
 718659,-1.9857285064,-0.9952067681\O,0,2.4520876427,-0.3460367198,1.69
 58106798\C,0,1.4124229952,-0.8317512832,-1.8291057676\C,0,0.692264738,
 -0.0083806855,-2.7105554089\H,0,-0.3903160035,0.0587665815,-2.61909122
 38\C,0,2.8007146305,-0.9204478506,-2.0002310751\H,0,3.3805206159,-1.56
 71403156,-1.3451301023\C,0,1.3305712489,0.7073269537,-3.7210674026\H,0
 ,0.7724552779,1.3318888201,-4.4110253298\C,0,3.4562659147,-0.210509916
 5,-3.007298181\H,0,4.5324561928,-0.3080883654,-3.1327829096\O,0,3.2918
 355523,1.3514392148,-4.8612295754\H,0,4.2469224082,1.1821113718,-4.899
 0168705\C,0,2.7215698658,0.6113565064,-3.8711061355\N,0,1.8313250314,1
 .3459693624,0.2790412056\H,0,1.1061709411,1.6475063553,-0.3650408665\C
 ,0,3.1484603521,2.0013859793,0.0474528743\H,0,3.8635934717,1.194464935
 7,-0.157630256\C,0,3.6195827371,2.7474030065,1.3023243754\C,0,3.040584
 0794,2.9289727584,-1.1652903242\H,0,2.4024132074,2.439592406,-1.908883
 4209\H,0,2.5567625554,3.8632406194,-0.8595207299\O,0,3.7924460495,3.92
 66192213,1.4114396044\C,0,4.3989737135,3.2162862013,-1.8144129708\H,0,
 4.8613640587,2.2573925777,-2.0913980029\H,0,5.0681563337,3.6991786709,
 -1.0915743269\C,0,4.251163394,4.0959046714,-3.0614384229\H,0,3.4652217
 639,3.6797613106,-3.7065889715\H,0,3.9354615669,5.1068827567,-2.779514
 2077\C,0,5.5450659313,4.1945511773,-3.8736613562\H,0,6.3463419442,4.59
 44025037,-3.2392637383\H,0,5.8613674956,3.1681046171,-4.1593769765\N,0
 ,5.3625845342,5.10704803,-4.998453695\H,0,4.7210239354,4.7043427677,-5
 .679802236\H,0,6.2439810008,5.2604225453,-5.4833517139\O,0,3.850200765
 2,1.8522816868,2.3168847649\H,0,3.1526209414,0.2868987398,2.0010217719
 \H,0,4.1401295098,2.3325489233,3.1181736847\H,0,-2.2100893578,-4.40611
 09608,-1.3561490667\\Version=ES64L-G16RevC.01\HF=-1526.2503047\RMSD=7.
 101e-09\Dipole=0.5469748,0.6195838,0.6468078\Quadrupole=20.3438935,-23
 .1408124,2.7969189,18.0140639,-9.5257157,0.5391756\PG=C01 [X(C20H31N4O
 7)]\\@
 The archive entry for this job was punched.


 FROM WHENCE IT HAPPENS, THAT THEY WHICH TRUST TO BOOKS, DO AS THEY THAT CAST UP MANY LITTLE SUMMS INTO GREATER,
 WITHOUT CONSIDERING WETHER THOSE LITTLE SUMMES WERE RIGHTLY CAST UP OR NOT...
 AND AT LAST FINDING THE ERROUR VISIBLE, AND NOT MISTRUSTING THEIR FIRST GROUNDS,
 KNOW NOT WHICH WAY TO CLEERE THEMSELVES...
 BUT SPEND TIME IN FLUTTERING OVER THEIR BOOKES....
 AS BIRDS THAT ENTERING BY THE CHIMNEY, AND FINDING THEMSELVES INCLOSED IN A CHAMBER,
 FLUTTER AT THE FALSE LIGHT OF A GLASSE WINDOW,
 FOR WANT OF WIT TO CONSIDER WHICH WAY THEY CAME IN....
           LEVIATHAN
 Job cpu time:       0 days  0 hours  1 minutes 46.0 seconds.
 Elapsed time:       0 days  0 hours  0 minutes 27.0 seconds.
 File lengths (MBytes):  RWF=    264 Int=      0 D2E=      0 Chk=     40 Scr=     16
 Normal termination of Gaussian 16 at Thu Jun  2 00:17:47 2022.
