 Entering Gaussian System, Link 0=/opt/software/Gaussian/g16-AVX2-C.01/g16/g16
 Input=charge-conf-304.com
 Output=charge-conf-304.log
 Initial command:
 /opt/software/Gaussian/g16-AVX2-C.01/g16/l1.exe "/mnt/gs21/scratch/kengmith/Gau-35063.inp" -scrdir="/mnt/gs21/scratch/kengmith/"
 Entering Link 1 = /opt/software/Gaussian/g16-AVX2-C.01/g16/l1.exe PID=     35086.
  
 Copyright (c) 1988-2019, Gaussian, Inc.  All Rights Reserved.
  
 This is part of the Gaussian(R) 16 program.  It is based on
 the Gaussian(R) 09 system (copyright 2009, Gaussian, Inc.),
 the Gaussian(R) 03 system (copyright 2003, Gaussian, Inc.),
 the Gaussian(R) 98 system (copyright 1998, Gaussian, Inc.),
 the Gaussian(R) 94 system (copyright 1995, Gaussian, Inc.),
 the Gaussian 92(TM) system (copyright 1992, Gaussian, Inc.),
 the Gaussian 90(TM) system (copyright 1990, Gaussian, Inc.),
 the Gaussian 88(TM) system (copyright 1988, Gaussian, Inc.),
 the Gaussian 86(TM) system (copyright 1986, Carnegie Mellon
 University), and the Gaussian 82(TM) system (copyright 1983,
 Carnegie Mellon University). Gaussian is a federally registered
 trademark of Gaussian, Inc.
  
 This software contains proprietary and confidential information,
 including trade secrets, belonging to Gaussian, Inc.
  
 This software is provided under written license and may be
 used, copied, transmitted, or stored only in accord with that
 written license.
  
 The following legend is applicable only to US Government
 contracts under FAR:
  
                    RESTRICTED RIGHTS LEGEND
  
 Use, reproduction and disclosure by the US Government is
 subject to restrictions as set forth in subparagraphs (a)
 and (c) of the Commercial Computer Software - Restricted
 Rights clause in FAR 52.227-19.
  
 Gaussian, Inc.
 340 Quinnipiac St., Bldg. 40, Wallingford CT 06492
  
  
 ---------------------------------------------------------------
 Warning -- This program may not be used in any manner that
 competes with the business of Gaussian, Inc. or will provide
 assistance to any competitor of Gaussian, Inc.  The licensee
 of this program is prohibited from giving any competitor of
 Gaussian, Inc. access to this program.  By using this program,
 the user acknowledges that Gaussian, Inc. is engaged in the
 business of creating and licensing software in the field of
 computational chemistry and represents and warrants to the
 licensee that it is not a competitor of Gaussian, Inc. and that
 it will not use this program in any manner prohibited above.
 ---------------------------------------------------------------
  

 Cite this work as:
 Gaussian 16, Revision C.01,
 M. J. Frisch, G. W. Trucks, H. B. Schlegel, G. E. Scuseria, 
 M. A. Robb, J. R. Cheeseman, G. Scalmani, V. Barone, 
 G. A. Petersson, H. Nakatsuji, X. Li, M. Caricato, A. V. Marenich, 
 J. Bloino, B. G. Janesko, R. Gomperts, B. Mennucci, H. P. Hratchian, 
 J. V. Ortiz, A. F. Izmaylov, J. L. Sonnenberg, D. Williams-Young, 
 F. Ding, F. Lipparini, F. Egidi, J. Goings, B. Peng, A. Petrone, 
 T. Henderson, D. Ranasinghe, V. G. Zakrzewski, J. Gao, N. Rega, 
 G. Zheng, W. Liang, M. Hada, M. Ehara, K. Toyota, R. Fukuda, 
 J. Hasegawa, M. Ishida, T. Nakajima, Y. Honda, O. Kitao, H. Nakai, 
 T. Vreven, K. Throssell, J. A. Montgomery, Jr., J. E. Peralta, 
 F. Ogliaro, M. J. Bearpark, J. J. Heyd, E. N. Brothers, K. N. Kudin, 
 V. N. Staroverov, T. A. Keith, R. Kobayashi, J. Normand, 
 K. Raghavachari, A. P. Rendell, J. C. Burant, S. S. Iyengar, 
 J. Tomasi, M. Cossi, J. M. Millam, M. Klene, C. Adamo, R. Cammi, 
 J. W. Ochterski, R. L. Martin, K. Morokuma, O. Farkas, 
 J. B. Foresman, and D. J. Fox, Gaussian, Inc., Wallingford CT, 2019.
 
 ******************************************
 Gaussian 16:  ES64L-G16RevC.01  3-Jul-2019
                 4-Sep-2022 
 ******************************************
 %mem=8gb
 %nproc=4
 Will use up to    4 processors via shared memory.
 %chk=conf-304.chk
 ----------------------------------------------------------------------
 # B3LYP/6-31G** empiricaldispersion=gd3bj guess=read geom=check nosymm
  integral(ultrafinegrid)
 ----------------------------------------------------------------------
 1/29=2,38=1,172=1/1;
 2/12=2,15=1,40=1/2;
 3/5=1,6=6,7=101,11=2,14=-4,25=1,30=1,74=-5,75=-5,116=-2,124=41/1,2,3;
 4/5=1/1;
 5/5=2,38=6/2;
 6/7=2,8=2,9=2,10=2,28=1/1;
 99/5=1,9=1/99;
 ------------------------------------------------------
 Candidate Structure: Conf:304 Charge calc in gas phase
 ------------------------------------------------------
 Structure from the checkpoint file:  "conf-304.chk"
 Charge =  1 Multiplicity = 1
 Redundant internal coordinates found in file.  (old form).
 N,0,-6.7640867714,-6.6823086977,-2.2948452139
 H,0,-7.3989188165,-6.9301092118,-1.5346730949
 H,0,-6.6024261223,-7.5103285531,-2.8712813197
 H,0,-7.1710469939,-5.8702803638,-2.8866572174
 C,0,-5.4816380402,-6.0297352061,-1.8277781055
 H,0,-5.5122830685,-5.9681849795,-0.7374012972
 C,0,-5.6081476362,-4.6098419837,-2.4454236134
 C,0,-4.2526527619,-6.7984724534,-2.3028353327
 H,0,-3.3445983526,-6.2866880473,-1.9771160521
 H,0,-4.2311101907,-7.8068681826,-1.881413155
 H,0,-4.2260150111,-6.8591522572,-3.3950860318
 O,0,-6.6093617,-4.3908861708,-3.1524452525
 N,0,-4.6425238385,-3.7472871921,-2.1880598242
 H,0,-3.8310303698,-3.966515083,-1.6091399993
 C,0,-4.6052263205,-2.3803301177,-2.699875024
 H,0,-4.9006811565,-2.3849232198,-3.7514267207
 C,0,-3.1392072201,-1.9507089325,-2.5527031024
 C,0,-5.5666511481,-1.4500581891,-1.8969460681
 H,0,-6.5840229355,-1.8117495337,-2.0813376452
 H,0,-5.3527583827,-1.5809227943,-0.831364629
 O,0,-2.4154190049,-2.534703697,-1.7329370083
 C,0,-5.3864604032,-0.0210032934,-2.2892841946
 C,0,-4.7905234977,0.9579071709,-1.5315325254
 H,0,-4.460015079,0.9198631001,-0.5040878016
 C,0,-5.5495441443,0.5270656229,-3.6161455614
 C,0,-5.0152318109,1.8479589818,-3.5826933869
 C,0,-6.0467139581,0.0213942572,-4.8324793317
 H,0,-6.4882241874,-0.9703585708,-4.8824463733
 N,0,-4.6056866051,2.094089315,-2.2877363119
 H,0,-3.9589032402,2.823519722,-2.0273282582
 C,0,-5.4401187774,2.1206605542,-5.9117297664
 H,0,-5.4059904113,2.7196215843,-6.8156293165
 C,0,-4.9544484922,2.6537199666,-4.7237040032
 H,0,-4.5439299299,3.6572738815,-4.6819797307
 C,0,-5.9844666981,0.8211435097,-5.9661646199
 H,0,-6.3664118169,0.4461139252,-6.9098601464
 N,0,-2.7272734193,-0.9424880131,-3.3397948561
 H,0,-3.4319669181,-0.4199165749,-3.8522133844
 C,0,-1.4290097009,-0.3018050234,-3.1274080129
 H,0,-0.7150509565,-1.1053287536,-2.9240947968
 C,0,-1.4987613123,0.6293443274,-1.8961419798
 C,0,-0.9918795017,0.4990938101,-4.3510448185
 H,0,-1.0440656839,-0.1265719003,-5.2451998847
 H,0,-1.6790913224,1.3413761809,-4.4764504481
 O,0,-1.7325627355,1.834231171,-2.0072564512
 C,0,0.4393708028,1.0217123663,-4.1383481909
 H,0,0.5293468085,1.5158218641,-3.1708998669
 H,0,1.148736195,0.1852681335,-4.1678584566
 C,0,0.8824863678,2.0304503634,-5.1658608638
 O,0,1.3761350283,3.114747931,-4.9064058474
 O,0,0.6939242695,1.612092273,-6.4267847864
 N,0,-1.2746531871,0.024298441,-0.7123308337
 H,0,-1.073953017,-0.9676917594,-0.7009328228
 C,0,-1.0916542093,0.8037368915,0.5116685622
 H,0,-1.7680250727,1.6610193287,0.4507034518
 C,0,0.3699651208,1.2834973326,0.4833119393
 C,0,-1.4021796608,-0.0242168752,1.7636492652
 H,0,-0.6620225568,-0.8331754957,1.8010870269
 O,0,1.2815244837,0.5328693743,0.8390099346
 C,0,-1.228276379,0.8403520332,3.0178317513
 H,0,-1.9314231481,1.681341631,3.0135807467
 H,0,-1.4205358563,0.2503291998,3.917878524
 H,0,-0.2144184159,1.2396772131,3.0953282942
 C,0,-2.8108609202,-0.6262228969,1.6942097625
 H,0,-3.569919417,0.1653769815,1.6631220058
 H,0,-2.944106729,-1.2623720015,0.8137904698
 H,0,-3.0080377369,-1.2314498115,2.5837013288
 N,0,0.5657662073,2.5275665991,-0.0143611015
 H,0,-0.1743954751,2.9282793961,-0.5857878689
 C,0,1.9147571917,2.9946980871,-0.3318174492
 H,0,2.4822954052,2.1517250298,-0.7465032625
 C,0,2.6504010878,3.4675726282,0.9451441414
 C,0,1.8437561818,4.1405743893,-1.3661450762
 H,0,1.6203448066,5.0541352586,-0.8043738937
 O,0,2.7849161967,4.6823548355,1.2144930924
 C,0,3.1830264815,4.2818645948,-2.0842828469
 H,0,4.0156061785,4.2955020553,-1.3749795572
 H,0,3.3457927886,3.4278236233,-2.7495509971
 H,0,3.2048857409,5.1882826855,-2.6972563269
 O,0,0.7619176146,3.9386904556,-2.2602593769
 H,0,1.0874530449,3.7045895547,-3.1493357477
 N,0,3.1037551055,2.4983467207,1.7258510634
 H,0,2.910631687,1.5502380737,1.4190087298
 C,0,4.0256112241,2.7009992561,2.841780661
 H,0,3.6138916116,3.4737069263,3.4994982281
 C,0,5.3751245221,3.1962367516,2.2499143922
 C,0,4.1547716443,1.3689134176,3.6239060397
 H,0,4.6455342184,0.6556462894,2.94565516
 O,0,5.6680771609,2.9101439053,1.0795152964
 C,0,5.010610336,1.5156721616,4.8862527013
 H,0,4.5323245526,2.1986298156,5.5977625861
 H,0,6.0135412929,1.9049965635,4.7119016567
 H,0,5.1020592234,0.5422977264,5.3775664784
 C,0,2.7713044403,0.8144054081,4.0061207708
 H,0,2.2215875117,1.5474157015,4.6088578326
 H,0,2.892451619,-0.0863793117,4.6151873984
 H,0,2.1557220321,0.5489554182,3.1433633045
 N,0,6.1074737852,3.9695608024,3.0655792351
 H,0,5.960652126,3.938135041,4.1032663565
 C,0,7.5587830878,4.1611610587,2.9433826601
 H,0,7.9725048402,3.3681473584,2.3124672844
 C,0,8.1072679924,3.9819065745,4.4308457324
 C,0,8.0545300853,5.5228965593,2.4294210302
 H,0,9.0966307599,5.5424169614,2.7592968362
 H,0,7.5480844284,6.3250573559,2.9854396714
 O,0,9.3336982479,4.0696319097,4.5596464204
 C,0,8.0043350967,5.8068945198,0.9124669094
 H,0,8.9144354622,6.3366778538,0.6117324175
 H,0,7.9963609223,4.859913041,0.359680475
 C,0,6.8087676483,6.6619948836,0.4516565076
 H,0,6.8361497775,7.6370443626,0.9573830166
 H,0,6.8802188455,6.8519449282,-0.6288249648
 C,0,5.5265478416,5.9314657018,0.7730181249
 H,0,5.3988943426,5.7868516932,1.8448790992
 H,0,5.515332901,4.9359404324,0.3276107682
 N,0,4.2647457935,6.6201088061,0.3062431049
 H,0,3.4776834318,5.9495393597,0.5580511548
 H,0,4.1292504265,7.5170174487,0.7758107561
 H,0,4.2750035898,6.7873930789,-0.7010224656
 O,0,7.1934965502,3.7958387336,5.2920819869
 H,0,1.0132131381,2.3171600059,-7.0168902024
 Recover connectivity data from disk.
                           ----------------------------
                           !    Current Parameters    !
                           ! (Angstroms and Degrees)  !
 --------------------------                            --------------------------
 ! Name  Definition              Value                                          !
 --------------------------------------------------------------------------------
 ! R1    R(1,2)                  1.0209                                         !
 ! R2    R(1,3)                  1.0218                                         !
 ! R3    R(1,4)                  1.0841                                         !
 ! R4    R(1,5)                  1.5128                                         !
 ! R5    R(5,6)                  1.0925                                         !
 ! R6    R(5,7)                  1.5536                                         !
 ! R7    R(5,8)                  1.5255                                         !
 ! R8    R(7,12)                 1.2451                                         !
 ! R9    R(7,13)                 1.3201                                         !
 ! R10   R(8,9)                  1.0921                                         !
 ! R11   R(8,10)                 1.0931                                         !
 ! R12   R(8,11)                 1.0943                                         !
 ! R13   R(13,14)                1.0207                                         !
 ! R14   R(13,15)                1.4601                                         !
 ! R15   R(15,16)                1.0923                                         !
 ! R16   R(15,17)                1.5347                                         !
 ! R17   R(15,18)                1.5603                                         !
 ! R18   R(17,21)                1.2397                                         !
 ! R19   R(17,37)                1.3438                                         !
 ! R20   R(18,19)                1.0954                                         !
 ! R21   R(18,20)                1.0947                                         !
 ! R22   R(18,22)                1.4928                                         !
 ! R23   R(22,23)                1.3739                                         !
 ! R24   R(22,25)                1.4448                                         !
 ! R25   R(23,24)                1.08                                           !
 ! R26   R(23,29)                1.3773                                         !
 ! R27   R(25,26)                1.4253                                         !
 ! R28   R(25,27)                1.408                                          !
 ! R29   R(26,29)                1.3803                                         !
 ! R30   R(26,33)                1.3982                                         !
 ! R31   R(27,28)                1.0867                                         !
 ! R32   R(27,35)                1.3888                                         !
 ! R33   R(29,30)                1.0091                                         !
 ! R34   R(31,32)                1.0849                                         !
 ! R35   R(31,33)                1.3898                                         !
 ! R36   R(31,35)                1.41                                           !
 ! R37   R(33,34)                1.0851                                         !
 ! R38   R(35,36)                1.0849                                         !
 ! R39   R(37,38)                1.016                                          !
 ! R40   R(37,39)                1.4632                                         !
 ! R41   R(39,40)                1.0939                                         !
 ! R42   R(39,41)                1.5453                                         !
 ! R43   R(39,42)                1.5264                                         !
 ! R44   R(41,45)                1.2324                                         !
 ! R45   R(41,52)                1.3482                                         !
 ! R46   R(42,43)                1.0926                                         !
 ! R47   R(42,44)                1.0943                                         !
 ! R48   R(42,46)                1.5385                                         !
 ! R49   R(46,47)                1.09                                           !
 ! R50   R(46,48)                1.0971                                         !
 ! R51   R(46,49)                1.5065                                         !
 ! R52   R(49,50)                1.2193                                         !
 ! R53   R(49,51)                1.3418                                         !
 ! R54   R(51,121)               0.9733                                         !
 ! R55   R(52,53)                1.0122                                         !
 ! R56   R(52,54)                1.4626                                         !
 ! R57   R(54,55)                1.0937                                         !
 ! R58   R(54,56)                1.5386                                         !
 ! R59   R(54,57)                1.5328                                         !
 ! R60   R(56,59)                1.2332                                         !
 ! R61   R(56,68)                1.3542                                         !
 ! R62   R(57,58)                1.0971                                         !
 ! R63   R(57,60)                1.5332                                         !
 ! R64   R(57,64)                1.5335                                         !
 ! R65   R(60,61)                1.0962                                         !
 ! R66   R(60,62)                1.0932                                         !
 ! R67   R(60,63)                1.0924                                         !
 ! R68   R(64,65)                1.0972                                         !
 ! R69   R(64,66)                1.0943                                         !
 ! R70   R(64,67)                1.0938                                         !
 ! R71   R(68,69)                1.0173                                         !
 ! R72   R(68,70)                1.4625                                         !
 ! R73   R(70,71)                1.0976                                         !
 ! R74   R(70,72)                1.5477                                         !
 ! R75   R(70,73)                1.5453                                         !
 ! R76   R(72,75)                1.2515                                         !
 ! R77   R(72,82)                1.3245                                         !
 ! R78   R(73,74)                1.0955                                         !
 ! R79   R(73,76)                1.5262                                         !
 ! R80   R(73,80)                1.4179                                         !
 ! R81   R(76,77)                1.0938                                         !
 ! R82   R(76,78)                1.0947                                         !
 ! R83   R(76,79)                1.0944                                         !
 ! R84   R(80,81)                0.9753                                         !
 ! R85   R(82,83)                1.0151                                         !
 ! R86   R(82,84)                1.4616                                         !
 ! R87   R(84,85)                1.0951                                         !
 ! R88   R(84,86)                1.5546                                         !
 ! R89   R(84,87)                1.5501                                         !
 ! R90   R(86,89)                1.24                                           !
 ! R91   R(86,98)                1.3415                                         !
 ! R92   R(87,88)                1.0998                                         !
 ! R93   R(87,90)                1.5322                                         !
 ! R94   R(87,94)                1.5387                                         !
 ! R95   R(90,91)                1.0961                                         !
 ! R96   R(90,92)                1.0899                                         !
 ! R97   R(90,93)                1.0942                                         !
 ! R98   R(94,95)                1.0967                                         !
 ! R99   R(94,96)                1.0941                                         !
 ! R100  R(94,97)                1.0926                                         !
 ! R101  R(98,99)                1.0485                                         !
 ! R102  R(98,100)               1.469                                          !
 ! R103  R(100,101)              1.0946                                         !
 ! R104  R(100,102)              1.5955                                         !
 ! R105  R(100,103)              1.5376                                         !
 ! R106  R(102,106)              1.2363                                         !
 ! R107  R(102,120)              1.2694                                         !
 ! R108  R(103,104)              1.0932                                         !
 ! R109  R(103,105)              1.0996                                         !
 ! R110  R(103,107)              1.5441                                         !
 ! R111  R(107,108)              1.0952                                         !
 ! R112  R(107,109)              1.0965                                         !
 ! R113  R(107,110)              1.5404                                         !
 ! R114  R(110,111)              1.0987                                         !
 ! R115  R(110,112)              1.0994                                         !
 ! R116  R(110,113)              1.5103                                         !
 ! R117  R(113,114)              1.0891                                         !
 ! R118  R(113,115)              1.0907                                         !
 ! R119  R(113,116)              1.5114                                         !
 ! R120  R(116,117)              1.0642                                         !
 ! R121  R(116,118)              1.0214                                         !
 ! R122  R(116,119)              1.0211                                         !
 ! A1    A(2,1,3)              108.7688                                         !
 ! A2    A(2,1,4)              110.7849                                         !
 ! A3    A(2,1,5)              113.6997                                         !
 ! A4    A(3,1,4)              111.0033                                         !
 ! A5    A(3,1,5)              112.9304                                         !
 ! A6    A(4,1,5)               99.4195                                         !
 ! A7    A(1,5,6)              107.9777                                         !
 ! A8    A(1,5,7)              101.6813                                         !
 ! A9    A(1,5,8)              111.6806                                         !
 ! A10   A(6,5,7)              110.06                                           !
 ! A11   A(6,5,8)              111.2101                                         !
 ! A12   A(7,5,8)              113.7265                                         !
 ! A13   A(5,7,12)             116.8696                                         !
 ! A14   A(5,7,13)             117.3938                                         !
 ! A15   A(12,7,13)            125.7327                                         !
 ! A16   A(5,8,9)              109.9288                                         !
 ! A17   A(5,8,10)             111.1429                                         !
 ! A18   A(5,8,11)             111.0022                                         !
 ! A19   A(9,8,10)             107.5144                                         !
 ! A20   A(9,8,11)             107.6657                                         !
 ! A21   A(10,8,11)            109.4618                                         !
 ! A22   A(7,13,14)            123.4916                                         !
 ! A23   A(7,13,15)            124.1985                                         !
 ! A24   A(14,13,15)           112.3091                                         !
 ! A25   A(13,15,16)           109.0635                                         !
 ! A26   A(13,15,17)           104.6467                                         !
 ! A27   A(13,15,18)           111.2268                                         !
 ! A28   A(16,15,17)           110.6021                                         !
 ! A29   A(16,15,18)           109.3448                                         !
 ! A30   A(17,15,18)           111.8606                                         !
 ! A31   A(15,17,21)           119.2897                                         !
 ! A32   A(15,17,37)           116.5312                                         !
 ! A33   A(21,17,37)           124.1789                                         !
 ! A34   A(15,18,19)           106.7867                                         !
 ! A35   A(15,18,20)           108.0142                                         !
 ! A36   A(15,18,22)           111.1693                                         !
 ! A37   A(19,18,20)           107.81                                           !
 ! A38   A(19,18,22)           112.5787                                         !
 ! A39   A(20,18,22)           110.2842                                         !
 ! A40   A(18,22,23)           126.119                                          !
 ! A41   A(18,22,25)           126.2174                                         !
 ! A42   A(23,22,25)           106.57                                           !
 ! A43   A(22,23,24)           129.2243                                         !
 ! A44   A(22,23,29)           110.0699                                         !
 ! A45   A(24,23,29)           120.6865                                         !
 ! A46   A(22,25,26)           106.7194                                         !
 ! A47   A(22,25,27)           134.1853                                         !
 ! A48   A(26,25,27)           119.0457                                         !
 ! A49   A(25,26,29)           107.3682                                         !
 ! A50   A(25,26,33)           122.0895                                         !
 ! A51   A(29,26,33)           130.5386                                         !
 ! A52   A(25,27,28)           120.7265                                         !
 ! A53   A(25,27,35)           118.853                                          !
 ! A54   A(28,27,35)           120.4115                                         !
 ! A55   A(23,29,26)           109.1587                                         !
 ! A56   A(23,29,30)           122.7286                                         !
 ! A57   A(26,29,30)           124.1386                                         !
 ! A58   A(32,31,33)           119.3065                                         !
 ! A59   A(32,31,35)           119.2636                                         !
 ! A60   A(33,31,35)           121.4285                                         !
 ! A61   A(26,33,31)           117.4762                                         !
 ! A62   A(26,33,34)           121.2029                                         !
 ! A63   A(31,33,34)           121.3208                                         !
 ! A64   A(27,35,31)           121.1004                                         !
 ! A65   A(27,35,36)           119.6834                                         !
 ! A66   A(31,35,36)           119.2147                                         !
 ! A67   A(17,37,38)           117.9501                                         !
 ! A68   A(17,37,39)           121.0301                                         !
 ! A69   A(38,37,39)           117.6065                                         !
 ! A70   A(37,39,40)           106.5246                                         !
 ! A71   A(37,39,41)           109.8428                                         !
 ! A72   A(37,39,42)           111.5603                                         !
 ! A73   A(40,39,41)           108.9034                                         !
 ! A74   A(40,39,42)           110.3339                                         !
 ! A75   A(41,39,42)           109.6034                                         !
 ! A76   A(39,41,45)           121.7257                                         !
 ! A77   A(39,41,52)           114.9419                                         !
 ! A78   A(45,41,52)           123.3301                                         !
 ! A79   A(39,42,43)           109.9942                                         !
 ! A80   A(39,42,44)           108.4151                                         !
 ! A81   A(39,42,46)           109.5021                                         !
 ! A82   A(43,42,44)           108.4816                                         !
 ! A83   A(43,42,46)           110.6169                                         !
 ! A84   A(44,42,46)           109.7925                                         !
 ! A85   A(42,46,47)           110.7004                                         !
 ! A86   A(42,46,48)           109.8039                                         !
 ! A87   A(42,46,49)           114.0035                                         !
 ! A88   A(47,46,48)           108.4265                                         !
 ! A89   A(47,46,49)           106.1131                                         !
 ! A90   A(48,46,49)           107.5751                                         !
 ! A91   A(46,49,50)           124.7071                                         !
 ! A92   A(46,49,51)           113.0053                                         !
 ! A93   A(50,49,51)           122.2837                                         !
 ! A94   A(49,51,121)          107.3245                                         !
 ! A95   A(41,52,53)           118.8606                                         !
 ! A96   A(41,52,54)           121.0946                                         !
 ! A97   A(53,52,54)           119.2134                                         !
 ! A98   A(52,54,55)           107.0795                                         !
 ! A99   A(52,54,56)           105.6408                                         !
 ! A100  A(52,54,57)           111.7372                                         !
 ! A101  A(55,54,56)           110.0018                                         !
 ! A102  A(55,54,57)           110.0997                                         !
 ! A103  A(56,54,57)           112.0824                                         !
 ! A104  A(54,56,59)           120.4684                                         !
 ! A105  A(54,56,68)           115.5056                                         !
 ! A106  A(59,56,68)           123.9386                                         !
 ! A107  A(54,57,58)           106.8275                                         !
 ! A108  A(54,57,60)           109.9125                                         !
 ! A109  A(54,57,64)           111.172                                          !
 ! A110  A(58,57,60)           108.1411                                         !
 ! A111  A(58,57,64)           109.3789                                         !
 ! A112  A(60,57,64)           111.2602                                         !
 ! A113  A(57,60,61)           110.8965                                         !
 ! A114  A(57,60,62)           110.4369                                         !
 ! A115  A(57,60,63)           111.6804                                         !
 ! A116  A(61,60,62)           107.7241                                         !
 ! A117  A(61,60,63)           108.3694                                         !
 ! A118  A(62,60,63)           107.5835                                         !
 ! A119  A(57,64,65)           110.7059                                         !
 ! A120  A(57,64,66)           112.116                                          !
 ! A121  A(57,64,67)           110.2425                                         !
 ! A122  A(65,64,66)           108.2027                                         !
 ! A123  A(65,64,67)           107.3106                                         !
 ! A124  A(66,64,67)           108.0983                                         !
 ! A125  A(56,68,69)           117.5876                                         !
 ! A126  A(56,68,70)           120.4378                                         !
 ! A127  A(69,68,70)           115.0476                                         !
 ! A128  A(68,70,71)           108.2799                                         !
 ! A129  A(68,70,72)           110.9117                                         !
 ! A130  A(68,70,73)           109.8629                                         !
 ! A131  A(71,70,72)           107.4942                                         !
 ! A132  A(71,70,73)           109.9004                                         !
 ! A133  A(72,70,73)           110.3363                                         !
 ! A134  A(70,72,75)           121.6825                                         !
 ! A135  A(70,72,82)           115.1772                                         !
 ! A136  A(75,72,82)           123.135                                          !
 ! A137  A(70,73,74)           106.5297                                         !
 ! A138  A(70,73,76)           110.0768                                         !
 ! A139  A(70,73,80)           110.5819                                         !
 ! A140  A(74,73,76)           110.0627                                         !
 ! A141  A(74,73,80)           106.6483                                         !
 ! A142  A(76,73,80)           112.7048                                         !
 ! A143  A(73,76,77)           111.3433                                         !
 ! A144  A(73,76,78)           110.1323                                         !
 ! A145  A(73,76,79)           110.9611                                         !
 ! A146  A(77,76,78)           106.895                                          !
 ! A147  A(77,76,79)           109.7341                                         !
 ! A148  A(78,76,79)           107.6245                                         !
 ! A149  A(73,80,81)           110.7525                                         !
 ! A150  A(72,82,83)           116.1154                                         !
 ! A151  A(72,82,84)           124.3639                                         !
 ! A152  A(83,82,84)           118.7057                                         !
 ! A153  A(82,84,85)           108.6192                                         !
 ! A154  A(82,84,86)           107.5183                                         !
 ! A155  A(82,84,87)           108.5808                                         !
 ! A156  A(85,84,86)           109.2845                                         !
 ! A157  A(85,84,87)           109.5516                                         !
 ! A158  A(86,84,87)           113.1739                                         !
 ! A159  A(84,86,89)           119.4033                                         !
 ! A160  A(84,86,98)           115.217                                          !
 ! A161  A(89,86,98)           125.3053                                         !
 ! A162  A(84,87,88)           106.4592                                         !
 ! A163  A(84,87,90)           112.3297                                         !
 ! A164  A(84,87,94)           111.1067                                         !
 ! A165  A(88,87,90)           108.7209                                         !
 ! A166  A(88,87,94)           108.7039                                         !
 ! A167  A(90,87,94)           109.3959                                         !
 ! A168  A(87,90,91)           110.5338                                         !
 ! A169  A(87,90,92)           114.6097                                         !
 ! A170  A(87,90,93)           109.3555                                         !
 ! A171  A(91,90,92)           106.4279                                         !
 ! A172  A(91,90,93)           107.4146                                         !
 ! A173  A(92,90,93)           108.2221                                         !
 ! A174  A(87,94,95)           110.263                                          !
 ! A175  A(87,94,96)           109.5986                                         !
 ! A176  A(87,94,97)           113.4523                                         !
 ! A177  A(95,94,96)           107.4476                                         !
 ! A178  A(95,94,97)           108.2976                                         !
 ! A179  A(96,94,97)           107.5741                                         !
 ! A180  A(86,98,99)           120.5325                                         !
 ! A181  A(86,98,100)          124.3293                                         !
 ! A182  A(99,98,100)          102.9782                                         !
 ! A183  A(98,100,101)         109.0793                                         !
 ! A184  A(98,100,102)         104.3256                                         !
 ! A185  A(98,100,103)         117.5065                                         !
 ! A186  A(101,100,102)        109.029                                          !
 ! A187  A(101,100,103)        109.0925                                         !
 ! A188  A(102,100,103)        107.4753                                         !
 ! A189  A(100,102,106)        115.4798                                         !
 ! A190  A(100,102,120)        113.6745                                         !
 ! A191  A(106,102,120)        130.831                                          !
 ! A192  A(100,103,104)        102.8433                                         !
 ! A193  A(100,103,105)        109.1806                                         !
 ! A194  A(100,103,107)        118.7365                                         !
 ! A195  A(104,103,105)        105.8683                                         !
 ! A196  A(104,103,107)        108.9131                                         !
 ! A197  A(105,103,107)        110.3416                                         !
 ! A198  A(103,107,108)        109.3736                                         !
 ! A199  A(103,107,109)        109.6727                                         !
 ! A200  A(103,107,110)        114.9107                                         !
 ! A201  A(108,107,109)        106.5814                                         !
 ! A202  A(108,107,110)        107.1153                                         !
 ! A203  A(109,107,110)        108.8411                                         !
 ! A204  A(107,110,111)        109.6079                                         !
 ! A205  A(107,110,112)        109.8447                                         !
 ! A206  A(107,110,113)        109.0723                                         !
 ! A207  A(111,110,112)        107.3027                                         !
 ! A208  A(111,110,113)        110.6381                                         !
 ! A209  A(112,110,113)        110.3572                                         !
 ! A210  A(110,113,114)        111.9102                                         !
 ! A211  A(110,113,115)        111.3049                                         !
 ! A212  A(110,113,116)        115.004                                          !
 ! A213  A(114,113,115)        106.2311                                         !
 ! A214  A(114,113,116)        105.4623                                         !
 ! A215  A(115,113,116)        106.3307                                         !
 ! A216  A(113,116,117)        104.9081                                         !
 ! A217  A(113,116,118)        111.6457                                         !
 ! A218  A(113,116,119)        111.7718                                         !
 ! A219  A(117,116,118)        110.2683                                         !
 ! A220  A(117,116,119)        110.1247                                         !
 ! A221  A(118,116,119)        108.1173                                         !
 ! D1    D(2,1,5,6)              0.3197                                         !
 ! D2    D(2,1,5,7)           -115.4863                                         !
 ! D3    D(2,1,5,8)            122.8889                                         !
 ! D4    D(3,1,5,6)           -124.2378                                         !
 ! D5    D(3,1,5,7)            119.9563                                         !
 ! D6    D(3,1,5,8)             -1.6686                                         !
 ! D7    D(4,1,5,6)            118.0729                                         !
 ! D8    D(4,1,5,7)              2.267                                          !
 ! D9    D(4,1,5,8)           -119.3578                                         !
 ! D10   D(1,5,7,12)            -2.6407                                         !
 ! D11   D(1,5,7,13)           178.0337                                         !
 ! D12   D(6,5,7,12)          -116.91                                           !
 ! D13   D(6,5,7,13)            63.7644                                         !
 ! D14   D(8,5,7,12)           117.5544                                         !
 ! D15   D(8,5,7,13)           -61.7712                                         !
 ! D16   D(1,5,8,9)            178.2363                                         !
 ! D17   D(1,5,8,10)           -62.8538                                         !
 ! D18   D(1,5,8,11)            59.2269                                         !
 ! D19   D(6,5,8,9)            -61.0625                                         !
 ! D20   D(6,5,8,10)            57.8474                                         !
 ! D21   D(6,5,8,11)           179.9281                                         !
 ! D22   D(7,5,8,9)             63.8598                                         !
 ! D23   D(7,5,8,10)          -177.2303                                         !
 ! D24   D(7,5,8,11)           -55.1496                                         !
 ! D25   D(5,7,13,14)           -0.1641                                         !
 ! D26   D(5,7,13,15)          179.4704                                         !
 ! D27   D(12,7,13,14)        -179.4229                                         !
 ! D28   D(12,7,13,15)           0.2115                                         !
 ! D29   D(7,13,15,16)         -42.984                                          !
 ! D30   D(7,13,15,17)        -161.3507                                         !
 ! D31   D(7,13,15,18)          77.6934                                         !
 ! D32   D(14,13,15,16)        136.6864                                         !
 ! D33   D(14,13,15,17)         18.3198                                         !
 ! D34   D(14,13,15,18)       -102.6361                                         !
 ! D35   D(13,15,17,21)        -22.1411                                         !
 ! D36   D(13,15,17,37)        158.0076                                         !
 ! D37   D(16,15,17,21)       -139.457                                          !
 ! D38   D(16,15,17,37)         40.6916                                         !
 ! D39   D(18,15,17,21)         98.3942                                         !
 ! D40   D(18,15,17,37)        -81.4572                                         !
 ! D41   D(13,15,18,19)        -64.911                                          !
 ! D42   D(13,15,18,20)         50.8135                                         !
 ! D43   D(13,15,18,22)        171.9354                                         !
 ! D44   D(16,15,18,19)         55.6007                                         !
 ! D45   D(16,15,18,20)        171.3252                                         !
 ! D46   D(16,15,18,22)        -67.5529                                         !
 ! D47   D(17,15,18,19)        178.4666                                         !
 ! D48   D(17,15,18,20)        -65.809                                          !
 ! D49   D(17,15,18,22)         55.313                                          !
 ! D50   D(15,17,37,38)         10.8183                                         !
 ! D51   D(15,17,37,39)        169.4698                                         !
 ! D52   D(21,17,37,38)       -169.025                                          !
 ! D53   D(21,17,37,39)        -10.3735                                         !
 ! D54   D(15,18,22,23)       -107.6576                                         !
 ! D55   D(15,18,22,25)         58.7543                                         !
 ! D56   D(19,18,22,23)        132.5771                                         !
 ! D57   D(19,18,22,25)        -61.0111                                         !
 ! D58   D(20,18,22,23)         12.1235                                         !
 ! D59   D(20,18,22,25)        178.5354                                         !
 ! D60   D(18,22,23,24)         -8.0807                                         !
 ! D61   D(18,22,23,29)        170.3041                                         !
 ! D62   D(25,22,23,24)       -176.6748                                         !
 ! D63   D(25,22,23,29)          1.71                                           !
 ! D64   D(18,22,25,26)       -168.1735                                         !
 ! D65   D(18,22,25,27)          9.1359                                         !
 ! D66   D(23,22,25,26)          0.4061                                         !
 ! D67   D(23,22,25,27)        177.7155                                         !
 ! D68   D(22,23,29,26)         -3.2685                                         !
 ! D69   D(22,23,29,30)       -161.6273                                         !
 ! D70   D(24,23,29,26)        175.2766                                         !
 ! D71   D(24,23,29,30)         16.9177                                         !
 ! D72   D(22,25,26,29)         -2.3389                                         !
 ! D73   D(22,25,26,33)        177.0381                                         !
 ! D74   D(27,25,26,29)        179.8679                                         !
 ! D75   D(27,25,26,33)         -0.7552                                         !
 ! D76   D(22,25,27,28)          4.8543                                         !
 ! D77   D(22,25,27,35)       -176.228                                          !
 ! D78   D(26,25,27,28)       -178.0935                                         !
 ! D79   D(26,25,27,35)          0.8241                                         !
 ! D80   D(25,26,29,23)          3.4336                                         !
 ! D81   D(25,26,29,30)        161.4195                                         !
 ! D82   D(33,26,29,23)       -175.8718                                         !
 ! D83   D(33,26,29,30)        -17.8859                                         !
 ! D84   D(25,26,33,31)          0.0801                                         !
 ! D85   D(25,26,33,34)       -179.9524                                         !
 ! D86   D(29,26,33,31)        179.2976                                         !
 ! D87   D(29,26,33,34)         -0.7348                                         !
 ! D88   D(25,27,35,31)         -0.2547                                         !
 ! D89   D(25,27,35,36)       -179.8152                                         !
 ! D90   D(28,27,35,31)        178.6664                                         !
 ! D91   D(28,27,35,36)         -0.894                                          !
 ! D92   D(32,31,33,26)       -179.9052                                         !
 ! D93   D(32,31,33,34)          0.1273                                         !
 ! D94   D(35,31,33,26)          0.5154                                         !
 ! D95   D(35,31,33,34)       -179.4521                                         !
 ! D96   D(32,31,35,27)        179.9822                                         !
 ! D97   D(32,31,35,36)         -0.4553                                         !
 ! D98   D(33,31,35,27)         -0.4383                                         !
 ! D99   D(33,31,35,36)        179.1242                                         !
 ! D100  D(17,37,39,40)         42.4136                                         !
 ! D101  D(17,37,39,41)        -75.3823                                         !
 ! D102  D(17,37,39,42)        162.8749                                         !
 ! D103  D(38,37,39,40)       -158.8642                                         !
 ! D104  D(38,37,39,41)         83.3399                                         !
 ! D105  D(38,37,39,42)        -38.4029                                         !
 ! D106  D(37,39,41,45)        -94.8882                                         !
 ! D107  D(37,39,41,52)         85.649                                          !
 ! D108  D(40,39,41,45)        148.804                                          !
 ! D109  D(40,39,41,52)        -30.6589                                         !
 ! D110  D(42,39,41,45)         28.016                                          !
 ! D111  D(42,39,41,52)       -151.4468                                         !
 ! D112  D(37,39,42,43)        -52.0427                                         !
 ! D113  D(37,39,42,44)         66.4263                                         !
 ! D114  D(37,39,42,46)       -173.8032                                         !
 ! D115  D(40,39,42,43)         66.159                                          !
 ! D116  D(40,39,42,44)       -175.372                                          !
 ! D117  D(40,39,42,46)        -55.6015                                         !
 ! D118  D(41,39,42,43)       -173.9239                                         !
 ! D119  D(41,39,42,44)        -55.4549                                         !
 ! D120  D(41,39,42,46)         64.3156                                         !
 ! D121  D(39,41,52,53)          0.4521                                         !
 ! D122  D(39,41,52,54)        169.9294                                         !
 ! D123  D(45,41,52,53)       -179.001                                          !
 ! D124  D(45,41,52,54)         -9.5238                                         !
 ! D125  D(39,42,46,47)        -49.8957                                         !
 ! D126  D(39,42,46,48)         69.7883                                         !
 ! D127  D(39,42,46,49)       -169.4365                                         !
 ! D128  D(43,42,46,47)       -171.2813                                         !
 ! D129  D(43,42,46,48)        -51.5973                                         !
 ! D130  D(43,42,46,49)         69.1779                                         !
 ! D131  D(44,42,46,47)         69.0263                                         !
 ! D132  D(44,42,46,48)       -171.2898                                         !
 ! D133  D(44,42,46,49)        -50.5146                                         !
 ! D134  D(42,46,49,50)        129.3867                                         !
 ! D135  D(42,46,49,51)        -51.3175                                         !
 ! D136  D(47,46,49,50)          7.2862                                         !
 ! D137  D(47,46,49,51)       -173.4181                                         !
 ! D138  D(48,46,49,50)       -108.6025                                         !
 ! D139  D(48,46,49,51)         70.6932                                         !
 ! D140  D(46,49,51,121)      -179.4808                                         !
 ! D141  D(50,49,51,121)        -0.1657                                         !
 ! D142  D(41,52,54,55)         36.8281                                         !
 ! D143  D(41,52,54,56)        -80.405                                          !
 ! D144  D(41,52,54,57)        157.4606                                         !
 ! D145  D(53,52,54,55)       -153.7311                                         !
 ! D146  D(53,52,54,56)         89.0359                                         !
 ! D147  D(53,52,54,57)        -33.0985                                         !
 ! D148  D(52,54,56,59)        -81.1833                                         !
 ! D149  D(52,54,56,68)         95.5482                                         !
 ! D150  D(55,54,56,59)        163.5722                                         !
 ! D151  D(55,54,56,68)        -19.6963                                         !
 ! D152  D(57,54,56,59)         40.729                                          !
 ! D153  D(57,54,56,68)       -142.5395                                         !
 ! D154  D(52,54,57,58)         64.1842                                         !
 ! D155  D(52,54,57,60)       -178.7168                                         !
 ! D156  D(52,54,57,64)        -55.0833                                         !
 ! D157  D(55,54,57,58)       -176.9612                                         !
 ! D158  D(55,54,57,60)        -59.8623                                         !
 ! D159  D(55,54,57,64)         63.7712                                         !
 ! D160  D(56,54,57,58)        -54.1734                                         !
 ! D161  D(56,54,57,60)         62.9255                                         !
 ! D162  D(56,54,57,64)       -173.441                                          !
 ! D163  D(54,56,68,69)        -18.7679                                         !
 ! D164  D(54,56,68,70)       -168.2036                                         !
 ! D165  D(59,56,68,69)        157.8363                                         !
 ! D166  D(59,56,68,70)          8.4006                                         !
 ! D167  D(54,57,60,61)         62.2412                                         !
 ! D168  D(54,57,60,62)       -178.4166                                         !
 ! D169  D(54,57,60,63)        -58.7424                                         !
 ! D170  D(58,57,60,61)        178.517                                          !
 ! D171  D(58,57,60,62)        -62.1409                                         !
 ! D172  D(58,57,60,63)         57.5334                                         !
 ! D173  D(64,57,60,61)        -61.3407                                         !
 ! D174  D(64,57,60,62)         58.0014                                         !
 ! D175  D(64,57,60,63)        177.6757                                         !
 ! D176  D(54,57,64,65)        -62.6744                                         !
 ! D177  D(54,57,64,66)         58.2616                                         !
 ! D178  D(54,57,64,67)        178.7428                                         !
 ! D179  D(58,57,64,65)        179.5944                                         !
 ! D180  D(58,57,64,66)        -59.4696                                         !
 ! D181  D(58,57,64,67)         61.0116                                         !
 ! D182  D(60,57,64,65)         60.1869                                         !
 ! D183  D(60,57,64,66)       -178.8771                                         !
 ! D184  D(60,57,64,67)        -58.3959                                         !
 ! D185  D(56,68,70,71)         37.3408                                         !
 ! D186  D(56,68,70,72)        -80.3775                                         !
 ! D187  D(56,68,70,73)        157.3731                                         !
 ! D188  D(69,68,70,71)       -112.8261                                         !
 ! D189  D(69,68,70,72)        129.4556                                         !
 ! D190  D(69,68,70,73)          7.2062                                         !
 ! D191  D(68,70,72,75)       -102.7176                                         !
 ! D192  D(68,70,72,82)         76.4686                                         !
 ! D193  D(71,70,72,75)        139.0863                                         !
 ! D194  D(71,70,72,82)        -41.7276                                         !
 ! D195  D(73,70,72,75)         19.2557                                         !
 ! D196  D(73,70,72,82)       -161.5581                                         !
 ! D197  D(68,70,73,74)         81.7275                                         !
 ! D198  D(68,70,73,76)       -158.9675                                         !
 ! D199  D(68,70,73,80)        -33.7823                                         !
 ! D200  D(71,70,73,74)       -159.2301                                         !
 ! D201  D(71,70,73,76)        -39.9251                                         !
 ! D202  D(71,70,73,80)         85.2601                                         !
 ! D203  D(72,70,73,74)        -40.8628                                         !
 ! D204  D(72,70,73,76)         78.4421                                         !
 ! D205  D(72,70,73,80)       -156.3727                                         !
 ! D206  D(70,72,82,83)         -1.0204                                         !
 ! D207  D(70,72,82,84)        168.4724                                         !
 ! D208  D(75,72,82,83)        178.1525                                         !
 ! D209  D(75,72,82,84)        -12.3547                                         !
 ! D210  D(70,73,76,77)        -48.0585                                         !
 ! D211  D(70,73,76,78)         70.3379                                         !
 ! D212  D(70,73,76,79)       -170.5993                                         !
 ! D213  D(74,73,76,77)         69.0689                                         !
 ! D214  D(74,73,76,78)       -172.5348                                         !
 ! D215  D(74,73,76,79)        -53.472                                          !
 ! D216  D(80,73,76,77)       -172.0213                                         !
 ! D217  D(80,73,76,78)        -53.625                                          !
 ! D218  D(80,73,76,79)         65.4378                                         !
 ! D219  D(70,73,80,81)       -109.5034                                         !
 ! D220  D(74,73,80,81)        135.0608                                         !
 ! D221  D(76,73,80,81)         14.1801                                         !
 ! D222  D(72,82,84,85)         52.9594                                         !
 ! D223  D(72,82,84,86)        -65.1914                                         !
 ! D224  D(72,82,84,87)        172.0253                                         !
 ! D225  D(83,82,84,85)       -137.8001                                         !
 ! D226  D(83,82,84,86)        104.0491                                         !
 ! D227  D(83,82,84,87)        -18.7342                                         !
 ! D228  D(82,84,86,89)        -25.2444                                         !
 ! D229  D(82,84,86,98)        151.7855                                         !
 ! D230  D(85,84,86,89)       -142.9644                                         !
 ! D231  D(85,84,86,98)         34.0655                                         !
 ! D232  D(87,84,86,89)         94.6618                                         !
 ! D233  D(87,84,86,98)        -88.3083                                         !
 ! D234  D(82,84,87,88)         66.0088                                         !
 ! D235  D(82,84,87,90)       -175.0998                                         !
 ! D236  D(82,84,87,94)        -52.1858                                         !
 ! D237  D(85,84,87,88)       -175.5128                                         !
 ! D238  D(85,84,87,90)        -56.6213                                         !
 ! D239  D(85,84,87,94)         66.2926                                         !
 ! D240  D(86,84,87,88)        -53.2879                                         !
 ! D241  D(86,84,87,90)         65.6035                                         !
 ! D242  D(86,84,87,94)       -171.4825                                         !
 ! D243  D(84,86,98,99)         21.637                                          !
 ! D244  D(84,86,98,100)       157.5689                                         !
 ! D245  D(89,86,98,99)       -161.5338                                         !
 ! D246  D(89,86,98,100)       -25.6019                                         !
 ! D247  D(84,87,90,91)         64.1613                                         !
 ! D248  D(84,87,90,92)        -56.0857                                         !
 ! D249  D(84,87,90,93)       -177.7843                                         !
 ! D250  D(88,87,90,91)       -178.2833                                         !
 ! D251  D(88,87,90,92)         61.4697                                         !
 ! D252  D(88,87,90,93)        -60.2288                                         !
 ! D253  D(94,87,90,91)        -59.7102                                         !
 ! D254  D(94,87,90,92)       -179.9573                                         !
 ! D255  D(94,87,90,93)         58.3442                                         !
 ! D256  D(84,87,94,95)        -58.0177                                         !
 ! D257  D(84,87,94,96)       -176.0985                                         !
 ! D258  D(84,87,94,97)         63.6476                                         !
 ! D259  D(88,87,94,95)       -174.8465                                         !
 ! D260  D(88,87,94,96)         67.0727                                         !
 ! D261  D(88,87,94,97)        -53.1812                                         !
 ! D262  D(90,87,94,95)         66.5698                                         !
 ! D263  D(90,87,94,96)        -51.5109                                         !
 ! D264  D(90,87,94,97)       -171.7649                                         !
 ! D265  D(86,98,100,101)      -17.0609                                         !
 ! D266  D(86,98,100,102)     -133.4456                                         !
 ! D267  D(86,98,100,103)      107.7116                                         !
 ! D268  D(99,98,100,101)      125.0034                                         !
 ! D269  D(99,98,100,102)        8.6186                                         !
 ! D270  D(99,98,100,103)     -110.2242                                         !
 ! D271  D(98,100,102,106)     178.1829                                         !
 ! D272  D(98,100,102,120)      -3.0577                                         !
 ! D273  D(101,100,102,106)     61.763                                          !
 ! D274  D(101,100,102,120)   -119.4775                                         !
 ! D275  D(103,100,102,106)    -56.3572                                         !
 ! D276  D(103,100,102,120)    122.4022                                         !
 ! D277  D(98,100,103,104)     160.729                                          !
 ! D278  D(98,100,103,105)      48.6284                                         !
 ! D279  D(98,100,103,107)     -78.9956                                         !
 ! D280  D(101,100,103,104)    -74.5051                                         !
 ! D281  D(101,100,103,105)    173.3943                                         !
 ! D282  D(101,100,103,107)     45.7703                                         !
 ! D283  D(102,100,103,104)     43.5741                                         !
 ! D284  D(102,100,103,105)    -68.5265                                         !
 ! D285  D(102,100,103,107)    163.8495                                         !
 ! D286  D(100,103,107,108)   -139.4621                                         !
 ! D287  D(100,103,107,109)    -22.9124                                         !
 ! D288  D(100,103,107,110)    100.056                                          !
 ! D289  D(104,103,107,108)    -22.3429                                         !
 ! D290  D(104,103,107,109)     94.2068                                         !
 ! D291  D(104,103,107,110)   -142.8247                                         !
 ! D292  D(105,103,107,108)     93.4604                                         !
 ! D293  D(105,103,107,109)   -149.9899                                         !
 ! D294  D(105,103,107,110)    -27.0215                                         !
 ! D295  D(103,107,110,111)     59.6947                                         !
 ! D296  D(103,107,110,112)    177.3551                                         !
 ! D297  D(103,107,110,113)    -61.5744                                         !
 ! D298  D(108,107,110,111)    -62.0214                                         !
 ! D299  D(108,107,110,112)     55.639                                          !
 ! D300  D(108,107,110,113)    176.7095                                         !
 ! D301  D(109,107,110,111)   -176.8927                                         !
 ! D302  D(109,107,110,112)    -59.2324                                         !
 ! D303  D(109,107,110,113)     61.8382                                         !
 ! D304  D(107,110,113,114)     62.9261                                         !
 ! D305  D(107,110,113,115)    -55.7741                                         !
 ! D306  D(107,110,113,116)   -176.765                                          !
 ! D307  D(111,110,113,114)    -57.7137                                         !
 ! D308  D(111,110,113,115)   -176.4139                                         !
 ! D309  D(111,110,113,116)     62.5952                                         !
 ! D310  D(112,110,113,114)   -176.3166                                         !
 ! D311  D(112,110,113,115)     64.9833                                         !
 ! D312  D(112,110,113,116)    -56.0077                                         !
 ! D313  D(110,113,116,117)    176.6425                                         !
 ! D314  D(110,113,116,118)    -63.9292                                         !
 ! D315  D(110,113,116,119)     57.3197                                         !
 ! D316  D(114,113,116,117)    -59.563                                          !
 ! D317  D(114,113,116,118)     59.8653                                         !
 ! D318  D(114,113,116,119)   -178.8859                                         !
 ! D319  D(115,113,116,117)     52.9722                                         !
 ! D320  D(115,113,116,118)    172.4005                                         !
 ! D321  D(115,113,116,119)    -66.3507                                         !
 --------------------------------------------------------------------------------
 Symmetry turned off by external request.
 Stoichiometry    C39H62N9O11(1+)
 Framework group  C1[X(C39H62N9O11)]
 Deg. of freedom   357
 Full point group                 C1      NOp   1
                          Input orientation:                          
 ---------------------------------------------------------------------
 Center     Atomic      Atomic             Coordinates (Angstroms)
 Number     Number       Type             X           Y           Z
 ---------------------------------------------------------------------
      1          7           0       -6.764087   -6.682309   -2.294845
      2          1           0       -7.398919   -6.930109   -1.534673
      3          1           0       -6.602426   -7.510329   -2.871281
      4          1           0       -7.171047   -5.870280   -2.886657
      5          6           0       -5.481638   -6.029735   -1.827778
      6          1           0       -5.512283   -5.968185   -0.737401
      7          6           0       -5.608148   -4.609842   -2.445424
      8          6           0       -4.252653   -6.798472   -2.302835
      9          1           0       -3.344598   -6.286688   -1.977116
     10          1           0       -4.231110   -7.806868   -1.881413
     11          1           0       -4.226015   -6.859152   -3.395086
     12          8           0       -6.609362   -4.390886   -3.152445
     13          7           0       -4.642524   -3.747287   -2.188060
     14          1           0       -3.831030   -3.966515   -1.609140
     15          6           0       -4.605226   -2.380330   -2.699875
     16          1           0       -4.900681   -2.384923   -3.751427
     17          6           0       -3.139207   -1.950709   -2.552703
     18          6           0       -5.566651   -1.450058   -1.896946
     19          1           0       -6.584023   -1.811750   -2.081338
     20          1           0       -5.352758   -1.580923   -0.831365
     21          8           0       -2.415419   -2.534704   -1.732937
     22          6           0       -5.386460   -0.021003   -2.289284
     23          6           0       -4.790523    0.957907   -1.531533
     24          1           0       -4.460015    0.919863   -0.504088
     25          6           0       -5.549544    0.527066   -3.616146
     26          6           0       -5.015232    1.847959   -3.582693
     27          6           0       -6.046714    0.021394   -4.832479
     28          1           0       -6.488224   -0.970359   -4.882446
     29          7           0       -4.605687    2.094089   -2.287736
     30          1           0       -3.958903    2.823520   -2.027328
     31          6           0       -5.440119    2.120661   -5.911730
     32          1           0       -5.405990    2.719622   -6.815629
     33          6           0       -4.954448    2.653720   -4.723704
     34          1           0       -4.543930    3.657274   -4.681980
     35          6           0       -5.984467    0.821144   -5.966165
     36          1           0       -6.366412    0.446114   -6.909860
     37          7           0       -2.727273   -0.942488   -3.339795
     38          1           0       -3.431967   -0.419917   -3.852213
     39          6           0       -1.429010   -0.301805   -3.127408
     40          1           0       -0.715051   -1.105329   -2.924095
     41          6           0       -1.498761    0.629344   -1.896142
     42          6           0       -0.991880    0.499094   -4.351045
     43          1           0       -1.044066   -0.126572   -5.245200
     44          1           0       -1.679091    1.341376   -4.476450
     45          8           0       -1.732563    1.834231   -2.007256
     46          6           0        0.439371    1.021712   -4.138348
     47          1           0        0.529347    1.515822   -3.170900
     48          1           0        1.148736    0.185268   -4.167858
     49          6           0        0.882486    2.030450   -5.165861
     50          8           0        1.376135    3.114748   -4.906406
     51          8           0        0.693924    1.612092   -6.426785
     52          7           0       -1.274653    0.024298   -0.712331
     53          1           0       -1.073953   -0.967692   -0.700933
     54          6           0       -1.091654    0.803737    0.511669
     55          1           0       -1.768025    1.661019    0.450703
     56          6           0        0.369965    1.283497    0.483312
     57          6           0       -1.402180   -0.024217    1.763649
     58          1           0       -0.662023   -0.833175    1.801087
     59          8           0        1.281524    0.532869    0.839010
     60          6           0       -1.228276    0.840352    3.017832
     61          1           0       -1.931423    1.681342    3.013581
     62          1           0       -1.420536    0.250329    3.917879
     63          1           0       -0.214418    1.239677    3.095328
     64          6           0       -2.810861   -0.626223    1.694210
     65          1           0       -3.569919    0.165377    1.663122
     66          1           0       -2.944107   -1.262372    0.813790
     67          1           0       -3.008038   -1.231450    2.583701
     68          7           0        0.565766    2.527567   -0.014361
     69          1           0       -0.174395    2.928279   -0.585788
     70          6           0        1.914757    2.994698   -0.331817
     71          1           0        2.482295    2.151725   -0.746503
     72          6           0        2.650401    3.467573    0.945144
     73          6           0        1.843756    4.140574   -1.366145
     74          1           0        1.620345    5.054135   -0.804374
     75          8           0        2.784916    4.682355    1.214493
     76          6           0        3.183026    4.281865   -2.084283
     77          1           0        4.015606    4.295502   -1.374980
     78          1           0        3.345793    3.427824   -2.749551
     79          1           0        3.204886    5.188283   -2.697256
     80          8           0        0.761918    3.938690   -2.260259
     81          1           0        1.087453    3.704590   -3.149336
     82          7           0        3.103755    2.498347    1.725851
     83          1           0        2.910632    1.550238    1.419009
     84          6           0        4.025611    2.700999    2.841781
     85          1           0        3.613892    3.473707    3.499498
     86          6           0        5.375125    3.196237    2.249914
     87          6           0        4.154772    1.368913    3.623906
     88          1           0        4.645534    0.655646    2.945655
     89          8           0        5.668077    2.910144    1.079515
     90          6           0        5.010610    1.515672    4.886253
     91          1           0        4.532325    2.198630    5.597763
     92          1           0        6.013541    1.904997    4.711902
     93          1           0        5.102059    0.542298    5.377566
     94          6           0        2.771304    0.814405    4.006121
     95          1           0        2.221588    1.547416    4.608858
     96          1           0        2.892452   -0.086379    4.615187
     97          1           0        2.155722    0.548955    3.143363
     98          7           0        6.107474    3.969561    3.065579
     99          1           0        5.960652    3.938135    4.103266
    100          6           0        7.558783    4.161161    2.943383
    101          1           0        7.972505    3.368147    2.312467
    102          6           0        8.107268    3.981907    4.430846
    103          6           0        8.054530    5.522897    2.429421
    104          1           0        9.096631    5.542417    2.759297
    105          1           0        7.548084    6.325057    2.985440
    106          8           0        9.333698    4.069632    4.559646
    107          6           0        8.004335    5.806895    0.912467
    108          1           0        8.914435    6.336678    0.611732
    109          1           0        7.996361    4.859913    0.359680
    110          6           0        6.808768    6.661995    0.451657
    111          1           0        6.836150    7.637044    0.957383
    112          1           0        6.880219    6.851945   -0.628825
    113          6           0        5.526548    5.931466    0.773018
    114          1           0        5.398894    5.786852    1.844879
    115          1           0        5.515333    4.935940    0.327611
    116          7           0        4.264746    6.620109    0.306243
    117          1           0        3.477683    5.949539    0.558051
    118          1           0        4.129250    7.517017    0.775811
    119          1           0        4.275004    6.787393   -0.701022
    120          8           0        7.193497    3.795839    5.292082
    121          1           0        1.013213    2.317160   -7.016890
 ---------------------------------------------------------------------
 Rotational constants (GHZ):           0.0761090           0.0179191           0.0158901
 Standard basis: 6-31G(d,p) (6D, 7F)
  1195 basis functions,  2086 primitive gaussians,  1195 cartesian basis functions
   223 alpha electrons      223 beta electrons
       nuclear repulsion energy      9162.7822733360 Hartrees.
 NAtoms=  121 NActive=  121 NUniq=  121 SFac= 1.00D+00 NAtFMM=   60 NAOKFM=T Big=T
 Integral buffers will be    131072 words long.
 Raffenetti 2 integral format.
 Two-electron integral symmetry is turned off.
 Nuclear repulsion after empirical dispersion term =     9162.5001475853 Hartrees.
 One-electron integrals computed using PRISM.
 NBasis=  1195 RedAO= T EigKep=  3.73D-04  NBF=  1195
 NBsUse=  1195 1.00D-06 EigRej= -1.00D+00 NBFU=  1195
 Initial guess from the checkpoint file:  "conf-304.chk"
 B after Tr=     0.000000    0.000000    0.000000
         Rot=    1.000000    0.000000    0.000000    0.000000 Ang=   0.00 deg.
 Requested convergence on RMS density matrix=1.00D-08 within 128 cycles.
 Requested convergence on MAX density matrix=1.00D-06.
 Requested convergence on             energy=1.00D-06.
 No special actions if energy rises.
 SCF Done:  E(RB3LYP) =  -2843.99626629     A.U. after    3 cycles
            NFock=  3  Conv=0.55D-09     -V/T= 2.0092
 Hyperfine terms turned off by default for NAtoms > 100.

 **********************************************************************

            Population analysis using the SCF Density.

 **********************************************************************

 Alpha  occ. eigenvalues --  -19.29581 -19.29344 -19.25028 -19.24110 -19.21929
 Alpha  occ. eigenvalues --  -19.21243 -19.20344 -19.19873 -19.13600 -19.05785
 Alpha  occ. eigenvalues --  -19.04511 -14.61371 -14.52062 -14.51773 -14.48306
 Alpha  occ. eigenvalues --  -14.46455 -14.46039 -14.44056 -14.41959 -14.35448
 Alpha  occ. eigenvalues --  -10.46036 -10.43265 -10.42092 -10.41623 -10.38773
 Alpha  occ. eigenvalues --  -10.37004 -10.36748 -10.36218 -10.35797 -10.34299
 Alpha  occ. eigenvalues --  -10.31877 -10.31657 -10.31171 -10.31159 -10.30959
 Alpha  occ. eigenvalues --  -10.30623 -10.30367 -10.29597 -10.29565 -10.28959
 Alpha  occ. eigenvalues --  -10.27937 -10.27867 -10.27805 -10.27735 -10.27662
 Alpha  occ. eigenvalues --  -10.27148 -10.26956 -10.26951 -10.26241 -10.26009
 Alpha  occ. eigenvalues --  -10.24780 -10.24637 -10.23397 -10.23202 -10.21489
 Alpha  occ. eigenvalues --  -10.21216 -10.20638 -10.18859 -10.18552  -1.22013
 Alpha  occ. eigenvalues --   -1.20485  -1.16835  -1.15381  -1.13930  -1.12203
 Alpha  occ. eigenvalues --   -1.11359  -1.10980  -1.08947  -1.08809  -1.06864
 Alpha  occ. eigenvalues --   -1.06435  -1.04980  -1.04980  -1.02548  -1.00410
 Alpha  occ. eigenvalues --   -0.98850  -0.98616  -0.95612  -0.93030  -0.92558
 Alpha  occ. eigenvalues --   -0.92141  -0.90657  -0.89794  -0.89234  -0.87124
 Alpha  occ. eigenvalues --   -0.85984  -0.85126  -0.84121  -0.83925  -0.83393
 Alpha  occ. eigenvalues --   -0.82376  -0.81380  -0.80643  -0.78443  -0.78071
 Alpha  occ. eigenvalues --   -0.77704  -0.76617  -0.75899  -0.75126  -0.74896
 Alpha  occ. eigenvalues --   -0.73926  -0.72887  -0.72465  -0.71389  -0.71074
 Alpha  occ. eigenvalues --   -0.71044  -0.69967  -0.69194  -0.68898  -0.68423
 Alpha  occ. eigenvalues --   -0.67892  -0.67669  -0.66683  -0.66277  -0.65965
 Alpha  occ. eigenvalues --   -0.65866  -0.65537  -0.65044  -0.63190  -0.62598
 Alpha  occ. eigenvalues --   -0.62473  -0.62031  -0.61431  -0.61011  -0.60704
 Alpha  occ. eigenvalues --   -0.60643  -0.59908  -0.59537  -0.59275  -0.58337
 Alpha  occ. eigenvalues --   -0.58277  -0.57966  -0.57300  -0.57196  -0.57071
 Alpha  occ. eigenvalues --   -0.56634  -0.56495  -0.56142  -0.56102  -0.55867
 Alpha  occ. eigenvalues --   -0.55270  -0.54949  -0.54225  -0.54119  -0.53859
 Alpha  occ. eigenvalues --   -0.53353  -0.53151  -0.52930  -0.52634  -0.52296
 Alpha  occ. eigenvalues --   -0.51954  -0.51805  -0.51709  -0.51368  -0.50956
 Alpha  occ. eigenvalues --   -0.50840  -0.50446  -0.50081  -0.49535  -0.49206
 Alpha  occ. eigenvalues --   -0.49168  -0.48744  -0.48653  -0.48174  -0.48039
 Alpha  occ. eigenvalues --   -0.47479  -0.47358  -0.47162  -0.46804  -0.46587
 Alpha  occ. eigenvalues --   -0.46368  -0.46248  -0.46041  -0.45862  -0.45549
 Alpha  occ. eigenvalues --   -0.45324  -0.44979  -0.44665  -0.44501  -0.44408
 Alpha  occ. eigenvalues --   -0.44150  -0.44106  -0.43109  -0.42721  -0.42531
 Alpha  occ. eigenvalues --   -0.42207  -0.42092  -0.41971  -0.41757  -0.41594
 Alpha  occ. eigenvalues --   -0.41478  -0.41165  -0.41064  -0.40509  -0.40020
 Alpha  occ. eigenvalues --   -0.39681  -0.39500  -0.39003  -0.38862  -0.37367
 Alpha  occ. eigenvalues --   -0.37241  -0.37019  -0.36879  -0.36436  -0.36259
 Alpha  occ. eigenvalues --   -0.36112  -0.35865  -0.35360  -0.34953  -0.34635
 Alpha  occ. eigenvalues --   -0.34411  -0.33963  -0.33357  -0.32701  -0.32390
 Alpha  occ. eigenvalues --   -0.31999  -0.31373  -0.29554  -0.27757  -0.26968
 Alpha  occ. eigenvalues --   -0.20798  -0.20712  -0.18616
 Alpha virt. eigenvalues --   -0.14767  -0.12651  -0.11200  -0.10256  -0.09122
 Alpha virt. eigenvalues --   -0.08603  -0.07801  -0.06926  -0.06670  -0.06384
 Alpha virt. eigenvalues --   -0.05763  -0.04597  -0.03731  -0.03505  -0.02466
 Alpha virt. eigenvalues --   -0.01828  -0.01223  -0.01116  -0.00780  -0.00702
 Alpha virt. eigenvalues --   -0.00029   0.00399   0.00661   0.00782   0.01113
 Alpha virt. eigenvalues --    0.01747   0.02190   0.02383   0.03148   0.03594
 Alpha virt. eigenvalues --    0.03787   0.03979   0.04406   0.04695   0.05064
[...]
 Alpha virt. eigenvalues --    1.64466   1.64980   1.65493   1.65698   1.66030
 Alpha virt. eigenvalues --    1.66997   1.67481   1.67758   1.68133   1.68387
 Alpha virt. eigenvalues --    1.68752   1.69022   1.69267   1.69492   1.69846
 Alpha virt. eigenvalues --    1.70481   1.70979   1.71257   1.71398   1.71820
 Alpha virt. eigenvalues --    1.72063   1.72678   1.72940   1.73150   1.73654
 Alpha virt. eigenvalues --    1.73883   1.74377   1.74640   1.74824   1.75716
 Alpha virt. eigenvalues --    1.76091   1.76122   1.76393   1.76913   1.77078
 Alpha virt. eigenvalues --    1.77490   1.77700   1.77866   1.78298   1.78511
 Alpha virt. eigenvalues --    1.78686   1.78950   1.79045   1.79304   1.79951
 Alpha virt. eigenvalues --    1.80491   1.81229   1.81243   1.81406   1.81712
 Alpha virt. eigenvalues --    1.81994   1.82377   1.82448   1.82593   1.82804
 Alpha virt. eigenvalues --    1.83763   1.83871   1.84006   1.84271   1.84615
 Alpha virt. eigenvalues --    1.84933   1.85031   1.85336   1.85894   1.86032
 Alpha virt. eigenvalues --    1.86314   1.86642   1.87185   1.87635   1.87866
 Alpha virt. eigenvalues --    1.88016   1.88283   1.88630   1.88725   1.89339
 Alpha virt. eigenvalues --    1.89521   1.89817   1.90090   1.90704   1.91045
 Alpha virt. eigenvalues --    1.91440   1.91647   1.92065   1.92282   1.92440
 Alpha virt. eigenvalues --    1.93310   1.93359   1.93541   1.93803   1.94331
 Alpha virt. eigenvalues --    1.94559   1.94695   1.95000   1.95046   1.95504
 Alpha virt. eigenvalues --    1.95819   1.96208   1.96342   1.96671   1.97001
 Alpha virt. eigenvalues --    1.97262   1.97584   1.97821   1.98359   1.98870
 Alpha virt. eigenvalues --    1.99154   1.99299   1.99674   1.99815   1.99910
 Alpha virt. eigenvalues --    2.00265   2.00747   2.01155   2.01349   2.01620
 Alpha virt. eigenvalues --    2.01820   2.02697   2.03368   2.03527   2.03779
 Alpha virt. eigenvalues --    2.04413   2.04902   2.05026   2.05308   2.05611
 Alpha virt. eigenvalues --    2.05941   2.06088   2.06405   2.06702   2.06860
 Alpha virt. eigenvalues --    2.07218   2.07617   2.07869   2.08135   2.08496
 Alpha virt. eigenvalues --    2.09218   2.09900   2.10148   2.10262   2.10881
 Alpha virt. eigenvalues --    2.11110   2.11363   2.11754   2.12178   2.12300
 Alpha virt. eigenvalues --    2.12574   2.12636   2.12957   2.13126   2.14046
 Alpha virt. eigenvalues --    2.14154   2.14549   2.14829   2.15021   2.15852
 Alpha virt. eigenvalues --    2.16256   2.16797   2.17538   2.17597   2.17975
 Alpha virt. eigenvalues --    2.18443   2.18969   2.19120   2.19587   2.19845
 Alpha virt. eigenvalues --    2.20598   2.20692   2.21094   2.21337   2.21797
 Alpha virt. eigenvalues --    2.22241   2.22361   2.22812   2.23417   2.23710
 Alpha virt. eigenvalues --    2.24422   2.24938   2.25509   2.26614   2.26662
 Alpha virt. eigenvalues --    2.27037   2.27128   2.27673   2.27761   2.27907
 Alpha virt. eigenvalues --    2.28665   2.29317   2.29559   2.29740   2.29931
 Alpha virt. eigenvalues --    2.30240   2.30663   2.30950   2.31243   2.31502
 Alpha virt. eigenvalues --    2.32023   2.32464   2.33071   2.33210   2.33416
 Alpha virt. eigenvalues --    2.33939   2.34180   2.34709   2.35176   2.35676
 Alpha virt. eigenvalues --    2.36080   2.36617   2.36775   2.37439   2.37597
 Alpha virt. eigenvalues --    2.37957   2.38914   2.39348   2.39527   2.39586
 Alpha virt. eigenvalues --    2.40004   2.40323   2.41008   2.41759   2.42189
 Alpha virt. eigenvalues --    2.42428   2.42724   2.43115   2.43494   2.43520
 Alpha virt. eigenvalues --    2.44558   2.44930   2.45481   2.45827   2.46109
 Alpha virt. eigenvalues --    2.46313   2.46889   2.47215   2.47641   2.48363
 Alpha virt. eigenvalues --    2.48762   2.49259   2.49430   2.50029   2.50282
 Alpha virt. eigenvalues --    2.50422   2.51275   2.51370   2.52215   2.52874
 Alpha virt. eigenvalues --    2.53253   2.53325   2.53865   2.54159   2.54320
 Alpha virt. eigenvalues --    2.54649   2.54726   2.55126   2.55686   2.55824
 Alpha virt. eigenvalues --    2.56000   2.56486   2.56808   2.57131   2.57435
 Alpha virt. eigenvalues --    2.58086   2.58421   2.58436   2.59059   2.59912
 Alpha virt. eigenvalues --    2.60197   2.60501   2.60751   2.61080   2.61402
 Alpha virt. eigenvalues --    2.61729   2.62297   2.62325   2.63187   2.63362
 Alpha virt. eigenvalues --    2.63512   2.63854   2.64713   2.65114   2.65795
 Alpha virt. eigenvalues --    2.65938   2.66587   2.66869   2.66914   2.67383
 Alpha virt. eigenvalues --    2.67586   2.67956   2.68030   2.68734   2.69092
 Alpha virt. eigenvalues --    2.69211   2.69552   2.69938   2.70090   2.70125
 Alpha virt. eigenvalues --    2.70966   2.71538   2.71647   2.72248   2.72636
 Alpha virt. eigenvalues --    2.73025   2.73228   2.73595   2.74400   2.74865
 Alpha virt. eigenvalues --    2.75147   2.75765   2.75888   2.76284   2.76777
 Alpha virt. eigenvalues --    2.76915   2.77360   2.77825   2.78296   2.78413
 Alpha virt. eigenvalues --    2.78813   2.79152   2.79814   2.80018   2.80306
 Alpha virt. eigenvalues --    2.80415   2.80681   2.81399   2.81750   2.82291
 Alpha virt. eigenvalues --    2.82834   2.82934   2.83258   2.83698   2.83858
 Alpha virt. eigenvalues --    2.84035   2.84442   2.84815   2.85174   2.85629
 Alpha virt. eigenvalues --    2.86022   2.86135   2.87391   2.88189   2.88570
 Alpha virt. eigenvalues --    2.89349   2.89557   2.89920   2.90640   2.91068
 Alpha virt. eigenvalues --    2.91943   2.92415   2.92936   2.93276   2.93409
 Alpha virt. eigenvalues --    2.93565   2.94430   2.95246   2.95786   2.96595
 Alpha virt. eigenvalues --    2.96859   2.98464   2.98863   2.99499   2.99537
 Alpha virt. eigenvalues --    3.00212   3.00339   3.00846   3.01854   3.03532
 Alpha virt. eigenvalues --    3.04362   3.04920   3.05802   3.07557   3.08165
 Alpha virt. eigenvalues --    3.09335   3.09581   3.10234   3.11518   3.11907
 Alpha virt. eigenvalues --    3.12622   3.13653   3.14402   3.14643   3.15458
 Alpha virt. eigenvalues --    3.16402   3.17006   3.18014   3.18072   3.18840
 Alpha virt. eigenvalues --    3.19986   3.20095   3.20815   3.21987   3.22169
 Alpha virt. eigenvalues --    3.22603   3.22807   3.23561   3.25517   3.26210
 Alpha virt. eigenvalues --    3.28003   3.28099   3.28391   3.29143   3.29330
 Alpha virt. eigenvalues --    3.29640   3.30499   3.31279   3.32800   3.33090
 Alpha virt. eigenvalues --    3.33497   3.35006   3.35466   3.37260   3.38437
 Alpha virt. eigenvalues --    3.38666   3.38829   3.39695   3.40063   3.40152
 Alpha virt. eigenvalues --    3.40606   3.41924   3.41947   3.42965   3.43615
 Alpha virt. eigenvalues --    3.44320   3.45027   3.45821   3.46800   3.47057
 Alpha virt. eigenvalues --    3.47413   3.48346   3.48621   3.49253   3.49648
 Alpha virt. eigenvalues --    3.51132   3.51765   3.53473   3.54305   3.54740
 Alpha virt. eigenvalues --    3.55844   3.60196   3.77304   3.88374   3.91221
 Alpha virt. eigenvalues --    3.99158   4.02847   4.02899   4.03600   4.05332
 Alpha virt. eigenvalues --    4.06061   4.06469   4.07010   4.09133   4.10562
 Alpha virt. eigenvalues --    4.11611   4.12257   4.15910   4.17089   4.19509
 Alpha virt. eigenvalues --    4.20668   4.21549   4.23466   4.25284   4.26728
 Alpha virt. eigenvalues --    4.26979   4.28574   4.29728   4.31438   4.31988
 Alpha virt. eigenvalues --    4.33900   4.34347   4.35998   4.37401   4.37864
 Alpha virt. eigenvalues --    4.38631   4.41360   4.42681   4.43562   4.44160
 Alpha virt. eigenvalues --    4.44957   4.45671   4.47635   4.49729   4.50539
 Alpha virt. eigenvalues --    4.51371   4.51981   4.53432   4.57182   4.59765
 Alpha virt. eigenvalues --    4.60180   4.61015   4.63062   4.64607   4.68291
 Alpha virt. eigenvalues --    4.69617   4.71506   4.71839   4.73071   4.77004
 Alpha virt. eigenvalues --    4.81125   4.81372
          Condensed to atoms (all electrons):
 Mulliken charges:
               1
     1  N   -0.559734
     2  H    0.354963
     3  H    0.350516
     4  H    0.381154
     5  C   -0.089910
     6  H    0.190601
     7  C    0.644725
     8  C   -0.343542
     9  H    0.174523
    10  H    0.160492
    11  H    0.154887
    12  O   -0.541848
    13  N   -0.524168
    14  H    0.303062
    15  C   -0.017024
    16  H    0.156714
    17  C    0.618645
    18  C   -0.231541
    19  H    0.140765
    20  H    0.118433
    21  O   -0.569057
    22  C    0.006574
    23  C    0.067534
    24  H    0.120747
    25  C    0.003739
    26  C    0.278039
    27  C   -0.162649
    28  H    0.087830
    29  N   -0.575841
    30  H    0.286957
    31  C   -0.107005
    32  H    0.103932
    33  C   -0.097785
    34  H    0.106202
    35  C   -0.092625
    36  H    0.097584
    37  N   -0.519222
    38  H    0.297902
    39  C   -0.017354
    40  H    0.137523
    41  C    0.626892
    42  C   -0.199763
    43  H    0.132536
    44  H    0.142998
    45  O   -0.557075
    46  C   -0.270293
    47  H    0.149095
    48  H    0.148704
    49  C    0.590382
    50  O   -0.484660
    51  O   -0.461307
    52  N   -0.520962
    53  H    0.292123
    54  C    0.015786
    55  H    0.116946
    56  C    0.612087
    57  C   -0.083917
    58  H    0.121828
    59  O   -0.542933
    60  C   -0.328641
    61  H    0.104108
    62  H    0.118849
    63  H    0.137946
    64  C   -0.330151
    65  H    0.103946
    66  H    0.096198
    67  H    0.116452
    68  N   -0.529366
    69  H    0.308477
    70  C   -0.032227
    71  H    0.131991
    72  C    0.650355
    73  C    0.177485
    74  H    0.097531
    75  O   -0.613953
    76  C   -0.376837
    77  H    0.125252
    78  H    0.130212
    79  H    0.114456
    80  O   -0.597521
    81  H    0.349954
    82  N   -0.495968
    83  H    0.305165
    84  C    0.017263
    85  H    0.121429
    86  C    0.584817
    87  C   -0.095827
    88  H    0.101534
    89  O   -0.582507
    90  C   -0.320932
    91  H    0.105879
    92  H    0.159534
    93  H    0.095633
    94  C   -0.330680
    95  H    0.100736
    96  H    0.107565
    97  H    0.111224
    98  N   -0.530876
    99  H    0.293346
   100  C   -0.040064
   101  H    0.110300
   102  C    0.581704
   103  C   -0.191368
   104  H    0.151034
   105  H    0.076262
   106  O   -0.568693
   107  C   -0.185920
   108  H    0.102620
   109  H    0.116990
   110  C   -0.197772
   111  H    0.102566
   112  H    0.086000
   113  C   -0.132474
   114  H    0.183383
   115  H    0.193495
   116  N   -0.582371
   117  H    0.396379
   118  H    0.327445
   119  H    0.319127
   120  O   -0.613781
   121  H    0.340083
 Sum of Mulliken charges =   1.00000
 Mulliken charges with hydrogens summed into heavy atoms:
               1
     1  N    0.526898
     5  C    0.100691
     7  C    0.644725
     8  C    0.146360
    12  O   -0.541848
    13  N   -0.221106
    15  C    0.139690
    17  C    0.618645
    18  C    0.027658
    21  O   -0.569057
    22  C    0.006574
    23  C    0.188281
    25  C    0.003739
    26  C    0.278039
    27  C   -0.074819
    29  N   -0.288884
    31  C   -0.003072
    33  C    0.008417
    35  C    0.004959
    37  N   -0.221320
    39  C    0.120169
    41  C    0.626892
    42  C    0.075771
    45  O   -0.557075
    46  C    0.027507
    49  C    0.590382
    50  O   -0.484660
    51  O   -0.121224
    52  N   -0.228839
    54  C    0.132731
    56  C    0.612087
    57  C    0.037911
    59  O   -0.542933
    60  C    0.032262
    64  C   -0.013556
    68  N   -0.220889
    70  C    0.099764
    72  C    0.650355
    73  C    0.275016
    75  O   -0.613953
    76  C   -0.006916
    80  O   -0.247568
    82  N   -0.190803
    84  C    0.138691
    86  C    0.584817
    87  C    0.005707
    89  O   -0.582507
    90  C    0.040114
    94  C   -0.011155
    98  N   -0.237530
   100  C    0.070236
   102  C    0.581704
   103  C    0.035927
   106  O   -0.568693
   107  C    0.033689
   110  C   -0.009206
   113  C    0.244404
   116  N    0.460580
   120  O   -0.613781
 Electronic spatial extent (au):  <R**2>=          68564.9865
 Charge=              1.0000 electrons
 Dipole moment (field-independent basis, Debye):
    X=            -38.6843    Y=            -19.4689    Z=            -25.8079  Tot=             50.4139
 Quadrupole moment (field-independent basis, Debye-Ang):
   XX=           -353.2678   YY=            -98.0087   ZZ=           -347.5345
   XY=            135.7174   XZ=            -64.3781   YZ=             -8.1868
 Traceless Quadrupole moment (field-independent basis, Debye-Ang):
   XX=            -86.9975   YY=            168.2617   ZZ=            -81.2642
   XY=            135.7174   XZ=            -64.3781   YZ=             -8.1868
 Octapole moment (field-independent basis, Debye-Ang**2):
  XXX=          -2654.2897  YYY=          -1917.6652  ZZZ=            -38.6178  XYY=          -1022.5663
  XXY=          -1888.0787  XXZ=          -1046.9609  XZZ=           -790.6497  YZZ=           -738.6301
  YYZ=           -345.7092  XYZ=           -742.0577
 Hexadecapole moment (field-independent basis, Debye-Ang**3):
 XXXX=         -53559.1302 YYYY=         -10260.2020 ZZZZ=         -19866.6643 XXXY=         -10010.0243
 XXXZ=         -17034.9032 YYYX=          -1428.6299 YYYZ=           -455.1404 ZZZX=         -12562.7940
 ZZZY=          -4514.6085 XXYY=          -4762.7468 XXZZ=         -14944.2405 YYZZ=          -7335.6287
 XXYZ=          -2782.6625 YYXZ=          -2575.0928 ZZXY=          -5530.4798
 N-N= 9.162500147585D+03 E-N=-2.491753359549D+04  KE= 2.817948628509D+03
 Unable to Open any file for archive entry.
 1\1\GINC-NVL-004\SP\RB3LYP\6-31G(d,p)\C39H62N9O11(1+)\KENGMITH\04-Sep-
 2022\0\\# B3LYP/6-31G** empiricaldispersion=gd3bj guess=read geom=chec
 k nosymm integral(ultrafinegrid)\\Candidate Structure: Conf:304 Charge
  calc in gas phase\\1,1\N,0,-6.7640867714,-6.6823086977,-2.2948452139\
 H,0,-7.3989188165,-6.9301092118,-1.5346730949\H,0,-6.6024261223,-7.510
 3285531,-2.8712813197\H,0,-7.1710469939,-5.8702803638,-2.8866572174\C,
 0,-5.4816380402,-6.0297352061,-1.8277781055\H,0,-5.5122830685,-5.96818
 49795,-0.7374012972\C,0,-5.6081476362,-4.6098419837,-2.4454236134\C,0,
 -4.2526527619,-6.7984724534,-2.3028353327\H,0,-3.3445983526,-6.2866880
 473,-1.9771160521\H,0,-4.2311101907,-7.8068681826,-1.881413155\H,0,-4.
 2260150111,-6.8591522572,-3.3950860318\O,0,-6.6093617,-4.3908861708,-3
 .1524452525\N,0,-4.6425238385,-3.7472871921,-2.1880598242\H,0,-3.83103
 03698,-3.966515083,-1.6091399993\C,0,-4.6052263205,-2.3803301177,-2.69
 9875024\H,0,-4.9006811565,-2.3849232198,-3.7514267207\C,0,-3.139207220
 1,-1.9507089325,-2.5527031024\C,0,-5.5666511481,-1.4500581891,-1.89694
 60681\H,0,-6.5840229355,-1.8117495337,-2.0813376452\H,0,-5.3527583827,
 -1.5809227943,-0.831364629\O,0,-2.4154190049,-2.534703697,-1.732937008
 3\C,0,-5.3864604032,-0.0210032934,-2.2892841946\C,0,-4.7905234977,0.95
 79071709,-1.5315325254\H,0,-4.460015079,0.9198631001,-0.5040878016\C,0
 ,-5.5495441443,0.5270656229,-3.6161455614\C,0,-5.0152318109,1.84795898
 18,-3.5826933869\C,0,-6.0467139581,0.0213942572,-4.8324793317\H,0,-6.4
 882241874,-0.9703585708,-4.8824463733\N,0,-4.6056866051,2.094089315,-2
 .2877363119\H,0,-3.9589032402,2.823519722,-2.0273282582\C,0,-5.4401187
 774,2.1206605542,-5.9117297664\H,0,-5.4059904113,2.7196215843,-6.81562
 93165\C,0,-4.9544484922,2.6537199666,-4.7237040032\H,0,-4.5439299299,3
 .6572738815,-4.6819797307\C,0,-5.9844666981,0.8211435097,-5.9661646199
 \H,0,-6.3664118169,0.4461139252,-6.9098601464\N,0,-2.7272734193,-0.942
 4880131,-3.3397948561\H,0,-3.4319669181,-0.4199165749,-3.8522133844\C,
 0,-1.4290097009,-0.3018050234,-3.1274080129\H,0,-0.7150509565,-1.10532
 87536,-2.9240947968\C,0,-1.4987613123,0.6293443274,-1.8961419798\C,0,-
 0.9918795017,0.4990938101,-4.3510448185\H,0,-1.0440656839,-0.126571900
 3,-5.2451998847\H,0,-1.6790913224,1.3413761809,-4.4764504481\O,0,-1.73
 25627355,1.834231171,-2.0072564512\C,0,0.4393708028,1.0217123663,-4.13
 83481909\H,0,0.5293468085,1.5158218641,-3.1708998669\H,0,1.148736195,0
 .1852681335,-4.1678584566\C,0,0.8824863678,2.0304503634,-5.1658608638\
 O,0,1.3761350283,3.114747931,-4.9064058474\O,0,0.6939242695,1.61209227
 3,-6.4267847864\N,0,-1.2746531871,0.024298441,-0.7123308337\H,0,-1.073
 953017,-0.9676917594,-0.7009328228\C,0,-1.0916542093,0.8037368915,0.51
 16685622\H,0,-1.7680250727,1.6610193287,0.4507034518\C,0,0.3699651208,
 1.2834973326,0.4833119393\C,0,-1.4021796608,-0.0242168752,1.7636492652
 \H,0,-0.6620225568,-0.8331754957,1.8010870269\O,0,1.2815244837,0.53286
 93743,0.8390099346\C,0,-1.228276379,0.8403520332,3.0178317513\H,0,-1.9
 314231481,1.681341631,3.0135807467\H,0,-1.4205358563,0.2503291998,3.91
 7878524\H,0,-0.2144184159,1.2396772131,3.0953282942\C,0,-2.8108609202,
 -0.6262228969,1.6942097625\H,0,-3.569919417,0.1653769815,1.6631220058\
 H,0,-2.944106729,-1.2623720015,0.8137904698\H,0,-3.0080377369,-1.23144
 98115,2.5837013288\N,0,0.5657662073,2.5275665991,-0.0143611015\H,0,-0.
 1743954751,2.9282793961,-0.5857878689\C,0,1.9147571917,2.9946980871,-0
 .3318174492\H,0,2.4822954052,2.1517250298,-0.7465032625\C,0,2.65040108
 78,3.4675726282,0.9451441414\C,0,1.8437561818,4.1405743893,-1.36614507
 62\H,0,1.6203448066,5.0541352586,-0.8043738937\O,0,2.7849161967,4.6823
 548355,1.2144930924\C,0,3.1830264815,4.2818645948,-2.0842828469\H,0,4.
 0156061785,4.2955020553,-1.3749795572\H,0,3.3457927886,3.4278236233,-2
 .7495509971\H,0,3.2048857409,5.1882826855,-2.6972563269\O,0,0.76191761
 46,3.9386904556,-2.2602593769\H,0,1.0874530449,3.7045895547,-3.1493357
 477\N,0,3.1037551055,2.4983467207,1.7258510634\H,0,2.910631687,1.55023
 80737,1.4190087298\C,0,4.0256112241,2.7009992561,2.841780661\H,0,3.613
 8916116,3.4737069263,3.4994982281\C,0,5.3751245221,3.1962367516,2.2499
 143922\C,0,4.1547716443,1.3689134176,3.6239060397\H,0,4.6455342184,0.6
 556462894,2.94565516\O,0,5.6680771609,2.9101439053,1.0795152964\C,0,5.
 010610336,1.5156721616,4.8862527013\H,0,4.5323245526,2.1986298156,5.59
 77625861\H,0,6.0135412929,1.9049965635,4.7119016567\H,0,5.1020592234,0
 .5422977264,5.3775664784\C,0,2.7713044403,0.8144054081,4.0061207708\H,
 0,2.2215875117,1.5474157015,4.6088578326\H,0,2.892451619,-0.0863793117
 ,4.6151873984\H,0,2.1557220321,0.5489554182,3.1433633045\N,0,6.1074737
 852,3.9695608024,3.0655792351\H,0,5.960652126,3.938135041,4.1032663565
 \C,0,7.5587830878,4.1611610587,2.9433826601\H,0,7.9725048402,3.3681473
 584,2.3124672844\C,0,8.1072679924,3.9819065745,4.4308457324\C,0,8.0545
 300853,5.5228965593,2.4294210302\H,0,9.0966307599,5.5424169614,2.75929
 68362\H,0,7.5480844284,6.3250573559,2.9854396714\O,0,9.3336982479,4.06
 96319097,4.5596464204\C,0,8.0043350967,5.8068945198,0.9124669094\H,0,8
 .9144354622,6.3366778538,0.6117324175\H,0,7.9963609223,4.859913041,0.3
 59680475\C,0,6.8087676483,6.6619948836,0.4516565076\H,0,6.8361497775,7
 .6370443626,0.9573830166\H,0,6.8802188455,6.8519449282,-0.6288249648\C
 ,0,5.5265478416,5.9314657018,0.7730181249\H,0,5.3988943426,5.786851693
 2,1.8448790992\H,0,5.515332901,4.9359404324,0.3276107682\N,0,4.2647457
 935,6.6201088061,0.3062431049\H,0,3.4776834318,5.9495393597,0.55805115
 48\H,0,4.1292504265,7.5170174487,0.7758107561\H,0,4.2750035898,6.78739
 30789,-0.7010224656\O,0,7.1934965502,3.7958387336,5.2920819869\H,0,1.0
 132131381,2.3171600059,-7.0168902024\\Version=ES64L-G16RevC.01\HF=-284
 3.9962663\RMSD=5.507e-10\Dipole=-15.6163242,-10.0418307,-8.8525403\Qua
 drupole=-64.6804783,125.0984167,-60.4179384,100.9025676,-47.8635571,-6
 .0866909\PG=C01 [X(C39H62N9O11)]\\@
 The archive entry for this job was punched.


 COLLEGE PROFESSOR: SOMEONE WHO TALKS IN OTHER PEOPLE'S SLEEP.
 Job cpu time:       0 days  0 hours 12 minutes 11.8 seconds.
 Elapsed time:       0 days  0 hours  3 minutes 13.8 seconds.
 File lengths (MBytes):  RWF=    976 Int=      0 D2E=      0 Chk=    144 Scr=     32
 Normal termination of Gaussian 16 at Sun Sep  4 01:01:27 2022.
