 Entering Gaussian System, Link 0=/opt/software/Gaussian/g16-AVX2-C.01/g16/g16
 Input=charge-conf-879.com
 Output=charge-conf-879.log
 Initial command:
 /opt/software/Gaussian/g16-AVX2-C.01/g16/l1.exe "/mnt/gs21/scratch/kengmith/Gau-12242.inp" -scrdir="/mnt/gs21/scratch/kengmith/"
 Entering Link 1 = /opt/software/Gaussian/g16-AVX2-C.01/g16/l1.exe PID=     12255.
  
 Copyright (c) 1988-2019, Gaussian, Inc.  All Rights Reserved.
  
 This is part of the Gaussian(R) 16 program.  It is based on
 the Gaussian(R) 09 system (copyright 2009, Gaussian, Inc.),
 the Gaussian(R) 03 system (copyright 2003, Gaussian, Inc.),
 the Gaussian(R) 98 system (copyright 1998, Gaussian, Inc.),
 the Gaussian(R) 94 system (copyright 1995, Gaussian, Inc.),
 the Gaussian 92(TM) system (copyright 1992, Gaussian, Inc.),
 the Gaussian 90(TM) system (copyright 1990, Gaussian, Inc.),
 the Gaussian 88(TM) system (copyright 1988, Gaussian, Inc.),
 the Gaussian 86(TM) system (copyright 1986, Carnegie Mellon
 University), and the Gaussian 82(TM) system (copyright 1983,
 Carnegie Mellon University). Gaussian is a federally registered
 trademark of Gaussian, Inc.
  
 This software contains proprietary and confidential information,
 including trade secrets, belonging to Gaussian, Inc.
  
 This software is provided under written license and may be
 used, copied, transmitted, or stored only in accord with that
 written license.
  
 The following legend is applicable only to US Government
 contracts under FAR:
  
                    RESTRICTED RIGHTS LEGEND
  
 Use, reproduction and disclosure by the US Government is
 subject to restrictions as set forth in subparagraphs (a)
 and (c) of the Commercial Computer Software - Restricted
 Rights clause in FAR 52.227-19.
  
 Gaussian, Inc.
 340 Quinnipiac St., Bldg. 40, Wallingford CT 06492
  
  
 ---------------------------------------------------------------
 Warning -- This program may not be used in any manner that
 competes with the business of Gaussian, Inc. or will provide
 assistance to any competitor of Gaussian, Inc.  The licensee
 of this program is prohibited from giving any competitor of
 Gaussian, Inc. access to this program.  By using this program,
 the user acknowledges that Gaussian, Inc. is engaged in the
 business of creating and licensing software in the field of
 computational chemistry and represents and warrants to the
 licensee that it is not a competitor of Gaussian, Inc. and that
 it will not use this program in any manner prohibited above.
 ---------------------------------------------------------------
  

 Cite this work as:
 Gaussian 16, Revision C.01,
 M. J. Frisch, G. W. Trucks, H. B. Schlegel, G. E. Scuseria, 
 M. A. Robb, J. R. Cheeseman, G. Scalmani, V. Barone, 
 G. A. Petersson, H. Nakatsuji, X. Li, M. Caricato, A. V. Marenich, 
 J. Bloino, B. G. Janesko, R. Gomperts, B. Mennucci, H. P. Hratchian, 
 J. V. Ortiz, A. F. Izmaylov, J. L. Sonnenberg, D. Williams-Young, 
 F. Ding, F. Lipparini, F. Egidi, J. Goings, B. Peng, A. Petrone, 
 T. Henderson, D. Ranasinghe, V. G. Zakrzewski, J. Gao, N. Rega, 
 G. Zheng, W. Liang, M. Hada, M. Ehara, K. Toyota, R. Fukuda, 
 J. Hasegawa, M. Ishida, T. Nakajima, Y. Honda, O. Kitao, H. Nakai, 
 T. Vreven, K. Throssell, J. A. Montgomery, Jr., J. E. Peralta, 
 F. Ogliaro, M. J. Bearpark, J. J. Heyd, E. N. Brothers, K. N. Kudin, 
 V. N. Staroverov, T. A. Keith, R. Kobayashi, J. Normand, 
 K. Raghavachari, A. P. Rendell, J. C. Burant, S. S. Iyengar, 
 J. Tomasi, M. Cossi, J. M. Millam, M. Klene, C. Adamo, R. Cammi, 
 J. W. Ochterski, R. L. Martin, K. Morokuma, O. Farkas, 
 J. B. Foresman, and D. J. Fox, Gaussian, Inc., Wallingford CT, 2019.
 
 ******************************************
 Gaussian 16:  ES64L-G16RevC.01  3-Jul-2019
                 4-Sep-2022 
 ******************************************
 %mem=8gb
 %nproc=4
 Will use up to    4 processors via shared memory.
 %chk=conf-879.chk
 ----------------------------------------------------------------------
 # B3LYP/6-31G** empiricaldispersion=gd3bj guess=read geom=check nosymm
  integral(ultrafinegrid)
 ----------------------------------------------------------------------
 1/29=2,38=1,172=1/1;
 2/12=2,15=1,40=1/2;
 3/5=1,6=6,7=101,11=2,14=-4,25=1,30=1,74=-5,75=-5,116=-2,124=41/1,2,3;
 4/5=1/1;
 5/5=2,38=6/2;
 6/7=2,8=2,9=2,10=2,28=1/1;
 99/5=1,9=1/99;
 ------------------------------------------------------
 Candidate Structure: Conf:879 Charge calc in gas phase
 ------------------------------------------------------
 Structure from the checkpoint file:  "conf-879.chk"
 Charge =  1 Multiplicity = 1
 Redundant internal coordinates found in file.  (old form).
 N,0,-2.5536175986,-1.9140935274,-8.5529734954
 H,0,-2.4492569885,-0.8821021998,-8.5494868196
 H,0,-2.5093642484,-2.2913609679,-9.4998924511
 H,0,-1.7194281357,-2.2722246609,-8.0019424779
 C,0,-3.8790384406,-2.1757346333,-7.8831455554
 H,0,-4.646154212,-2.095116481,-8.6598011781
 C,0,-4.0209420779,-0.986657729,-6.9008895859
 C,0,-3.9064289083,-3.5528526542,-7.2254867524
 H,0,-4.9295953475,-3.8106266444,-6.9417830285
 H,0,-3.5673746828,-4.3245723165,-7.9214877308
 H,0,-3.2913025795,-3.5741887598,-6.3230480895
 O,0,-3.2539708255,-0.0298470289,-7.0417688378
 N,0,-4.9467947676,-1.0756457304,-5.9253372184
 H,0,-5.3346680651,-1.9957802643,-5.756027643
 C,0,-4.6919530974,-0.3235444146,-4.6839927089
 H,0,-4.3827610604,0.67940583,-4.9734769589
 C,0,-3.5323257151,-1.062585873,-3.9957301613
 C,0,-5.920302515,-0.2632257683,-3.7583231961
 H,0,-6.6801752805,0.375831163,-4.2216905104
 H,0,-6.3458280526,-1.2684653024,-3.6638266172
 O,0,-3.5249298271,-2.2976857716,-3.9665708882
 C,0,-5.4989196743,0.2275644308,-2.4036643125
 C,0,-5.5075818854,-0.5029246938,-1.2399827372
 H,0,-5.907611501,-1.4889638682,-1.0526715159
 C,0,-4.8154671736,1.4654944676,-2.1091283803
 C,0,-4.4340332389,1.4144433257,-0.739319177
 C,0,-4.4500262435,2.590221877,-2.8715822428
 H,0,-4.7499893797,2.6793590463,-3.9120116431
 N,0,-4.8762156746,0.2051733856,-0.2375828127
 H,0,-4.7980394479,-0.0893691847,0.7220796018
 C,0,-3.3617007059,3.5359708394,-0.9085527437
 H,0,-2.7997620404,4.3508560453,-0.4647323132
 C,0,-3.7211353713,2.4472513315,-0.1241662993
 H,0,-3.4598387855,2.4039030718,0.9281785552
 C,0,-3.7205135975,3.6067340549,-2.2685093115
 H,0,-3.4292542092,4.4757920227,-2.8485738974
 N,0,-2.5317773447,-0.2916751891,-3.5377531317
 H,0,-2.6166757423,0.7198189905,-3.5040181162
 C,0,-1.356467803,-0.8538261127,-2.8911569317
 H,0,-1.6517652328,-1.8074867687,-2.4443895141
 C,0,-0.94824121,0.1714576709,-1.8314573232
 C,0,-0.2127766823,-1.0884953087,-3.9095976166
 H,0,0.2154430833,-0.1218527587,-4.1920252499
 H,0,0.5794793014,-1.6740223548,-3.4342384249
 O,0,-0.9416461836,1.3689215367,-2.115988023
 C,0,-0.7624594541,-1.8031277609,-5.1475105315
 H,0,-1.3097856071,-2.7049855545,-4.8471130861
 H,0,-1.4972095864,-1.1604526667,-5.6371882377
 C,0,0.1857635269,-2.2259374872,-6.227424232
 O,0,-0.1878429425,-2.5387778863,-7.3599851495
 O,0,1.464037071,-2.2809924621,-5.8760467088
 N,0,-0.641867452,-0.3093306164,-0.6079960695
 H,0,-0.5428827272,-1.3051554779,-0.4695641527
 C,0,-0.1820577959,0.5847989643,0.4571222929
 H,0,-0.7419376711,1.5161267457,0.3308850594
 C,0,1.3153388294,0.8300907893,0.2188054292
 C,0,-0.4471990758,-0.0044286339,1.8481134619
 H,0,0.1608897476,-0.9141110618,1.9311976002
 O,0,2.1674733321,0.0260615323,0.6110353332
 C,0,0.0218043474,0.9813182849,2.9257853304
 H,0,-0.5432731181,1.9189790206,2.8675697663
 H,0,-0.134204175,0.5599112457,3.9223575966
 H,0,1.0843027615,1.2126534531,2.8253642718
 C,0,-1.9271137723,-0.3565735393,2.0395344283
 H,0,-2.5395501625,0.5520223892,2.0221010193
 H,0,-2.3001803605,-1.0263640883,1.258942033
 H,0,-2.0797872057,-0.8424409381,3.0070968589
 N,0,1.6064096923,1.9351226692,-0.4919385353
 H,0,0.8701816032,2.5433925848,-0.8311379013
 C,0,2.9620370521,2.2488767172,-0.9247315438
 H,0,3.4784302305,1.3047699597,-1.1294397535
 C,0,3.7072710289,2.9753752349,0.2134990638
 C,0,2.900740271,3.1202631305,-2.1903552291
 H,0,3.9338998652,3.4075745233,-2.4313022913
 O,0,3.9571607942,4.1894940141,0.1461647041
 C,0,2.2853583174,2.3900580312,-3.3762661289
 H,0,2.8589584374,1.488440802,-3.6145836194
 H,0,1.2498975769,2.1093462315,-3.1640572683
 H,0,2.2889486143,3.0485462947,-4.247971836
 O,0,2.1087894417,4.2707405428,-1.9280200134
 H,0,2.5981859409,4.7457006378,-1.2324881148
 N,0,4.0074666462,2.1855957948,1.2567150848
 H,0,3.7982292984,1.1954510532,1.1654820152
 C,0,4.7390860161,2.6334641987,2.4328649793
 H,0,4.6759954281,3.7223570946,2.4443210299
 C,0,6.206050967,2.2066567951,2.2681947278
 C,0,4.1089767226,2.0906361447,3.7390340745
 H,0,3.1095400293,2.5448104214,3.7894332348
 O,0,6.5045997609,1.0445835553,2.0194904083
 C,0,3.9494341612,0.5644726408,3.7624472
 H,0,4.9173882308,0.0698869047,3.6571544114
 H,0,3.2969474415,0.2011689015,2.9628348902
 H,0,3.5024600247,0.2570261433,4.7130081111
 C,0,4.9172553952,2.5719715315,4.9510125404
 H,0,5.8926617074,2.0749374528,4.9927777757
 H,0,4.3929605859,2.3320627086,5.8799374582
 H,0,5.0826833057,3.6544230257,4.9283369438
 N,0,7.1125490249,3.219969204,2.4277329312
 H,0,7.9045740731,3.043089944,4.2686341727
 C,0,8.5017210177,3.0085400552,2.0186334483
 H,0,8.5384326962,2.0774599706,1.443703377
 C,0,9.4396651689,2.8085096949,3.2186852916
 C,0,8.9897494456,4.1873411712,1.1598817357
 H,0,10.0216867138,3.9783816536,0.8717352734
 H,0,9.0298315813,5.0766513245,1.7983918064
 O,0,8.8507169101,2.8667541924,4.4292033868
 C,0,8.0885958548,4.4380827062,-0.0680483089
 H,0,8.5817506213,4.066515225,-0.9723869215
 H,0,7.1678564587,3.8541212282,0.0293418061
 C,0,7.6952052046,5.9075005875,-0.2934740148
 H,0,8.5654094116,6.4881324116,-0.62274742
 H,0,6.9718746995,5.9447055104,-1.1180705551
 C,0,7.0987334835,6.6241581926,0.9250043318
 H,0,6.7062892881,7.5967110739,0.5926432492
 H,0,7.8872192187,6.845349326,1.6528586765
 N,0,6.0791706243,5.8102541992,1.6123100556
 H,0,5.6125470359,6.3763557741,2.3170486688
 H,0,5.3552950532,5.4980573712,0.9629970519
 H,0,6.7463812916,4.1850032449,2.2943789281
 O,0,10.6252770947,2.6291082454,3.0838274739
 H,0,1.9825233297,-2.5903892312,-6.640536231
 Recover connectivity data from disk.
                           ----------------------------
                           !    Current Parameters    !
                           ! (Angstroms and Degrees)  !
 --------------------------                            --------------------------
 ! Name  Definition              Value                                          !
 --------------------------------------------------------------------------------
 ! R1    R(1,2)                  1.0373                                         !
 ! R2    R(1,3)                  1.0203                                         !
 ! R3    R(1,4)                  1.062                                          !
 ! R4    R(1,5)                  1.5079                                         !
 ! R5    R(5,6)                  1.0946                                         !
 ! R6    R(5,7)                  1.5488                                         !
 ! R7    R(5,8)                  1.5263                                         !
 ! R8    R(7,12)                 1.2343                                         !
 ! R9    R(7,13)                 1.3479                                         !
 ! R10   R(8,9)                  1.0926                                         !
 ! R11   R(8,10)                 1.0931                                         !
 ! R12   R(8,11)                 1.0924                                         !
 ! R13   R(13,14)                1.0128                                         !
 ! R14   R(13,15)                1.4736                                         !
 ! R15   R(15,16)                1.0887                                         !
 ! R16   R(15,17)                1.5377                                         !
 ! R17   R(15,18)                1.5393                                         !
 ! R18   R(17,21)                1.2355                                         !
 ! R19   R(17,37)                1.3436                                         !
 ! R20   R(18,19)                1.0957                                         !
 ! R21   R(18,20)                1.0957                                         !
 ! R22   R(18,22)                1.5012                                         !
 ! R23   R(22,23)                1.374                                          !
 ! R24   R(22,25)                1.4444                                         !
 ! R25   R(23,24)                1.0805                                         !
 ! R26   R(23,29)                1.3802                                         !
 ! R27   R(25,26)                1.4228                                         !
 ! R28   R(25,27)                1.4071                                         !
 ! R29   R(26,29)                1.3819                                         !
 ! R30   R(26,33)                1.3976                                         !
 ! R31   R(27,28)                1.0865                                         !
 ! R32   R(27,35)                1.389                                          !
 ! R33   R(29,30)                1.0069                                         !
 ! R34   R(31,32)                1.0848                                         !
 ! R35   R(31,33)                1.3892                                         !
 ! R36   R(31,35)                1.4083                                         !
 ! R37   R(33,34)                1.0852                                         !
 ! R38   R(35,36)                1.0847                                         !
 ! R39   R(37,38)                1.0156                                         !
 ! R40   R(37,39)                1.4545                                         !
 ! R41   R(39,40)                1.0937                                         !
 ! R42   R(39,41)                1.53                                           !
 ! R43   R(39,42)                1.5493                                         !
 ! R44   R(41,45)                1.2308                                         !
 ! R45   R(41,52)                1.3498                                         !
 ! R46   R(42,43)                1.0943                                         !
 ! R47   R(42,44)                1.0938                                         !
 ! R48   R(42,46)                1.5314                                         !
 ! R49   R(46,47)                1.0969                                         !
 ! R50   R(46,48)                1.0921                                         !
 ! R51   R(46,49)                1.498                                          !
 ! R52   R(49,50)                1.2329                                         !
 ! R53   R(49,51)                1.3268                                         !
 ! R54   R(51,121)               0.9742                                         !
 ! R55   R(52,53)                1.0103                                         !
 ! R56   R(52,54)                1.4647                                         !
 ! R57   R(54,55)                1.094                                          !
 ! R58   R(54,56)                1.536                                          !
 ! R59   R(54,57)                1.5337                                         !
 ! R60   R(56,59)                1.2355                                         !
 ! R61   R(56,68)                1.3457                                         !
 ! R62   R(57,58)                1.0974                                         !
 ! R63   R(57,60)                1.534                                          !
 ! R64   R(57,64)                1.5332                                         !
 ! R65   R(60,61)                1.0963                                         !
 ! R66   R(60,62)                1.0932                                         !
 ! R67   R(60,63)                1.092                                          !
 ! R68   R(64,65)                1.0959                                         !
 ! R69   R(64,66)                1.0941                                         !
 ! R70   R(64,67)                1.0934                                         !
 ! R71   R(68,69)                1.0134                                         !
 ! R72   R(68,70)                1.4572                                         !
 ! R73   R(70,71)                1.0954                                         !
 ! R74   R(70,72)                1.5423                                         !
 ! R75   R(70,73)                1.5378                                         !
 ! R76   R(72,75)                1.2414                                         !
 ! R77   R(72,82)                1.3424                                         !
 ! R78   R(73,74)                1.0991                                         !
 ! R79   R(73,76)                1.5226                                         !
 ! R80   R(73,80)                1.4211                                         !
 ! R81   R(76,77)                1.0949                                         !
 ! R82   R(76,78)                1.0936                                         !
 ! R83   R(76,79)                1.0925                                         !
 ! R84   R(80,81)                0.9741                                         !
 ! R85   R(82,83)                1.0161                                         !
 ! R86   R(82,84)                1.4557                                         !
 ! R87   R(84,85)                1.0908                                         !
 ! R88   R(84,86)                1.5366                                         !
 ! R89   R(84,87)                1.5485                                         !
 ! R90   R(86,89)                1.2253                                         !
 ! R91   R(86,98)                1.3689                                         !
 ! R92   R(87,88)                1.0989                                         !
 ! R93   R(87,90)                1.5347                                         !
 ! R94   R(87,94)                1.5342                                         !
 ! R95   R(90,91)                1.0921                                         !
 ! R96   R(90,92)                1.0941                                         !
 ! R97   R(90,93)                1.0945                                         !
 ! R98   R(94,95)                1.0955                                         !
 ! R99   R(94,96)                1.0933                                         !
 ! R100  R(94,97)                1.0953                                         !
 ! R101  R(98,99)                2.0118                                         !
 ! R102  R(98,100)               1.4635                                         !
 ! R103  R(100,101)              1.0949                                         !
 ! R104  R(100,102)              1.5362                                         !
 ! R105  R(100,103)              1.5379                                         !
 ! R106  R(102,106)              1.3474                                         !
 ! R107  R(102,120)              1.2067                                         !
 ! R108  R(103,104)              1.0916                                         !
 ! R109  R(103,105)              1.0955                                         !
 ! R110  R(103,107)              1.5436                                         !
 ! R111  R(107,108)              1.095                                          !
 ! R112  R(107,109)              1.0946                                         !
 ! R113  R(107,110)              1.5378                                         !
 ! R114  R(110,111)              1.0967                                         !
 ! R115  R(110,112)              1.0975                                         !
 ! R116  R(110,113)              1.5343                                         !
 ! R117  R(113,114)              1.1002                                         !
 ! R118  R(113,115)              1.0956                                         !
 ! R119  R(113,116)              1.4746                                         !
 ! R120  R(116,117)              1.0173                                         !
 ! R121  R(116,118)              1.0213                                         !
 ! R122  R(116,119)              1.8846                                         !
 ! A1    A(2,1,3)              111.5092                                         !
 ! A2    A(2,1,4)              104.7585                                         !
 ! A3    A(2,1,5)              105.0445                                         !
 ! A4    A(3,1,4)              108.8327                                         !
 ! A5    A(3,1,5)              112.7203                                         !
 ! A6    A(4,1,5)              113.6682                                         !
 ! A7    A(1,5,6)              106.7405                                         !
 ! A8    A(1,5,7)              103.2401                                         !
 ! A9    A(1,5,8)              111.3285                                         !
 ! A10   A(6,5,7)              109.2219                                         !
 ! A11   A(6,5,8)              111.0751                                         !
 ! A12   A(7,5,8)              114.6938                                         !
 ! A13   A(5,7,12)             117.7621                                         !
 ! A14   A(5,7,13)             118.1155                                         !
 ! A15   A(12,7,13)            124.0966                                         !
 ! A16   A(5,8,9)              109.9709                                         !
 ! A17   A(5,8,10)             110.9191                                         !
 ! A18   A(5,8,11)             111.3141                                         !
 ! A19   A(9,8,10)             106.8114                                         !
 ! A20   A(9,8,11)             107.9513                                         !
 ! A21   A(10,8,11)            109.7282                                         !
 ! A22   A(7,13,14)            116.3612                                         !
 ! A23   A(7,13,15)            117.2065                                         !
 ! A24   A(14,13,15)           112.898                                          !
 ! A25   A(13,15,16)           107.1755                                         !
 ! A26   A(13,15,17)           105.1982                                         !
 ! A27   A(13,15,18)           112.866                                          !
 ! A28   A(16,15,17)           110.3398                                         !
 ! A29   A(16,15,18)           110.5138                                         !
 ! A30   A(17,15,18)           110.5767                                         !
 ! A31   A(15,17,21)           119.7054                                         !
 ! A32   A(15,17,37)           116.0015                                         !
 ! A33   A(21,17,37)           124.1326                                         !
 ! A34   A(15,18,19)           108.7819                                         !
 ! A35   A(15,18,20)           109.0161                                         !
 ! A36   A(15,18,22)           109.3589                                         !
 ! A37   A(19,18,20)           107.5924                                         !
 ! A38   A(19,18,22)           112.6818                                         !
 ! A39   A(20,18,22)           109.3379                                         !
 ! A40   A(18,22,23)           126.0638                                         !
 ! A41   A(18,22,25)           126.6575                                         !
 ! A42   A(23,22,25)           106.6147                                         !
 ! A43   A(22,23,24)           129.3725                                         !
 ! A44   A(22,23,29)           109.8447                                         !
 ! A45   A(24,23,29)           120.7759                                         !
 ! A46   A(22,25,26)           107.0023                                         !
 ! A47   A(22,25,27)           134.2234                                         !
 ! A48   A(26,25,27)           118.7328                                         !
 ! A49   A(25,26,29)           107.1675                                         !
 ! A50   A(25,26,33)           122.2739                                         !
 ! A51   A(29,26,33)           130.5478                                         !
 ! A52   A(25,27,28)           120.8491                                         !
 ! A53   A(25,27,35)           119.0865                                         !
 ! A54   A(28,27,35)           120.0503                                         !
 ! A55   A(23,29,26)           109.3687                                         !
 ! A56   A(23,29,30)           125.2865                                         !
 ! A57   A(26,29,30)           125.2537                                         !
 ! A58   A(32,31,33)           119.4551                                         !
 ! A59   A(32,31,35)           119.2964                                         !
 ! A60   A(33,31,35)           121.2472                                         !
 ! A61   A(26,33,31)           117.5556                                         !
 ! A62   A(26,33,34)           121.3413                                         !
 ! A63   A(31,33,34)           121.1028                                         !
 ! A64   A(27,35,31)           121.0873                                         !
 ! A65   A(27,35,36)           119.683                                          !
 ! A66   A(31,35,36)           119.2267                                         !
 ! A67   A(17,37,38)           121.3677                                         !
 ! A68   A(17,37,39)           122.1097                                         !
 ! A69   A(38,37,39)           115.9583                                         !
 ! A70   A(37,39,40)           107.483                                          !
 ! A71   A(37,39,41)           105.3383                                         !
 ! A72   A(37,39,42)           111.2739                                         !
 ! A73   A(40,39,41)           111.9268                                         !
 ! A74   A(40,39,42)           109.6182                                         !
 ! A75   A(41,39,42)           111.0904                                         !
 ! A76   A(39,41,45)           119.5567                                         !
 ! A77   A(39,41,52)           116.7228                                         !
 ! A78   A(45,41,52)           123.7017                                         !
 ! A79   A(39,42,43)           108.9489                                         !
 ! A80   A(39,42,44)           109.2735                                         !
 ! A81   A(39,42,46)           109.6992                                         !
 ! A82   A(43,42,44)           107.5524                                         !
 ! A83   A(43,42,46)           110.1229                                         !
 ! A84   A(44,42,46)           111.1903                                         !
 ! A85   A(42,46,47)           109.9623                                         !
 ! A86   A(42,46,48)           109.2277                                         !
 ! A87   A(42,46,49)           119.1586                                         !
 ! A88   A(47,46,48)           105.7198                                         !
 ! A89   A(47,46,49)           106.3325                                         !
 ! A90   A(48,46,49)           105.5882                                         !
 ! A91   A(46,49,50)           122.8202                                         !
 ! A92   A(46,49,51)           115.5066                                         !
 ! A93   A(50,49,51)           121.6458                                         !
 ! A94   A(49,51,121)          108.5488                                         !
 ! A95   A(41,52,53)           119.8382                                         !
 ! A96   A(41,52,54)           120.8607                                         !
 ! A97   A(53,52,54)           118.1203                                         !
 ! A98   A(52,54,55)           105.9689                                         !
 ! A99   A(52,54,56)           106.9001                                         !
 ! A100  A(52,54,57)           111.7599                                         !
 ! A101  A(55,54,56)           110.1865                                         !
 ! A102  A(55,54,57)           110.0745                                         !
 ! A103  A(56,54,57)           111.7529                                         !
 ! A104  A(54,56,59)           121.2793                                         !
 ! A105  A(54,56,68)           115.084                                          !
 ! A106  A(59,56,68)           123.5642                                         !
 ! A107  A(54,57,58)           106.9385                                         !
 ! A108  A(54,57,60)           109.7199                                         !
 ! A109  A(54,57,64)           111.6124                                         !
 ! A110  A(58,57,60)           108.0649                                         !
 ! A111  A(58,57,64)           109.5739                                         !
 ! A112  A(60,57,64)           110.7932                                         !
 ! A113  A(57,60,61)           110.7763                                         !
 ! A114  A(57,60,62)           110.4321                                         !
 ! A115  A(57,60,63)           111.6545                                         !
 ! A116  A(61,60,62)           107.7309                                         !
 ! A117  A(61,60,63)           108.3869                                         !
 ! A118  A(62,60,63)           107.7187                                         !
 ! A119  A(57,64,65)           110.3048                                         !
 ! A120  A(57,64,66)           112.3735                                         !
 ! A121  A(57,64,67)           110.3229                                         !
 ! A122  A(65,64,66)           107.7972                                         !
 ! A123  A(65,64,67)           107.726                                          !
 ! A124  A(66,64,67)           108.161                                          !
 ! A125  A(56,68,69)           120.8299                                         !
 ! A126  A(56,68,70)           122.3355                                         !
 ! A127  A(69,68,70)           116.5628                                         !
 ! A128  A(68,70,71)           107.968                                          !
 ! A129  A(68,70,72)           109.3745                                         !
 ! A130  A(68,70,73)           109.2296                                         !
 ! A131  A(71,70,72)           108.4282                                         !
 ! A132  A(71,70,73)           110.6932                                         !
 ! A133  A(72,70,73)           111.0832                                         !
 ! A134  A(70,72,75)           121.1934                                         !
 ! A135  A(70,72,82)           113.8553                                         !
 ! A136  A(75,72,82)           124.9263                                         !
 ! A137  A(70,73,74)           106.9223                                         !
 ! A138  A(70,73,76)           112.6672                                         !
 ! A139  A(70,73,80)           109.2089                                         !
 ! A140  A(74,73,76)           109.5444                                         !
 ! A141  A(74,73,80)           110.6514                                         !
 ! A142  A(76,73,80)           107.8661                                         !
 ! A143  A(73,76,77)           110.6542                                         !
 ! A144  A(73,76,78)           110.7712                                         !
 ! A145  A(73,76,79)           109.3348                                         !
 ! A146  A(77,76,78)           109.0807                                         !
 ! A147  A(77,76,79)           108.721                                          !
 ! A148  A(78,76,79)           108.2194                                         !
 ! A149  A(73,80,81)           104.274                                          !
 ! A150  A(72,82,83)           117.2231                                         !
 ! A151  A(72,82,84)           124.0029                                         !
 ! A152  A(83,82,84)           118.4131                                         !
 ! A153  A(82,84,85)           106.651                                          !
 ! A154  A(82,84,86)           107.9239                                         !
 ! A155  A(82,84,87)           111.6633                                         !
 ! A156  A(85,84,86)           109.4884                                         !
 ! A157  A(85,84,87)           108.5151                                         !
 ! A158  A(86,84,87)           112.4264                                         !
 ! A159  A(84,86,89)           121.1829                                         !
 ! A160  A(84,86,98)           114.4612                                         !
 ! A161  A(89,86,98)           124.3554                                         !
 ! A162  A(84,87,88)           105.3005                                         !
 ! A163  A(84,87,90)           113.8152                                         !
 ! A164  A(84,87,94)           109.9978                                         !
 ! A165  A(88,87,90)           108.4059                                         !
 ! A166  A(88,87,94)           108.2543                                         !
 ! A167  A(90,87,94)           110.7756                                         !
 ! A168  A(87,90,91)           110.9015                                         !
 ! A169  A(87,90,92)           112.3993                                         !
 ! A170  A(87,90,93)           109.5761                                         !
 ! A171  A(91,90,92)           107.9226                                         !
 ! A172  A(91,90,93)           108.5718                                         !
 ! A173  A(92,90,93)           107.3318                                         !
 ! A174  A(87,94,95)           110.9061                                         !
 ! A175  A(87,94,96)           110.4687                                         !
 ! A176  A(87,94,97)           111.918                                          !
 ! A177  A(95,94,96)           107.1585                                         !
 ! A178  A(95,94,97)           108.3425                                         !
 ! A179  A(96,94,97)           107.8718                                         !
 ! A180  A(86,98,99)           107.5929                                         !
 ! A181  A(86,98,100)          119.2775                                         !
 ! A182  A(99,98,100)           82.4955                                         !
 ! A183  A(98,100,101)         107.5454                                         !
 ! A184  A(98,100,102)         112.3334                                         !
 ! A185  A(98,100,103)         110.2774                                         !
 ! A186  A(101,100,102)        106.2005                                         !
 ! A187  A(101,100,103)        110.3626                                         !
 ! A188  A(102,100,103)        110.0146                                         !
 ! A189  A(100,102,106)        115.4235                                         !
 ! A190  A(100,102,120)        122.1383                                         !
 ! A191  A(106,102,120)        122.4313                                         !
 ! A192  A(100,103,104)        107.497                                          !
 ! A193  A(100,103,105)        107.9613                                         !
 ! A194  A(100,103,107)        112.5469                                         !
 ! A195  A(104,103,105)        105.9414                                         !
 ! A196  A(104,103,107)        111.9006                                         !
 ! A197  A(105,103,107)        110.6792                                         !
 ! A198  A(103,107,108)        109.8114                                         !
 ! A199  A(103,107,109)        109.4883                                         !
 ! A200  A(103,107,110)        114.9086                                         !
 ! A201  A(108,107,109)        105.7396                                         !
 ! A202  A(108,107,110)        108.5651                                         !
 ! A203  A(109,107,110)        107.9159                                         !
 ! A204  A(107,110,111)        110.299                                          !
 ! A205  A(107,110,112)        108.1273                                         !
 ! A206  A(107,110,113)        115.4271                                         !
 ! A207  A(111,110,112)        106.2252                                         !
 ! A208  A(111,110,113)        107.434                                          !
 ! A209  A(112,110,113)        108.9429                                         !
 ! A210  A(110,113,114)        108.1602                                         !
 ! A211  A(110,113,115)        110.0051                                         !
 ! A212  A(110,113,116)        112.4048                                         !
 ! A213  A(114,113,115)        106.1971                                         !
 ! A214  A(114,113,116)        112.4645                                         !
 ! A215  A(115,113,116)        107.4207                                         !
 ! A216  A(113,116,117)        109.4451                                         !
 ! A217  A(113,116,118)        111.2513                                         !
 ! A218  A(113,116,119)        113.5719                                         !
 ! A219  A(117,116,118)        106.5848                                         !
 ! A220  A(117,116,119)        113.052                                          !
 ! A221  A(118,116,119)        102.5566                                         !
 ! D1    D(2,1,5,6)             85.3391                                         !
 ! D2    D(2,1,5,7)            -29.7455                                         !
 ! D3    D(2,1,5,8)           -153.2912                                         !
 ! D4    D(3,1,5,6)            -36.2719                                         !
 ! D5    D(3,1,5,7)           -151.3565                                         !
 ! D6    D(3,1,5,8)             85.0978                                         !
 ! D7    D(4,1,5,6)           -160.7182                                         !
 ! D8    D(4,1,5,7)             84.1972                                         !
 ! D9    D(4,1,5,8)            -39.3485                                         !
 ! D10   D(1,5,7,12)            13.3652                                         !
 ! D11   D(1,5,7,13)          -164.8635                                         !
 ! D12   D(6,5,7,12)           -99.9263                                         !
 ! D13   D(6,5,7,13)            81.845                                          !
 ! D14   D(8,5,7,12)           134.6601                                         !
 ! D15   D(8,5,7,13)           -43.5685                                         !
 ! D16   D(1,5,8,9)           -167.6232                                         !
 ! D17   D(1,5,8,10)           -49.696                                          !
 ! D18   D(1,5,8,11)            72.787                                          !
 ! D19   D(6,5,8,9)            -48.8168                                         !
 ! D20   D(6,5,8,10)            69.1103                                         !
 ! D21   D(6,5,8,11)          -168.4066                                         !
 ! D22   D(7,5,8,9)             75.623                                          !
 ! D23   D(7,5,8,10)          -166.4499                                         !
 ! D24   D(7,5,8,11)           -43.9669                                         !
 ! D25   D(5,7,13,14)           14.349                                          !
 ! D26   D(5,7,13,15)          152.3385                                         !
 ! D27   D(12,7,13,14)        -163.7582                                         !
 ! D28   D(12,7,13,15)         -25.7686                                         !
 ! D29   D(7,13,15,16)          46.644                                          !
 ! D30   D(7,13,15,17)         -70.8052                                         !
 ! D31   D(7,13,15,18)         168.5427                                         !
 ! D32   D(14,13,15,16)       -173.9706                                         !
 ! D33   D(14,13,15,17)         68.5802                                         !
 ! D34   D(14,13,15,18)        -52.0719                                         !
 ! D35   D(13,15,17,21)        -42.3754                                         !
 ! D36   D(13,15,17,37)        133.2096                                         !
 ! D37   D(16,15,17,21)       -157.6562                                         !
 ! D38   D(16,15,17,37)         17.9287                                         !
 ! D39   D(18,15,17,21)         79.7711                                         !
 ! D40   D(18,15,17,37)       -104.644                                          !
 ! D41   D(13,15,18,19)        -69.6326                                         !
 ! D42   D(13,15,18,20)         47.4243                                         !
 ! D43   D(13,15,18,22)        166.9183                                         !
 ! D44   D(16,15,18,19)         50.3656                                         !
 ! D45   D(16,15,18,20)        167.4226                                         !
 ! D46   D(16,15,18,22)        -73.0834                                         !
 ! D47   D(17,15,18,19)        172.8367                                         !
 ! D48   D(17,15,18,20)        -70.1064                                         !
 ! D49   D(17,15,18,22)         49.3876                                         !
 ! D50   D(15,17,37,38)         10.3121                                         !
 ! D51   D(15,17,37,39)       -178.652                                          !
 ! D52   D(21,17,37,38)       -174.3213                                         !
 ! D53   D(21,17,37,39)         -3.2854                                         !
 ! D54   D(15,18,22,23)       -113.0315                                         !
 ! D55   D(15,18,22,25)         56.3595                                         !
 ! D56   D(19,18,22,23)        125.8568                                         !
 ! D57   D(19,18,22,25)        -64.7523                                         !
 ! D58   D(20,18,22,23)          6.2638                                         !
 ! D59   D(20,18,22,25)        175.6548                                         !
 ! D60   D(18,22,23,24)         -7.6797                                         !
 ! D61   D(18,22,23,29)        171.3499                                         !
 ! D62   D(25,22,23,24)       -178.8134                                         !
 ! D63   D(25,22,23,29)          0.2162                                         !
 ! D64   D(18,22,25,26)       -170.997                                          !
 ! D65   D(18,22,25,27)          6.539                                          !
 ! D66   D(23,22,25,26)          0.0682                                         !
 ! D67   D(23,22,25,27)        177.6043                                         !
 ! D68   D(22,23,29,26)         -0.4314                                         !
 ! D69   D(22,23,29,30)        176.2417                                         !
 ! D70   D(24,23,29,26)        178.6955                                         !
 ! D71   D(24,23,29,30)         -4.6314                                         !
 ! D72   D(22,25,26,29)         -0.323                                          !
 ! D73   D(22,25,26,33)        178.5989                                         !
 ! D74   D(27,25,26,29)       -178.3096                                         !
 ! D75   D(27,25,26,33)          0.6124                                         !
 ! D76   D(22,25,27,28)          4.6207                                         !
 ! D77   D(22,25,27,35)       -176.7458                                         !
 ! D78   D(26,25,27,28)       -178.0666                                         !
 ! D79   D(26,25,27,35)          0.5669                                         !
 ! D80   D(25,26,29,23)          0.4624                                         !
 ! D81   D(25,26,29,30)       -176.2121                                         !
 ! D82   D(33,26,29,23)       -178.338                                          !
 ! D83   D(33,26,29,30)          4.9875                                         !
 ! D84   D(25,26,33,31)         -1.3736                                         !
 ! D85   D(25,26,33,34)        178.4249                                         !
 ! D86   D(29,26,33,31)        177.2708                                         !
 ! D87   D(29,26,33,34)         -2.9307                                         !
 ! D88   D(25,27,35,31)         -0.9521                                         !
 ! D89   D(25,27,35,36)        179.6851                                         !
 ! D90   D(28,27,35,31)        177.6925                                         !
 ! D91   D(28,27,35,36)         -1.6702                                         !
 ! D92   D(32,31,33,26)       -179.4353                                         !
 ! D93   D(32,31,33,34)          0.7656                                         !
 ! D94   D(35,31,33,26)          0.9824                                         !
 ! D95   D(35,31,33,34)       -178.8166                                         !
 ! D96   D(32,31,35,27)       -179.418                                          !
 ! D97   D(32,31,35,36)         -0.0524                                         !
 ! D98   D(33,31,35,27)          0.1648                                         !
 ! D99   D(33,31,35,36)        179.5305                                         !
 ! D100  D(17,37,39,40)        -26.6923                                         !
 ! D101  D(17,37,39,41)       -146.1881                                         !
 ! D102  D(17,37,39,42)         93.3336                                         !
 ! D103  D(38,37,39,40)        144.7984                                         !
 ! D104  D(38,37,39,41)         25.3026                                         !
 ! D105  D(38,37,39,42)        -95.1757                                         !
 ! D106  D(37,39,41,45)        -43.8517                                         !
 ! D107  D(37,39,41,52)        134.6266                                         !
 ! D108  D(40,39,41,45)       -160.3533                                         !
 ! D109  D(40,39,41,52)         18.125                                          !
 ! D110  D(42,39,41,45)         76.7472                                         !
 ! D111  D(42,39,41,52)       -104.7745                                         !
 ! D112  D(37,39,42,43)         72.9953                                         !
 ! D113  D(37,39,42,44)       -169.7567                                         !
 ! D114  D(37,39,42,46)        -47.6207                                         !
 ! D115  D(40,39,42,43)       -168.2511                                         !
 ! D116  D(40,39,42,44)        -51.0031                                         !
 ! D117  D(40,39,42,46)         71.1329                                         !
 ! D118  D(41,39,42,43)        -44.0314                                         !
 ! D119  D(41,39,42,44)         73.2166                                         !
 ! D120  D(41,39,42,46)       -164.6474                                         !
 ! D121  D(39,41,52,53)          9.9031                                         !
 ! D122  D(39,41,52,54)        177.2531                                         !
 ! D123  D(45,41,52,53)       -171.688                                          !
 ! D124  D(45,41,52,54)         -4.338                                          !
 ! D125  D(39,42,46,47)        -52.4819                                         !
 ! D126  D(39,42,46,48)         63.1105                                         !
 ! D127  D(39,42,46,49)       -175.5243                                         !
 ! D128  D(43,42,46,47)       -172.3839                                         !
 ! D129  D(43,42,46,48)        -56.7915                                         !
 ! D130  D(43,42,46,49)         64.5737                                         !
 ! D131  D(44,42,46,47)         68.5039                                         !
 ! D132  D(44,42,46,48)       -175.9037                                         !
 ! D133  D(44,42,46,49)        -54.5385                                         !
 ! D134  D(42,46,49,50)       -164.0468                                         !
 ! D135  D(42,46,49,51)         17.8282                                         !
 ! D136  D(47,46,49,50)         71.1416                                         !
 ! D137  D(47,46,49,51)       -106.9833                                         !
 ! D138  D(48,46,49,50)        -40.874                                          !
 ! D139  D(48,46,49,51)        141.0011                                         !
 ! D140  D(46,49,51,121)       178.3032                                         !
 ! D141  D(50,49,51,121)         0.1542                                         !
 ! D142  D(41,52,54,55)         36.2999                                         !
 ! D143  D(41,52,54,56)        -81.2209                                         !
 ! D144  D(41,52,54,57)        156.2095                                         !
 ! D145  D(53,52,54,55)       -156.1383                                         !
 ! D146  D(53,52,54,56)         86.3408                                         !
 ! D147  D(53,52,54,57)        -36.2288                                         !
 ! D148  D(52,54,56,59)        -82.9176                                         !
 ! D149  D(52,54,56,68)         94.0934                                         !
 ! D150  D(55,54,56,59)        162.3705                                         !
 ! D151  D(55,54,56,68)        -20.6185                                         !
 ! D152  D(57,54,56,59)         39.6564                                         !
 ! D153  D(57,54,56,68)       -143.3326                                         !
 ! D154  D(52,54,57,58)         64.3178                                         !
 ! D155  D(52,54,57,60)       -178.7126                                         !
 ! D156  D(52,54,57,64)        -55.5075                                         !
 ! D157  D(55,54,57,58)       -178.2141                                         !
 ! D158  D(55,54,57,60)        -61.2445                                         !
 ! D159  D(55,54,57,64)         61.9606                                         !
 ! D160  D(56,54,57,58)        -55.4362                                         !
 ! D161  D(56,54,57,60)         61.5334                                         !
 ! D162  D(56,54,57,64)       -175.2615                                         !
 ! D163  D(54,56,68,69)          0.0911                                         !
 ! D164  D(54,56,68,70)       -173.7129                                         !
 ! D165  D(59,56,68,69)        177.0254                                         !
 ! D166  D(59,56,68,70)          3.2213                                         !
 ! D167  D(54,57,60,61)         62.4322                                         !
 ! D168  D(54,57,60,62)       -178.2973                                         !
 ! D169  D(54,57,60,63)        -58.4728                                         !
 ! D170  D(58,57,60,61)        178.693                                          !
 ! D171  D(58,57,60,62)        -62.0365                                         !
 ! D172  D(58,57,60,63)         57.7879                                         !
 ! D173  D(64,57,60,61)        -61.254                                          !
 ! D174  D(64,57,60,62)         58.0165                                         !
 ! D175  D(64,57,60,63)        177.8409                                         !
 ! D176  D(54,57,64,65)        -65.3139                                         !
 ! D177  D(54,57,64,66)         54.9999                                         !
 ! D178  D(54,57,64,67)        175.7897                                         !
 ! D179  D(58,57,64,65)        176.4266                                         !
 ! D180  D(58,57,64,66)        -63.2596                                         !
 ! D181  D(58,57,64,67)         57.5302                                         !
 ! D182  D(60,57,64,65)         57.2788                                         !
 ! D183  D(60,57,64,66)        177.5927                                         !
 ! D184  D(60,57,64,67)        -61.6175                                         !
 ! D185  D(56,68,70,71)         33.2601                                         !
 ! D186  D(56,68,70,72)        -84.5352                                         !
 ! D187  D(56,68,70,73)        153.6947                                         !
 ! D188  D(69,68,70,71)       -140.7925                                         !
 ! D189  D(69,68,70,72)        101.4122                                         !
 ! D190  D(69,68,70,73)        -20.3578                                         !
 ! D191  D(68,70,72,75)       -107.4607                                         !
 ! D192  D(68,70,72,82)         70.8094                                         !
 ! D193  D(71,70,72,75)        135.0328                                         !
 ! D194  D(71,70,72,82)        -46.6972                                         !
 ! D195  D(73,70,72,75)         13.1863                                         !
 ! D196  D(73,70,72,82)       -168.5437                                         !
 ! D197  D(68,70,73,74)        175.0835                                         !
 ! D198  D(68,70,73,76)        -64.5178                                         !
 ! D199  D(68,70,73,80)         55.3226                                         !
 ! D200  D(71,70,73,74)        -66.1654                                         !
 ! D201  D(71,70,73,76)         54.2333                                         !
 ! D202  D(71,70,73,80)        174.0737                                         !
 ! D203  D(72,70,73,74)         54.3511                                         !
 ! D204  D(72,70,73,76)        174.7498                                         !
 ! D205  D(72,70,73,80)        -65.4098                                         !
 ! D206  D(70,72,82,83)          5.3111                                         !
 ! D207  D(70,72,82,84)        178.2881                                         !
 ! D208  D(75,72,82,83)       -176.4939                                         !
 ! D209  D(75,72,82,84)         -3.5168                                         !
 ! D210  D(70,73,76,77)        -59.0317                                         !
 ! D211  D(70,73,76,78)         62.0737                                         !
 ! D212  D(70,73,76,79)       -178.7524                                         !
 ! D213  D(74,73,76,77)         59.8487                                         !
 ! D214  D(74,73,76,78)       -179.0459                                         !
 ! D215  D(74,73,76,79)        -59.872                                          !
 ! D216  D(80,73,76,77)       -179.6449                                         !
 ! D217  D(80,73,76,78)        -58.5395                                         !
 ! D218  D(80,73,76,79)         60.6344                                         !
 ! D219  D(70,73,80,81)         63.2087                                         !
 ! D220  D(74,73,80,81)        -54.2247                                         !
 ! D221  D(76,73,80,81)       -174.0339                                         !
 ! D222  D(72,82,84,85)         18.7016                                         !
 ! D223  D(72,82,84,86)        -98.861                                          !
 ! D224  D(72,82,84,87)        137.0897                                         !
 ! D225  D(83,82,84,85)       -168.3991                                         !
 ! D226  D(83,82,84,86)         74.0382                                         !
 ! D227  D(83,82,84,87)        -50.0111                                         !
 ! D228  D(82,84,86,89)        -52.7543                                         !
 ! D229  D(82,84,86,98)        127.5026                                         !
 ! D230  D(85,84,86,89)       -168.4713                                         !
 ! D231  D(85,84,86,98)         11.7857                                         !
 ! D232  D(87,84,86,89)         70.8337                                         !
 ! D233  D(87,84,86,98)       -108.9093                                         !
 ! D234  D(82,84,87,88)        -64.1912                                         !
 ! D235  D(82,84,87,90)         54.4006                                         !
 ! D236  D(82,84,87,94)        179.3762                                         !
 ! D237  D(85,84,87,88)         53.0777                                         !
 ! D238  D(85,84,87,90)        171.6695                                         !
 ! D239  D(85,84,87,94)        -63.3549                                         !
 ! D240  D(86,84,87,88)        174.3311                                         !
 ! D241  D(86,84,87,90)        -67.0771                                         !
 ! D242  D(86,84,87,94)         57.8985                                         !
 ! D243  D(84,86,98,99)        101.7732                                         !
 ! D244  D(84,86,98,100)      -167.0408                                         !
 ! D245  D(89,86,98,99)        -77.9605                                         !
 ! D246  D(89,86,98,100)        13.2254                                         !
 ! D247  D(84,87,90,91)         60.0024                                         !
 ! D248  D(84,87,90,92)        -60.9075                                         !
 ! D249  D(84,87,90,93)        179.847                                          !
 ! D250  D(88,87,90,91)        176.8017                                         !
 ! D251  D(88,87,90,92)         55.8918                                         !
 ! D252  D(88,87,90,93)        -63.3536                                         !
 ! D253  D(94,87,90,91)        -64.5568                                         !
 ! D254  D(94,87,90,92)        174.5334                                         !
 ! D255  D(94,87,90,93)         55.2879                                         !
 ! D256  D(84,87,94,95)        -70.4929                                         !
 ! D257  D(84,87,94,96)        170.8433                                         !
 ! D258  D(84,87,94,97)         50.6261                                         !
 ! D259  D(88,87,94,95)        174.9419                                         !
 ! D260  D(88,87,94,96)         56.2781                                         !
 ! D261  D(88,87,94,97)        -63.9391                                         !
 ! D262  D(90,87,94,95)         56.2086                                         !
 ! D263  D(90,87,94,96)        -62.4552                                         !
 ! D264  D(90,87,94,97)        177.3276                                         !
 ! D265  D(86,98,100,101)       11.1848                                         !
 ! D266  D(86,98,100,102)     -105.3171                                         !
 ! D267  D(86,98,100,103)      131.5734                                         !
 ! D268  D(99,98,100,101)      117.1857                                         !
 ! D269  D(99,98,100,102)        0.6838                                         !
 ! D270  D(99,98,100,103)     -122.4257                                         !
 ! D271  D(98,100,102,106)      -0.4107                                         !
 ! D272  D(98,100,102,120)    -179.4824                                         !
 ! D273  D(101,100,102,106)   -117.7165                                         !
 ! D274  D(101,100,102,120)     63.2118                                         !
 ! D275  D(103,100,102,106)    122.8463                                         !
 ! D276  D(103,100,102,120)    -56.2254                                         !
 ! D277  D(98,100,103,104)    -179.3708                                         !
 ! D278  D(98,100,103,105)      66.7427                                         !
 ! D279  D(98,100,103,107)     -55.7056                                         !
 ! D280  D(101,100,103,104)    -60.6901                                         !
 ! D281  D(101,100,103,105)   -174.5766                                         !
 ! D282  D(101,100,103,107)     62.9751                                         !
 ! D283  D(102,100,103,104)     56.1768                                         !
 ! D284  D(102,100,103,105)    -57.7096                                         !
 ! D285  D(102,100,103,107)    179.842                                          !
 ! D286  D(100,103,107,108)   -104.2589                                         !
 ! D287  D(100,103,107,109)     11.4209                                         !
 ! D288  D(100,103,107,110)    133.0298                                         !
 ! D289  D(104,103,107,108)     16.9234                                         !
 ! D290  D(104,103,107,109)    132.6032                                         !
 ! D291  D(104,103,107,110)   -105.7879                                         !
 ! D292  D(105,103,107,108)    134.8373                                         !
 ! D293  D(105,103,107,109)   -109.4829                                         !
 ! D294  D(105,103,107,110)     12.1259                                         !
 ! D295  D(103,107,110,111)     70.4612                                         !
 ! D296  D(103,107,110,112)   -173.781                                          !
 ! D297  D(103,107,110,113)    -51.5146                                         !
 ! D298  D(108,107,110,111)    -52.9169                                         !
 ! D299  D(108,107,110,112)     62.841                                          !
 ! D300  D(108,107,110,113)   -174.8927                                         !
 ! D301  D(109,107,110,111)   -167.0792                                         !
 ! D302  D(109,107,110,112)    -51.3214                                         !
 ! D303  D(109,107,110,113)     70.945                                          !
 ! D304  D(107,110,113,114)   -170.5245                                         !
 ! D305  D(107,110,113,115)     73.8914                                         !
 ! D306  D(107,110,113,116)    -45.7599                                         !
 ! D307  D(111,110,113,114)     65.9767                                         !
 ! D308  D(111,110,113,115)    -49.6075                                         !
 ! D309  D(111,110,113,116)   -169.2587                                         !
 ! D310  D(112,110,113,114)    -48.6949                                         !
 ! D311  D(112,110,113,115)   -164.2791                                         !
 ! D312  D(112,110,113,116)     76.0697                                         !
 ! D313  D(110,113,116,117)   -171.2063                                         !
 ! D314  D(110,113,116,118)    -53.6847                                         !
 ! D315  D(110,113,116,119)     61.4143                                         !
 ! D316  D(114,113,116,117)    -48.8438                                         !
 ! D317  D(114,113,116,118)     68.6778                                         !
 ! D318  D(114,113,116,119)   -176.2232                                         !
 ! D319  D(115,113,116,117)     67.65                                           !
 ! D320  D(115,113,116,118)   -174.8283                                         !
 ! D321  D(115,113,116,119)    -59.7293                                         !
 --------------------------------------------------------------------------------
 Symmetry turned off by external request.
 Stoichiometry    C39H62N9O11(1+)
 Framework group  C1[X(C39H62N9O11)]
 Deg. of freedom   357
 Full point group                 C1      NOp   1
                          Input orientation:                          
 ---------------------------------------------------------------------
 Center     Atomic      Atomic             Coordinates (Angstroms)
 Number     Number       Type             X           Y           Z
 ---------------------------------------------------------------------
      1          7           0       -2.553618   -1.914094   -8.552973
      2          1           0       -2.449257   -0.882102   -8.549487
      3          1           0       -2.509364   -2.291361   -9.499892
      4          1           0       -1.719428   -2.272225   -8.001942
      5          6           0       -3.879038   -2.175735   -7.883146
      6          1           0       -4.646154   -2.095116   -8.659801
      7          6           0       -4.020942   -0.986658   -6.900890
      8          6           0       -3.906429   -3.552853   -7.225487
      9          1           0       -4.929595   -3.810627   -6.941783
     10          1           0       -3.567375   -4.324572   -7.921488
     11          1           0       -3.291303   -3.574189   -6.323048
     12          8           0       -3.253971   -0.029847   -7.041769
     13          7           0       -4.946795   -1.075646   -5.925337
     14          1           0       -5.334668   -1.995780   -5.756028
     15          6           0       -4.691953   -0.323544   -4.683993
     16          1           0       -4.382761    0.679406   -4.973477
     17          6           0       -3.532326   -1.062586   -3.995730
     18          6           0       -5.920303   -0.263226   -3.758323
     19          1           0       -6.680175    0.375831   -4.221691
     20          1           0       -6.345828   -1.268465   -3.663827
     21          8           0       -3.524930   -2.297686   -3.966571
     22          6           0       -5.498920    0.227564   -2.403664
     23          6           0       -5.507582   -0.502925   -1.239983
     24          1           0       -5.907612   -1.488964   -1.052672
     25          6           0       -4.815467    1.465494   -2.109128
     26          6           0       -4.434033    1.414443   -0.739319
     27          6           0       -4.450026    2.590222   -2.871582
     28          1           0       -4.749989    2.679359   -3.912012
     29          7           0       -4.876216    0.205173   -0.237583
     30          1           0       -4.798039   -0.089369    0.722080
     31          6           0       -3.361701    3.535971   -0.908553
     32          1           0       -2.799762    4.350856   -0.464732
     33          6           0       -3.721135    2.447251   -0.124166
     34          1           0       -3.459839    2.403903    0.928179
     35          6           0       -3.720514    3.606734   -2.268509
     36          1           0       -3.429254    4.475792   -2.848574
     37          7           0       -2.531777   -0.291675   -3.537753
     38          1           0       -2.616676    0.719819   -3.504018
     39          6           0       -1.356468   -0.853826   -2.891157
     40          1           0       -1.651765   -1.807487   -2.444390
     41          6           0       -0.948241    0.171458   -1.831457
     42          6           0       -0.212777   -1.088495   -3.909598
     43          1           0        0.215443   -0.121853   -4.192025
     44          1           0        0.579479   -1.674022   -3.434238
     45          8           0       -0.941646    1.368922   -2.115988
     46          6           0       -0.762459   -1.803128   -5.147511
     47          1           0       -1.309786   -2.704986   -4.847113
     48          1           0       -1.497210   -1.160453   -5.637188
     49          6           0        0.185764   -2.225937   -6.227424
     50          8           0       -0.187843   -2.538778   -7.359985
     51          8           0        1.464037   -2.280992   -5.876047
     52          7           0       -0.641867   -0.309331   -0.607996
     53          1           0       -0.542883   -1.305155   -0.469564
     54          6           0       -0.182058    0.584799    0.457122
     55          1           0       -0.741938    1.516127    0.330885
     56          6           0        1.315339    0.830091    0.218805
     57          6           0       -0.447199   -0.004429    1.848113
     58          1           0        0.160890   -0.914111    1.931198
     59          8           0        2.167473    0.026062    0.611035
     60          6           0        0.021804    0.981318    2.925785
     61          1           0       -0.543273    1.918979    2.867570
     62          1           0       -0.134204    0.559911    3.922358
     63          1           0        1.084303    1.212653    2.825364
     64          6           0       -1.927114   -0.356574    2.039534
     65          1           0       -2.539550    0.552022    2.022101
     66          1           0       -2.300180   -1.026364    1.258942
     67          1           0       -2.079787   -0.842441    3.007097
     68          7           0        1.606410    1.935123   -0.491939
     69          1           0        0.870182    2.543393   -0.831138
     70          6           0        2.962037    2.248877   -0.924732
     71          1           0        3.478430    1.304770   -1.129440
     72          6           0        3.707271    2.975375    0.213499
     73          6           0        2.900740    3.120263   -2.190355
     74          1           0        3.933900    3.407575   -2.431302
     75          8           0        3.957161    4.189494    0.146165
     76          6           0        2.285358    2.390058   -3.376266
     77          1           0        2.858958    1.488441   -3.614584
     78          1           0        1.249898    2.109346   -3.164057
     79          1           0        2.288949    3.048546   -4.247972
     80          8           0        2.108789    4.270741   -1.928020
     81          1           0        2.598186    4.745701   -1.232488
     82          7           0        4.007467    2.185596    1.256715
     83          1           0        3.798229    1.195451    1.165482
     84          6           0        4.739086    2.633464    2.432865
     85          1           0        4.675995    3.722357    2.444321
     86          6           0        6.206051    2.206657    2.268195
     87          6           0        4.108977    2.090636    3.739034
     88          1           0        3.109540    2.544810    3.789433
     89          8           0        6.504600    1.044584    2.019490
     90          6           0        3.949434    0.564473    3.762447
     91          1           0        4.917388    0.069887    3.657154
     92          1           0        3.296947    0.201169    2.962835
     93          1           0        3.502460    0.257026    4.713008
     94          6           0        4.917255    2.571972    4.951013
     95          1           0        5.892662    2.074937    4.992778
     96          1           0        4.392961    2.332063    5.879937
     97          1           0        5.082683    3.654423    4.928337
     98          7           0        7.112549    3.219969    2.427733
     99          1           0        7.904574    3.043090    4.268634
    100          6           0        8.501721    3.008540    2.018633
    101          1           0        8.538433    2.077460    1.443703
    102          6           0        9.439665    2.808510    3.218685
    103          6           0        8.989749    4.187341    1.159882
    104          1           0       10.021687    3.978382    0.871735
    105          1           0        9.029832    5.076651    1.798392
    106          8           0        8.850717    2.866754    4.429203
    107          6           0        8.088596    4.438083   -0.068048
    108          1           0        8.581751    4.066515   -0.972387
    109          1           0        7.167856    3.854121    0.029342
    110          6           0        7.695205    5.907501   -0.293474
    111          1           0        8.565409    6.488132   -0.622747
    112          1           0        6.971875    5.944706   -1.118071
    113          6           0        7.098733    6.624158    0.925004
    114          1           0        6.706289    7.596711    0.592643
    115          1           0        7.887219    6.845349    1.652859
    116          7           0        6.079171    5.810254    1.612310
    117          1           0        5.612547    6.376356    2.317049
    118          1           0        5.355295    5.498057    0.962997
    119          1           0        6.746381    4.185003    2.294379
    120          8           0       10.625277    2.629108    3.083827
    121          1           0        1.982523   -2.590389   -6.640536
 ---------------------------------------------------------------------
 Rotational constants (GHZ):           0.0763794           0.0181329           0.0166978
 Standard basis: 6-31G(d,p) (6D, 7F)
  1195 basis functions,  2086 primitive gaussians,  1195 cartesian basis functions
   223 alpha electrons      223 beta electrons
       nuclear repulsion energy      9213.5935209618 Hartrees.
 NAtoms=  121 NActive=  121 NUniq=  121 SFac= 1.00D+00 NAtFMM=   60 NAOKFM=T Big=T
 Integral buffers will be    131072 words long.
 Raffenetti 2 integral format.
 Two-electron integral symmetry is turned off.
 Nuclear repulsion after empirical dispersion term =     9213.3103604932 Hartrees.
 One-electron integrals computed using PRISM.
 NBasis=  1195 RedAO= T EigKep=  3.63D-04  NBF=  1195
 NBsUse=  1195 1.00D-06 EigRej= -1.00D+00 NBFU=  1195
 Initial guess from the checkpoint file:  "conf-879.chk"
 B after Tr=     0.000000    0.000000    0.000000
         Rot=    1.000000    0.000000    0.000000    0.000000 Ang=   0.00 deg.
 Requested convergence on RMS density matrix=1.00D-08 within 128 cycles.
 Requested convergence on MAX density matrix=1.00D-06.
 Requested convergence on             energy=1.00D-06.
 No special actions if energy rises.
 SCF Done:  E(RB3LYP) =  -2844.07119130     A.U. after    3 cycles
            NFock=  3  Conv=0.38D-09     -V/T= 2.0093
 Hyperfine terms turned off by default for NAtoms > 100.

 **********************************************************************

            Population analysis using the SCF Density.

 **********************************************************************

 Alpha  occ. eigenvalues --  -19.32991 -19.28018 -19.27214 -19.22345 -19.21823
 Alpha  occ. eigenvalues --  -19.21647 -19.20056 -19.19850 -19.19673 -19.16786
 Alpha  occ. eigenvalues --  -19.15534 -14.57789 -14.49670 -14.46635 -14.46549
 Alpha  occ. eigenvalues --  -14.46287 -14.44148 -14.42658 -14.39985 -14.37702
 Alpha  occ. eigenvalues --  -10.45921 -10.43884 -10.40622 -10.39356 -10.38955
 Alpha  occ. eigenvalues --  -10.36754 -10.36189 -10.34579 -10.34089 -10.34018
 Alpha  occ. eigenvalues --  -10.33574 -10.33161 -10.31766 -10.31545 -10.30667
 Alpha  occ. eigenvalues --  -10.30521 -10.30400 -10.30332 -10.30069 -10.29835
 Alpha  occ. eigenvalues --  -10.28718 -10.27779 -10.27154 -10.27019 -10.26822
 Alpha  occ. eigenvalues --  -10.26736 -10.26657 -10.26144 -10.26123 -10.26123
 Alpha  occ. eigenvalues --  -10.25860 -10.25437 -10.24985 -10.24260 -10.23219
 Alpha  occ. eigenvalues --  -10.23153 -10.23096 -10.22863 -10.22000  -1.24319
 Alpha  occ. eigenvalues --   -1.19469  -1.15021  -1.14666  -1.13793  -1.12420
 Alpha  occ. eigenvalues --   -1.12407  -1.11947  -1.10902  -1.08604  -1.07751
 Alpha  occ. eigenvalues --   -1.06382  -1.06140  -1.04107  -1.03372  -1.02799
 Alpha  occ. eigenvalues --   -1.00636  -0.99225  -0.97053  -0.93845  -0.93300
 Alpha  occ. eigenvalues --   -0.91973  -0.91724  -0.90118  -0.89434  -0.86768
 Alpha  occ. eigenvalues --   -0.85999  -0.84738  -0.84325  -0.84186  -0.81543
 Alpha  occ. eigenvalues --   -0.81095  -0.80482  -0.79959  -0.79803  -0.78428
 Alpha  occ. eigenvalues --   -0.77022  -0.76626  -0.75703  -0.75219  -0.73763
 Alpha  occ. eigenvalues --   -0.73330  -0.72986  -0.72946  -0.72118  -0.70272
 Alpha  occ. eigenvalues --   -0.70145  -0.69611  -0.68855  -0.67812  -0.67405
 Alpha  occ. eigenvalues --   -0.67337  -0.67131  -0.66589  -0.65419  -0.65164
 Alpha  occ. eigenvalues --   -0.64778  -0.64510  -0.64161  -0.62830  -0.62540
 Alpha  occ. eigenvalues --   -0.62287  -0.61966  -0.61565  -0.61397  -0.60886
 Alpha  occ. eigenvalues --   -0.60784  -0.60160  -0.59360  -0.59273  -0.58662
 Alpha  occ. eigenvalues --   -0.58234  -0.58086  -0.57542  -0.56801  -0.56477
 Alpha  occ. eigenvalues --   -0.56309  -0.55894  -0.55567  -0.54928  -0.54832
 Alpha  occ. eigenvalues --   -0.54441  -0.53955  -0.53707  -0.53612  -0.53358
 Alpha  occ. eigenvalues --   -0.53265  -0.52898  -0.52651  -0.52345  -0.52199
 Alpha  occ. eigenvalues --   -0.51629  -0.51320  -0.51291  -0.51124  -0.50989
 Alpha  occ. eigenvalues --   -0.50701  -0.50647  -0.50454  -0.50027  -0.49776
 Alpha  occ. eigenvalues --   -0.49592  -0.49145  -0.48939  -0.48636  -0.47997
 Alpha  occ. eigenvalues --   -0.47886  -0.47820  -0.47660  -0.47393  -0.47015
 Alpha  occ. eigenvalues --   -0.46918  -0.46450  -0.46354  -0.46228  -0.46125
 Alpha  occ. eigenvalues --   -0.45830  -0.45800  -0.45724  -0.45054  -0.44978
 Alpha  occ. eigenvalues --   -0.44766  -0.44265  -0.44010  -0.43572  -0.43478
 Alpha  occ. eigenvalues --   -0.43432  -0.43169  -0.42989  -0.42274  -0.42022
 Alpha  occ. eigenvalues --   -0.41907  -0.41709  -0.41698  -0.41640  -0.41315
 Alpha  occ. eigenvalues --   -0.41289  -0.40937  -0.40089  -0.40075  -0.39640
 Alpha  occ. eigenvalues --   -0.39227  -0.39084  -0.38945  -0.37799  -0.37458
 Alpha  occ. eigenvalues --   -0.37200  -0.37049  -0.36825  -0.36002  -0.35938
 Alpha  occ. eigenvalues --   -0.35466  -0.34745  -0.33647  -0.33532  -0.33382
 Alpha  occ. eigenvalues --   -0.32911  -0.32734  -0.31546  -0.30679  -0.30262
 Alpha  occ. eigenvalues --   -0.29557  -0.28707  -0.28197
 Alpha virt. eigenvalues --   -0.13701  -0.12538  -0.09465  -0.09213  -0.08670
 Alpha virt. eigenvalues --   -0.07883  -0.06563  -0.05672  -0.05025  -0.04437
 Alpha virt. eigenvalues --   -0.03814  -0.03271  -0.02804  -0.02313  -0.02184
 Alpha virt. eigenvalues --   -0.01372  -0.01075  -0.01033  -0.00361  -0.00121
 Alpha virt. eigenvalues --    0.00064   0.00740   0.01300   0.01471   0.02407
 Alpha virt. eigenvalues --    0.02691   0.02897   0.03073   0.03651   0.03867
 Alpha virt. eigenvalues --    0.04118   0.04444   0.04491   0.04935   0.05020
[...]
 Alpha virt. eigenvalues --    1.63520   1.64585   1.65252   1.65404   1.65618
 Alpha virt. eigenvalues --    1.65854   1.66522   1.66967   1.67874   1.67945
 Alpha virt. eigenvalues --    1.68279   1.68761   1.68930   1.69508   1.69635
 Alpha virt. eigenvalues --    1.70203   1.70499   1.70876   1.71308   1.71535
 Alpha virt. eigenvalues --    1.71629   1.72141   1.72270   1.72495   1.72797
 Alpha virt. eigenvalues --    1.73184   1.73594   1.74284   1.74925   1.75432
 Alpha virt. eigenvalues --    1.75810   1.76263   1.76546   1.76696   1.76742
 Alpha virt. eigenvalues --    1.77176   1.77308   1.77527   1.78070   1.78284
 Alpha virt. eigenvalues --    1.78482   1.79281   1.79393   1.79682   1.79964
 Alpha virt. eigenvalues --    1.80204   1.80753   1.80794   1.81127   1.81666
 Alpha virt. eigenvalues --    1.81854   1.81936   1.82432   1.82708   1.82867
 Alpha virt. eigenvalues --    1.83049   1.83454   1.83595   1.83779   1.84350
 Alpha virt. eigenvalues --    1.84419   1.85484   1.85558   1.85788   1.85916
 Alpha virt. eigenvalues --    1.86217   1.86808   1.87020   1.87349   1.87646
 Alpha virt. eigenvalues --    1.88012   1.88168   1.88295   1.88443   1.89027
 Alpha virt. eigenvalues --    1.89304   1.89781   1.90444   1.90751   1.90938
 Alpha virt. eigenvalues --    1.91402   1.91873   1.92138   1.92343   1.92822
 Alpha virt. eigenvalues --    1.93004   1.93577   1.93903   1.94114   1.94460
 Alpha virt. eigenvalues --    1.94703   1.94819   1.95473   1.95798   1.96239
 Alpha virt. eigenvalues --    1.96534   1.96779   1.96996   1.97329   1.97721
 Alpha virt. eigenvalues --    1.97947   1.98086   1.98404   1.98514   1.98734
 Alpha virt. eigenvalues --    1.99135   1.99259   1.99399   2.00112   2.00280
 Alpha virt. eigenvalues --    2.00709   2.01032   2.01236   2.01909   2.02375
 Alpha virt. eigenvalues --    2.02565   2.02978   2.03188   2.03424   2.03833
 Alpha virt. eigenvalues --    2.04024   2.04360   2.04618   2.04762   2.05378
 Alpha virt. eigenvalues --    2.05583   2.06058   2.06535   2.06603   2.06880
 Alpha virt. eigenvalues --    2.07002   2.07403   2.07523   2.07626   2.07936
 Alpha virt. eigenvalues --    2.08255   2.08585   2.08787   2.09034   2.09914
 Alpha virt. eigenvalues --    2.10452   2.10930   2.11032   2.11762   2.12070
 Alpha virt. eigenvalues --    2.12267   2.12351   2.12488   2.13405   2.13529
 Alpha virt. eigenvalues --    2.14195   2.14571   2.15250   2.15854   2.16394
 Alpha virt. eigenvalues --    2.16833   2.17167   2.17273   2.17878   2.18031
 Alpha virt. eigenvalues --    2.18929   2.19108   2.19527   2.19685   2.20306
 Alpha virt. eigenvalues --    2.20942   2.21367   2.21730   2.21991   2.22817
 Alpha virt. eigenvalues --    2.23096   2.23157   2.23478   2.23624   2.24343
 Alpha virt. eigenvalues --    2.24813   2.25054   2.25647   2.25808   2.25877
 Alpha virt. eigenvalues --    2.27321   2.27685   2.28151   2.28339   2.28567
 Alpha virt. eigenvalues --    2.28988   2.29111   2.29731   2.30110   2.30317
 Alpha virt. eigenvalues --    2.30619   2.31021   2.31326   2.31516   2.31693
 Alpha virt. eigenvalues --    2.32312   2.32499   2.32951   2.33190   2.33452
 Alpha virt. eigenvalues --    2.34237   2.34347   2.34403   2.34735   2.35128
 Alpha virt. eigenvalues --    2.35375   2.35909   2.36032   2.37004   2.37519
 Alpha virt. eigenvalues --    2.38330   2.38667   2.39202   2.39330   2.39569
 Alpha virt. eigenvalues --    2.39708   2.39811   2.40162   2.40562   2.40796
 Alpha virt. eigenvalues --    2.40830   2.41457   2.41864   2.42740   2.43072
 Alpha virt. eigenvalues --    2.43428   2.43611   2.44163   2.44483   2.45144
 Alpha virt. eigenvalues --    2.45335   2.46533   2.46906   2.48048   2.48203
 Alpha virt. eigenvalues --    2.48426   2.48837   2.49297   2.50450   2.50509
 Alpha virt. eigenvalues --    2.50673   2.51103   2.51247   2.51680   2.52234
 Alpha virt. eigenvalues --    2.52853   2.53320   2.53602   2.54048   2.54224
 Alpha virt. eigenvalues --    2.54792   2.54974   2.55357   2.55475   2.55830
 Alpha virt. eigenvalues --    2.56114   2.56346   2.56360   2.56901   2.57373
 Alpha virt. eigenvalues --    2.57813   2.58173   2.58978   2.59003   2.59280
 Alpha virt. eigenvalues --    2.59878   2.60515   2.60972   2.61410   2.61641
 Alpha virt. eigenvalues --    2.61939   2.62140   2.62507   2.63377   2.63455
 Alpha virt. eigenvalues --    2.63853   2.64323   2.64413   2.64643   2.64845
 Alpha virt. eigenvalues --    2.64925   2.65200   2.65664   2.65956   2.66193
 Alpha virt. eigenvalues --    2.66472   2.66613   2.66760   2.67490   2.67833
 Alpha virt. eigenvalues --    2.68476   2.68598   2.68756   2.69089   2.69301
 Alpha virt. eigenvalues --    2.69867   2.70246   2.70371   2.70995   2.71054
 Alpha virt. eigenvalues --    2.71251   2.71799   2.72477   2.72676   2.72847
 Alpha virt. eigenvalues --    2.73141   2.73453   2.74113   2.74120   2.74404
 Alpha virt. eigenvalues --    2.74878   2.75501   2.76440   2.76676   2.76774
 Alpha virt. eigenvalues --    2.77184   2.77595   2.77979   2.78321   2.78566
 Alpha virt. eigenvalues --    2.79383   2.79614   2.80037   2.80531   2.80920
 Alpha virt. eigenvalues --    2.81142   2.81408   2.81822   2.82670   2.82957
 Alpha virt. eigenvalues --    2.83320   2.83690   2.84264   2.84574   2.84970
 Alpha virt. eigenvalues --    2.85196   2.86220   2.86615   2.86743   2.87476
 Alpha virt. eigenvalues --    2.87822   2.88113   2.89245   2.89565   2.89836
 Alpha virt. eigenvalues --    2.90043   2.91369   2.91683   2.92736   2.92880
 Alpha virt. eigenvalues --    2.93315   2.93422   2.93774   2.94130   2.94639
 Alpha virt. eigenvalues --    2.95805   2.96154   2.96917   2.97124   2.98280
 Alpha virt. eigenvalues --    2.99580   3.00464   3.01798   3.01883   3.03461
 Alpha virt. eigenvalues --    3.03803   3.05519   3.05669   3.07557   3.08491
 Alpha virt. eigenvalues --    3.09153   3.09481   3.10131   3.10750   3.11558
 Alpha virt. eigenvalues --    3.12052   3.14682   3.15533   3.16183   3.16577
 Alpha virt. eigenvalues --    3.16710   3.17162   3.17737   3.18391   3.19319
 Alpha virt. eigenvalues --    3.20234   3.20978   3.21238   3.23164   3.23852
 Alpha virt. eigenvalues --    3.24303   3.25616   3.27144   3.27880   3.28011
 Alpha virt. eigenvalues --    3.28408   3.29059   3.29614   3.29708   3.29850
 Alpha virt. eigenvalues --    3.31082   3.31391   3.33397   3.35122   3.35453
 Alpha virt. eigenvalues --    3.35528   3.36469   3.36507   3.37077   3.38093
 Alpha virt. eigenvalues --    3.38478   3.39030   3.39323   3.40057   3.40450
 Alpha virt. eigenvalues --    3.40780   3.41300   3.41630   3.41934   3.43216
 Alpha virt. eigenvalues --    3.43643   3.43894   3.44556   3.45984   3.46119
 Alpha virt. eigenvalues --    3.47156   3.47784   3.48311   3.48895   3.49817
 Alpha virt. eigenvalues --    3.49970   3.50840   3.51737   3.53120   3.54088
 Alpha virt. eigenvalues --    3.54597   3.60719   3.78772   3.87379   3.89373
 Alpha virt. eigenvalues --    3.98310   3.99199   3.99918   4.02744   4.05269
 Alpha virt. eigenvalues --    4.07310   4.08575   4.09357   4.09516   4.12414
 Alpha virt. eigenvalues --    4.14058   4.14711   4.17127   4.18424   4.19081
 Alpha virt. eigenvalues --    4.19869   4.20904   4.21054   4.23513   4.24260
 Alpha virt. eigenvalues --    4.26751   4.27379   4.28996   4.30230   4.31684
 Alpha virt. eigenvalues --    4.32801   4.34367   4.37076   4.38164   4.39105
 Alpha virt. eigenvalues --    4.39633   4.40822   4.43180   4.43802   4.44696
 Alpha virt. eigenvalues --    4.46224   4.47437   4.48593   4.49048   4.49276
 Alpha virt. eigenvalues --    4.50608   4.53700   4.54293   4.55754   4.57083
 Alpha virt. eigenvalues --    4.58759   4.61770   4.61867   4.64790   4.66981
 Alpha virt. eigenvalues --    4.70928   4.74181   4.76207   4.77011   4.77975
 Alpha virt. eigenvalues --    4.80143   4.83567
          Condensed to atoms (all electrons):
 Mulliken charges:
               1
     1  N   -0.567497
     2  H    0.350426
     3  H    0.338103
     4  H    0.386794
     5  C   -0.089299
     6  H    0.187833
     7  C    0.639247
     8  C   -0.352146
     9  H    0.154653
    10  H    0.146249
    11  H    0.173079
    12  O   -0.526042
    13  N   -0.502623
    14  H    0.285657
    15  C   -0.028892
    16  H    0.151238
    17  C    0.612362
    18  C   -0.239415
    19  H    0.138057
    20  H    0.112539
    21  O   -0.570217
    22  C    0.001536
    23  C    0.073736
    24  H    0.122580
    25  C    0.059359
    26  C    0.288069
    27  C   -0.186812
    28  H    0.086200
    29  N   -0.615966
    30  H    0.271567
    31  C   -0.095649
    32  H    0.098587
    33  C   -0.098731
    34  H    0.093194
    35  C   -0.076664
    36  H    0.098467
    37  N   -0.512346
    38  H    0.305232
    39  C   -0.017178
    40  H    0.135730
    41  C    0.618457
    42  C   -0.176067
    43  H    0.143944
    44  H    0.136023
    45  O   -0.533126
    46  C   -0.304285
    47  H    0.182454
    48  H    0.147641
    49  C    0.612823
    50  O   -0.529057
    51  O   -0.439974
    52  N   -0.532401
    53  H    0.276348
    54  C    0.012041
    55  H    0.133163
    56  C    0.615582
    57  C   -0.086907
    58  H    0.121466
    59  O   -0.555171
    60  C   -0.333362
    61  H    0.103216
    62  H    0.120577
    63  H    0.135216
    64  C   -0.324750
    65  H    0.100946
    66  H    0.092360
    67  H    0.124381
    68  N   -0.507232
    69  H    0.296431
    70  C   -0.040289
    71  H    0.139912
    72  C    0.632875
    73  C    0.147607
    74  H    0.103145
    75  O   -0.570138
    76  C   -0.337256
    77  H    0.095163
    78  H    0.130326
    79  H    0.124020
    80  O   -0.560656
    81  H    0.326963
    82  N   -0.520108
    83  H    0.311537
    84  C   -0.015667
    85  H    0.116555
    86  C    0.599686
    87  C   -0.066009
    88  H    0.094991
    89  O   -0.516510
    90  C   -0.345190
    91  H    0.145831
    92  H    0.114345
    93  H    0.101414
    94  C   -0.330787
    95  H    0.124040
    96  H    0.116856
    97  H    0.100976
    98  N   -0.611699
    99  H    0.332968
   100  C   -0.028605
   101  H    0.162586
   102  C    0.603573
   103  C   -0.195308
   104  H    0.141583
   105  H    0.103288
   106  O   -0.492909
   107  C   -0.186257
   108  H    0.104064
   109  H    0.099152
   110  C   -0.196372
   111  H    0.108828
   112  H    0.098356
   113  C   -0.049555
   114  H    0.094209
   115  H    0.111468
   116  N   -0.670471
   117  H    0.250736
   118  H    0.293969
   119  H    0.330194
   120  O   -0.457160
   121  H    0.347975
 Sum of Mulliken charges =   1.00000
 Mulliken charges with hydrogens summed into heavy atoms:
               1
     1  N    0.507826
     5  C    0.098534
     7  C    0.639247
     8  C    0.121834
    12  O   -0.526042
    13  N   -0.216966
    15  C    0.122347
    17  C    0.612362
    18  C    0.011181
    21  O   -0.570217
    22  C    0.001536
    23  C    0.196316
    25  C    0.059359
    26  C    0.288069
    27  C   -0.100612
    29  N   -0.344399
    31  C    0.002938
    33  C   -0.005537
    35  C    0.021803
    37  N   -0.207114
    39  C    0.118552
    41  C    0.618457
    42  C    0.103900
    45  O   -0.533126
    46  C    0.025810
    49  C    0.612823
    50  O   -0.529057
    51  O   -0.091999
    52  N   -0.256053
    54  C    0.145204
    56  C    0.615582
    57  C    0.034560
    59  O   -0.555171
    60  C    0.025647
    64  C   -0.007063
    68  N   -0.210800
    70  C    0.099623
    72  C    0.632875
    73  C    0.250752
    75  O   -0.570138
    76  C    0.012252
    80  O   -0.233692
    82  N   -0.208572
    84  C    0.100888
    86  C    0.599686
    87  C    0.028981
    89  O   -0.516510
    90  C    0.016401
    94  C    0.011085
    98  N   -0.281505
   100  C    0.133980
   102  C    0.603573
   103  C    0.049563
   106  O   -0.159941
   107  C    0.016959
   110  C    0.010813
   113  C    0.156122
   116  N   -0.125766
   120  O   -0.457160
 Electronic spatial extent (au):  <R**2>=          69449.2163
 Charge=              1.0000 electrons
 Dipole moment (field-independent basis, Debye):
    X=            -17.9085    Y=             -5.6506    Z=            -28.5677  Tot=             34.1871
 Quadrupole moment (field-independent basis, Debye-Ang):
   XX=           -365.3668   YY=           -296.5785   ZZ=           -105.3961
   XY=             45.6818   XZ=             38.1847   YZ=             79.3310
 Traceless Quadrupole moment (field-independent basis, Debye-Ang):
   XX=           -109.5863   YY=            -40.7981   ZZ=            150.3844
   XY=             45.6818   XZ=             38.1847   YZ=             79.3310
 Octapole moment (field-independent basis, Debye-Ang**2):
  XXX=          -2279.9366  YYY=          -1115.2968  ZZZ=           -809.9318  XYY=           -191.3061
  XXY=           -534.6919  XXZ=           -380.8343  XZZ=          -1084.8309  YZZ=           -990.5071
  YYZ=            313.7118  XYZ=           -199.7521
 Hexadecapole moment (field-independent basis, Debye-Ang**3):
 XXXX=         -58174.1573 YYYY=         -13302.1886 ZZZZ=         -10389.1999 XXXY=          -8528.8781
 XXXZ=         -13041.1555 YYYX=          -6885.7435 YYYZ=          -2784.5316 ZZZX=          -4469.5961
 ZZZY=           1120.7234 XXYY=          -8886.1268 XXZZ=         -11129.6570 YYZZ=          -5697.6926
 XXYZ=          -1068.4408 YYXZ=          -2501.9840 ZZXY=          -1443.2385
 N-N= 9.213310360493D+03 E-N=-2.501728089501D+04  KE= 2.817994901748D+03
 Unable to Open any file for archive entry.
 1\1\GINC-SKL-160\SP\RB3LYP\6-31G(d,p)\C39H62N9O11(1+)\KENGMITH\04-Sep-
 2022\0\\# B3LYP/6-31G** empiricaldispersion=gd3bj guess=read geom=chec
 k nosymm integral(ultrafinegrid)\\Candidate Structure: Conf:879 Charge
  calc in gas phase\\1,1\N,0,-2.5536175986,-1.9140935274,-8.5529734954\
 H,0,-2.4492569885,-0.8821021998,-8.5494868196\H,0,-2.5093642484,-2.291
 3609679,-9.4998924511\H,0,-1.7194281357,-2.2722246609,-8.0019424779\C,
 0,-3.8790384406,-2.1757346333,-7.8831455554\H,0,-4.646154212,-2.095116
 481,-8.6598011781\C,0,-4.0209420779,-0.986657729,-6.9008895859\C,0,-3.
 9064289083,-3.5528526542,-7.2254867524\H,0,-4.9295953475,-3.8106266444
 ,-6.9417830285\H,0,-3.5673746828,-4.3245723165,-7.9214877308\H,0,-3.29
 13025795,-3.5741887598,-6.3230480895\O,0,-3.2539708255,-0.0298470289,-
 7.0417688378\N,0,-4.9467947676,-1.0756457304,-5.9253372184\H,0,-5.3346
 680651,-1.9957802643,-5.756027643\C,0,-4.6919530974,-0.3235444146,-4.6
 839927089\H,0,-4.3827610604,0.67940583,-4.9734769589\C,0,-3.5323257151
 ,-1.062585873,-3.9957301613\C,0,-5.920302515,-0.2632257683,-3.75832319
 61\H,0,-6.6801752805,0.375831163,-4.2216905104\H,0,-6.3458280526,-1.26
 84653024,-3.6638266172\O,0,-3.5249298271,-2.2976857716,-3.9665708882\C
 ,0,-5.4989196743,0.2275644308,-2.4036643125\C,0,-5.5075818854,-0.50292
 46938,-1.2399827372\H,0,-5.907611501,-1.4889638682,-1.0526715159\C,0,-
 4.8154671736,1.4654944676,-2.1091283803\C,0,-4.4340332389,1.4144433257
 ,-0.739319177\C,0,-4.4500262435,2.590221877,-2.8715822428\H,0,-4.74998
 93797,2.6793590463,-3.9120116431\N,0,-4.8762156746,0.2051733856,-0.237
 5828127\H,0,-4.7980394479,-0.0893691847,0.7220796018\C,0,-3.3617007059
 ,3.5359708394,-0.9085527437\H,0,-2.7997620404,4.3508560453,-0.46473231
 32\C,0,-3.7211353713,2.4472513315,-0.1241662993\H,0,-3.4598387855,2.40
 39030718,0.9281785552\C,0,-3.7205135975,3.6067340549,-2.2685093115\H,0
 ,-3.4292542092,4.4757920227,-2.8485738974\N,0,-2.5317773447,-0.2916751
 891,-3.5377531317\H,0,-2.6166757423,0.7198189905,-3.5040181162\C,0,-1.
 356467803,-0.8538261127,-2.8911569317\H,0,-1.6517652328,-1.8074867687,
 -2.4443895141\C,0,-0.94824121,0.1714576709,-1.8314573232\C,0,-0.212776
 6823,-1.0884953087,-3.9095976166\H,0,0.2154430833,-0.1218527587,-4.192
 0252499\H,0,0.5794793014,-1.6740223548,-3.4342384249\O,0,-0.9416461836
 ,1.3689215367,-2.115988023\C,0,-0.7624594541,-1.8031277609,-5.14751053
 15\H,0,-1.3097856071,-2.7049855545,-4.8471130861\H,0,-1.4972095864,-1.
 1604526667,-5.6371882377\C,0,0.1857635269,-2.2259374872,-6.227424232\O
 ,0,-0.1878429425,-2.5387778863,-7.3599851495\O,0,1.464037071,-2.280992
 4621,-5.8760467088\N,0,-0.641867452,-0.3093306164,-0.6079960695\H,0,-0
 .5428827272,-1.3051554779,-0.4695641527\C,0,-0.1820577959,0.5847989643
 ,0.4571222929\H,0,-0.7419376711,1.5161267457,0.3308850594\C,0,1.315338
 8294,0.8300907893,0.2188054292\C,0,-0.4471990758,-0.0044286339,1.84811
 34619\H,0,0.1608897476,-0.9141110618,1.9311976002\O,0,2.1674733321,0.0
 260615323,0.6110353332\C,0,0.0218043474,0.9813182849,2.9257853304\H,0,
 -0.5432731181,1.9189790206,2.8675697663\H,0,-0.134204175,0.5599112457,
 3.9223575966\H,0,1.0843027615,1.2126534531,2.8253642718\C,0,-1.9271137
 723,-0.3565735393,2.0395344283\H,0,-2.5395501625,0.5520223892,2.022101
 0193\H,0,-2.3001803605,-1.0263640883,1.258942033\H,0,-2.0797872057,-0.
 8424409381,3.0070968589\N,0,1.6064096923,1.9351226692,-0.4919385353\H,
 0,0.8701816032,2.5433925848,-0.8311379013\C,0,2.9620370521,2.248876717
 2,-0.9247315438\H,0,3.4784302305,1.3047699597,-1.1294397535\C,0,3.7072
 710289,2.9753752349,0.2134990638\C,0,2.900740271,3.1202631305,-2.19035
 52291\H,0,3.9338998652,3.4075745233,-2.4313022913\O,0,3.9571607942,4.1
 894940141,0.1461647041\C,0,2.2853583174,2.3900580312,-3.3762661289\H,0
 ,2.8589584374,1.488440802,-3.6145836194\H,0,1.2498975769,2.1093462315,
 -3.1640572683\H,0,2.2889486143,3.0485462947,-4.247971836\O,0,2.1087894
 417,4.2707405428,-1.9280200134\H,0,2.5981859409,4.7457006378,-1.232488
 1148\N,0,4.0074666462,2.1855957948,1.2567150848\H,0,3.7982292984,1.195
 4510532,1.1654820152\C,0,4.7390860161,2.6334641987,2.4328649793\H,0,4.
 6759954281,3.7223570946,2.4443210299\C,0,6.206050967,2.2066567951,2.26
 81947278\C,0,4.1089767226,2.0906361447,3.7390340745\H,0,3.1095400293,2
 .5448104214,3.7894332348\O,0,6.5045997609,1.0445835553,2.0194904083\C,
 0,3.9494341612,0.5644726408,3.7624472\H,0,4.9173882308,0.0698869047,3.
 6571544114\H,0,3.2969474415,0.2011689015,2.9628348902\H,0,3.5024600247
 ,0.2570261433,4.7130081111\C,0,4.9172553952,2.5719715315,4.9510125404\
 H,0,5.8926617074,2.0749374528,4.9927777757\H,0,4.3929605859,2.33206270
 86,5.8799374582\H,0,5.0826833057,3.6544230257,4.9283369438\N,0,7.11254
 90249,3.219969204,2.4277329312\H,0,7.9045740731,3.043089944,4.26863417
 27\C,0,8.5017210177,3.0085400552,2.0186334483\H,0,8.5384326962,2.07745
 99706,1.443703377\C,0,9.4396651689,2.8085096949,3.2186852916\C,0,8.989
 7494456,4.1873411712,1.1598817357\H,0,10.0216867138,3.9783816536,0.871
 7352734\H,0,9.0298315813,5.0766513245,1.7983918064\O,0,8.8507169101,2.
 8667541924,4.4292033868\C,0,8.0885958548,4.4380827062,-0.0680483089\H,
 0,8.5817506213,4.066515225,-0.9723869215\H,0,7.1678564587,3.8541212282
 ,0.0293418061\C,0,7.6952052046,5.9075005875,-0.2934740148\H,0,8.565409
 4116,6.4881324116,-0.62274742\H,0,6.9718746995,5.9447055104,-1.1180705
 551\C,0,7.0987334835,6.6241581926,0.9250043318\H,0,6.7062892881,7.5967
 110739,0.5926432492\H,0,7.8872192187,6.845349326,1.6528586765\N,0,6.07
 91706243,5.8102541992,1.6123100556\H,0,5.6125470359,6.3763557741,2.317
 0486688\H,0,5.3552950532,5.4980573712,0.9629970519\H,0,6.7463812916,4.
 1850032449,2.2943789281\O,0,10.6252770947,2.6291082454,3.0838274739\H,
 0,1.9825233297,-2.5903892312,-6.640536231\\Version=ES64L-G16RevC.01\HF
 =-2844.0711913\RMSD=3.767e-10\Dipole=-8.8887239,-4.4547091,-8.889322\Q
 uadrupole=-81.4747248,-30.3323538,111.8070786,33.9632719,28.3893719,58
 .9806452\PG=C01 [X(C39H62N9O11)]\\@
 The archive entry for this job was punched.


 MOST BUREAUCRACIES FUNCTION LIKE A SEPTIC TANK.
 THE LARGE CHUNKS RISE TO THE TOP.
 Job cpu time:       0 days  0 hours 19 minutes 19.9 seconds.
 Elapsed time:       0 days  0 hours  5 minutes  0.3 seconds.
 File lengths (MBytes):  RWF=    976 Int=      0 D2E=      0 Chk=    144 Scr=     32
 Normal termination of Gaussian 16 at Sun Sep  4 01:07:23 2022.
