 Entering Gaussian System, Link 0=/opt/software/Gaussian/g16-AVX2-C.01/g16/g16
 Input=charge-conf-962.com
 Output=charge-conf-962.log
 Initial command:
 /opt/software/Gaussian/g16-AVX2-C.01/g16/l1.exe "/mnt/gs21/scratch/kengmith/Gau-18621.inp" -scrdir="/mnt/gs21/scratch/kengmith/"
 Entering Link 1 = /opt/software/Gaussian/g16-AVX2-C.01/g16/l1.exe PID=     18656.
  
 Copyright (c) 1988-2019, Gaussian, Inc.  All Rights Reserved.
  
 This is part of the Gaussian(R) 16 program.  It is based on
 the Gaussian(R) 09 system (copyright 2009, Gaussian, Inc.),
 the Gaussian(R) 03 system (copyright 2003, Gaussian, Inc.),
 the Gaussian(R) 98 system (copyright 1998, Gaussian, Inc.),
 the Gaussian(R) 94 system (copyright 1995, Gaussian, Inc.),
 the Gaussian 92(TM) system (copyright 1992, Gaussian, Inc.),
 the Gaussian 90(TM) system (copyright 1990, Gaussian, Inc.),
 the Gaussian 88(TM) system (copyright 1988, Gaussian, Inc.),
 the Gaussian 86(TM) system (copyright 1986, Carnegie Mellon
 University), and the Gaussian 82(TM) system (copyright 1983,
 Carnegie Mellon University). Gaussian is a federally registered
 trademark of Gaussian, Inc.
  
 This software contains proprietary and confidential information,
 including trade secrets, belonging to Gaussian, Inc.
  
 This software is provided under written license and may be
 used, copied, transmitted, or stored only in accord with that
 written license.
  
 The following legend is applicable only to US Government
 contracts under FAR:
  
                    RESTRICTED RIGHTS LEGEND
  
 Use, reproduction and disclosure by the US Government is
 subject to restrictions as set forth in subparagraphs (a)
 and (c) of the Commercial Computer Software - Restricted
 Rights clause in FAR 52.227-19.
  
 Gaussian, Inc.
 340 Quinnipiac St., Bldg. 40, Wallingford CT 06492
  
  
 ---------------------------------------------------------------
 Warning -- This program may not be used in any manner that
 competes with the business of Gaussian, Inc. or will provide
 assistance to any competitor of Gaussian, Inc.  The licensee
 of this program is prohibited from giving any competitor of
 Gaussian, Inc. access to this program.  By using this program,
 the user acknowledges that Gaussian, Inc. is engaged in the
 business of creating and licensing software in the field of
 computational chemistry and represents and warrants to the
 licensee that it is not a competitor of Gaussian, Inc. and that
 it will not use this program in any manner prohibited above.
 ---------------------------------------------------------------
  

 Cite this work as:
 Gaussian 16, Revision C.01,
 M. J. Frisch, G. W. Trucks, H. B. Schlegel, G. E. Scuseria, 
 M. A. Robb, J. R. Cheeseman, G. Scalmani, V. Barone, 
 G. A. Petersson, H. Nakatsuji, X. Li, M. Caricato, A. V. Marenich, 
 J. Bloino, B. G. Janesko, R. Gomperts, B. Mennucci, H. P. Hratchian, 
 J. V. Ortiz, A. F. Izmaylov, J. L. Sonnenberg, D. Williams-Young, 
 F. Ding, F. Lipparini, F. Egidi, J. Goings, B. Peng, A. Petrone, 
 T. Henderson, D. Ranasinghe, V. G. Zakrzewski, J. Gao, N. Rega, 
 G. Zheng, W. Liang, M. Hada, M. Ehara, K. Toyota, R. Fukuda, 
 J. Hasegawa, M. Ishida, T. Nakajima, Y. Honda, O. Kitao, H. Nakai, 
 T. Vreven, K. Throssell, J. A. Montgomery, Jr., J. E. Peralta, 
 F. Ogliaro, M. J. Bearpark, J. J. Heyd, E. N. Brothers, K. N. Kudin, 
 V. N. Staroverov, T. A. Keith, R. Kobayashi, J. Normand, 
 K. Raghavachari, A. P. Rendell, J. C. Burant, S. S. Iyengar, 
 J. Tomasi, M. Cossi, J. M. Millam, M. Klene, C. Adamo, R. Cammi, 
 J. W. Ochterski, R. L. Martin, K. Morokuma, O. Farkas, 
 J. B. Foresman, and D. J. Fox, Gaussian, Inc., Wallingford CT, 2019.
 
 ******************************************
 Gaussian 16:  ES64L-G16RevC.01  3-Jul-2019
                14-Aug-2022 
 ******************************************
 %mem=8gb
 %nproc=4
 Will use up to    4 processors via shared memory.
 %chk=conf-962.chk
 ----------------------------------------------------------------------
 # B3LYP/6-31G* empiricaldispersion=gd3 guess=read geom=check nosymm in
 tegral(ultrafinegrid)
 ----------------------------------------------------------------------
 1/29=2,38=1,172=1/1;
 2/12=2,15=1,40=1/2;
 3/5=1,6=6,7=1,11=2,14=-4,25=1,30=1,74=-5,75=-5,116=-2,124=31/1,2,3;
 4/5=1/1;
 5/5=2,38=6/2;
 6/7=2,8=2,9=2,10=2,28=1/1;
 99/5=1,9=1/99;
 ------------------------------------------------------
 Candidate Structure: Conf:962 Charge calc in gas phase
 ------------------------------------------------------
 Structure from the checkpoint file:  "conf-962.chk"
 Charge =  1 Multiplicity = 1
 Redundant internal coordinates found in file.  (old form).
 N,0,-3.0470141126,-1.1438001618,8.9607438511
 H,0,-3.220079243,-2.0136671877,9.4698162278
 H,0,-2.1288432008,-1.2243922029,8.4174522757
 H,0,-3.0090715461,-0.3732244893,9.6324914846
 C,0,-4.0303838002,-0.9026398044,7.8316509301
 H,0,-4.8371023771,-1.6338807735,7.9239726911
 C,0,-3.1634217095,-1.1704650035,6.5733103937
 C,0,-4.5980741619,0.5355372879,7.8595688544
 H,0,-5.239321846,0.5987595061,6.9710285189
 O,0,-1.9372865411,-1.2958653149,6.7360683564
 C,0,-5.4795353891,0.7661615581,9.0957541238
 H,0,-4.9002015737,0.7521319621,10.0297204698
 H,0,-5.9527734905,1.7506143049,9.0388936277
 H,0,-6.2731140214,0.0152430424,9.1769350605
 C,0,-3.5001797235,1.6030297034,7.7228017316
 H,0,-2.8281567159,1.6255320698,8.5916882399
 H,0,-2.8877874816,1.4576525455,6.8282727361
 H,0,-3.9568821427,2.5941050979,7.6553520385
 N,0,-3.8058653984,-1.1945795486,5.4172483889
 H,0,-4.7913622797,-0.9286910711,5.3494513216
 C,0,-3.1346733959,-1.1144862207,4.1157205187
 H,0,-2.2638251642,-0.4637873703,4.2417674328
 C,0,-4.1475858532,-0.3461983164,3.2359925461
 C,0,-2.655909084,-2.5022698559,3.6226692615
 H,0,-2.1230452114,-2.9200738315,4.4881757578
 O,0,-5.2401758773,-0.0002563563,3.7055818241
 C,0,-1.6389589652,-2.4276929507,2.4643855741
 H,0,-2.140660195,-2.2167638314,1.5142783657
 H,0,-1.2404980841,-3.4424467994,2.3377296238
 C,0,-3.8359677573,-3.4169547236,3.2745997068
 H,0,-4.3860150859,-3.0329040893,2.4074809734
 H,0,-4.539032461,-3.5087211447,4.1105690273
 H,0,-3.4810563325,-4.4211790002,3.0220077453
 C,0,-0.4663367226,-1.4581532901,2.6710015296
 H,0,0.2744799802,-1.5907760529,1.8772011888
 H,0,-0.7683797284,-0.4034383815,2.6433218898
 H,0,0.0298486872,-1.6278086942,3.6343660637
 N,0,-3.7290362448,-0.0103677862,2.0087878838
 H,0,-2.8210827867,-0.309955061,1.672885925
 C,0,-4.3436517229,1.0501000088,1.2238179147
 H,0,-5.401539803,0.8113436564,1.0617124449
 C,0,-3.6297013365,1.0272951095,-0.1422587356
 C,0,-4.2661645004,2.4245194442,1.9729817702
 H,0,-5.0022549471,2.371923155,2.7797782296
 H,0,-4.5951339828,3.2234331796,1.2988997821
 O,0,-2.7729985104,0.1686736342,-0.3879806804
 C,0,-2.89200003,2.7215031605,2.5335535944
 C,0,-2.5566893473,2.2952484726,3.8279429641
 H,0,-3.3280855188,1.8490511631,4.4521907869
 C,0,-1.9091890588,3.3534629682,1.7618754367
 H,0,-2.145913221,3.7268683616,0.7699222965
 C,0,-1.2542573081,2.4277389006,4.3119794338
 H,0,-1.0048112113,2.0666735165,5.3078043416
 C,0,-0.6091261669,3.5040502258,2.2529555425
 H,0,0.151991423,3.9784542971,1.6406769826
 C,0,-0.2678360722,3.0171638044,3.5168315979
 H,0,0.7604559484,3.083656001,3.8565129412
 N,0,-3.9879810126,1.9675107419,-1.0391114341
 H,0,-4.5749820966,2.7337295528,-0.7364151059
 C,0,-3.1926267134,2.1968545626,-2.2592478391
 H,0,-3.0221928514,1.2161803172,-2.7092647315
 C,0,-1.8633902662,2.8290662794,-1.7937613395
 C,0,-3.9440170037,3.1052375534,-3.2299862224
 H,0,-4.2189245539,4.0263993015,-2.6998247204
 H,0,-4.8721671688,2.5999111911,-3.5294294419
 O,0,-1.8259751095,4.002495521,-1.4241823196
 C,0,-3.1264334631,3.48963693,-4.4807317348
 H,0,-2.3016743287,4.1310257697,-4.1433157686
 C,0,-2.5215911801,2.2698685496,-5.1944352854
 H,0,-3.2939358292,1.5264713676,-5.4332811121
 H,0,-1.7445271327,1.7838705502,-4.5928050118
 H,0,-2.0508770098,2.5720878165,-6.1361226283
 C,0,-4.005580176,4.3077174498,-5.4362492607
 H,0,-4.8333284722,3.7000113578,-5.8244770701
 H,0,-3.4240219438,4.6648173639,-6.2931325067
 H,0,-4.4364274503,5.1821554256,-4.9343565879
 N,0,-0.8294337289,1.9670644574,-1.7467261178
 H,0,-0.977419782,1.015571595,-2.0520758985
 C,0,0.4497577866,2.2331611157,-1.1171724323
 H,0,0.4072340413,3.234534034,-0.6875095688
 C,0,1.5498498584,2.1629363788,-2.182001864
 C,0,0.6525544736,1.1688653157,-0.0028959732
 H,0,0.494266351,0.1851972023,-0.4594127
 H,0,-0.1598928389,1.3172428092,0.7146483441
 O,0,1.4437267001,1.4395441566,-3.1787066734
 C,0,1.9954400388,1.1056546179,0.7423279536
 H,0,1.9406807121,0.2862002358,1.4647134429
 H,0,2.7913290164,0.8464549099,0.0314342692
 C,0,2.484207003,2.3570075544,1.4872920269
 O,0,2.8461980592,2.2194166846,2.6821041748
 O,0,2.5924228193,3.4430854556,0.8173211085
 N,0,2.6388245002,2.9092599442,-1.8917298474
 H,0,2.6756094232,3.2726532755,-0.9218494854
 C,0,3.9012572892,2.7053854511,-2.5957251236
 H,0,3.6912916638,2.5425468798,-3.6547059345
 C,0,4.5513350135,1.4350603102,-2.0205801252
 C,0,4.7970759423,3.933656691,-2.4289401486
 H,0,4.3462136233,4.7650513439,-2.9838184304
 H,0,4.8462189882,4.2437750894,-1.3813239205
 O,0,5.4539791892,1.4751618076,-1.1670183698
 C,0,6.1907899874,3.669889557,-2.9905378766
 N,0,7.2150841939,4.3319196882,-2.3563994852
 H,0,8.1100949109,4.3274327219,-2.8291565271
 H,0,7.0216410013,5.1171149722,-1.7502053283
 O,0,6.3768191429,2.9086185444,-3.9251439488
 N,0,4.0032565487,0.2781286376,-2.4260576791
 H,0,3.2032666977,0.3288737495,-3.0508099276
 C,0,4.4088932773,-1.0032373343,-1.8672695713
 H,0,4.1568996491,-1.0179769219,-0.7970939124
 C,0,5.9359322109,-1.1474289052,-2.0313132898
 C,0,3.6515695962,-2.1530744776,-2.5684745892
 H,0,3.7699318063,-2.0290773314,-3.6508406227
 H,0,4.1553624204,-3.0893830221,-2.3028925014
 O,0,6.499359327,-0.9163390072,-3.0880242755
 C,0,2.1927383511,-2.22683355,-2.1641138352
 C,0,1.8225838864,-2.9327649726,-1.0088358817
 H,0,2.5851441738,-3.4592673887,-0.4382651771
 C,0,1.1825055819,-1.5785942777,-2.8839993218
 H,0,1.421342484,-1.0331941009,-3.7909840012
 C,0,0.5008021191,-2.9814294032,-0.5765124892
 H,0,0.2190872611,-3.5407862586,0.3096038347
 C,0,-0.1473985398,-1.6117205602,-2.4571568163
 H,0,-0.9212723367,-1.1248319225,-3.0465465212
 O,0,-1.7799253116,-2.3819647069,-0.8312043489
 H,0,-2.2430970802,-1.5385006376,-0.9927323136
 C,0,-0.4947544291,-2.3035634638,-1.2912847483
 N,0,6.5883950002,-1.5670818293,-0.9049689925
 H,0,6.0809489628,-1.6408699523,-0.0333152531
 C,0,8.0219748892,-1.3759865216,-0.7806019978
 H,0,8.4942746174,-1.6858972643,-1.7153766215
 C,0,8.5225902647,-2.2405001021,0.3611302493
 C,0,8.3849441707,0.1149131944,-0.5141106165
 H,0,9.4770829444,0.2089271655,-0.4757626943
 H,0,8.0238045901,0.68200827,-1.3781067884
 O,0,7.834821242,-2.6422123916,1.2768181675
 C,0,7.7376651268,0.6588419462,0.7654361991
 H,0,6.6557409244,0.5149819328,0.6995244503
 H,0,8.0885726283,0.1028148919,1.6456727039
 C,0,7.9981834023,2.1545559005,0.9844509992
 H,0,9.0604727894,2.3508755995,1.1638623954
 H,0,7.7125321144,2.7370896029,0.1036792533
 N,0,7.257676677,2.6697750055,2.1479105067
 H,0,7.5750495208,2.3281783219,3.0458669377
 N,0,5.3635598038,3.2933636481,0.9351468642
 H,0,4.3708481161,3.582507973,0.9679349721
 H,0,5.5999823571,2.7213548456,0.116195944
 N,0,5.291593471,3.3569565823,3.2315154778
 H,0,4.2666860589,3.1599846257,3.180555529
 H,0,5.7438052597,3.1961023906,4.1206307556
 C,0,5.9677604684,3.076807437,2.1019207775
 O,0,9.8523498117,-2.4475254544,0.2814691435
 H,0,10.1081338603,-2.9661810464,1.0680198929
 Recover connectivity data from disk.
                           ----------------------------
                           !    Current Parameters    !
                           ! (Angstroms and Degrees)  !
 --------------------------                            --------------------------
 ! Name  Definition              Value                                          !
 --------------------------------------------------------------------------------
 ! R1    R(1,2)                  1.0226                                         !
 ! R2    R(1,3)                  1.0699                                         !
 ! R3    R(1,4)                  1.023                                          !
 ! R4    R(1,5)                  1.5166                                         !
 ! R5    R(5,6)                  1.0927                                         !
 ! R6    R(5,7)                  1.5514                                         !
 ! R7    R(5,8)                  1.5464                                         !
 ! R8    R(7,10)                 1.2432                                         !
 ! R9    R(7,19)                 1.3228                                         !
 ! R10   R(8,9)                  1.0976                                         !
 ! R11   R(8,11)                 1.5357                                         !
 ! R12   R(8,15)                 1.5374                                         !
 ! R13   R(11,12)                1.0991                                         !
 ! R14   R(11,13)                1.0938                                         !
 ! R15   R(11,14)                1.0956                                         !
 ! R16   R(15,16)                1.0987                                         !
 ! R17   R(15,17)                1.0938                                         !
 ! R18   R(15,18)                1.0933                                         !
 ! R19   R(19,20)                1.023                                          !
 ! R20   R(19,21)                1.4666                                         !
 ! R21   R(21,22)                1.0944                                         !
 ! R22   R(21,23)                1.546                                          !
 ! R23   R(21,24)                1.5486                                         !
 ! R24   R(23,26)                1.2385                                         !
 ! R25   R(23,38)                1.3394                                         !
 ! R26   R(24,25)                1.0989                                         !
 ! R27   R(24,27)                1.5432                                         !
 ! R28   R(24,30)                1.5331                                         !
 ! R29   R(27,28)                1.0949                                         !
 ! R30   R(27,29)                1.0975                                         !
 ! R31   R(27,34)                1.5355                                         !
 ! R32   R(30,31)                1.0963                                         !
 ! R33   R(30,32)                1.0962                                         !
 ! R34   R(30,33)                1.0946                                         !
 ! R35   R(34,35)                1.0939                                         !
 ! R36   R(34,36)                1.0975                                         !
 ! R37   R(34,37)                1.0968                                         !
 ! R38   R(38,39)                1.0134                                         !
 ! R39   R(38,40)                1.4555                                         !
 ! R40   R(40,41)                1.0965                                         !
 ! R41   R(40,42)                1.5416                                         !
 ! R42   R(40,43)                1.5673                                         !
 ! R43   R(42,46)                1.2376                                         !
 ! R44   R(42,58)                1.3479                                         !
 ! R45   R(43,44)                1.0934                                         !
 ! R46   R(43,45)                1.0958                                         !
 ! R47   R(43,47)                1.5135                                         !
 ! R48   R(47,48)                1.4034                                         !
 ! R49   R(47,50)                1.4003                                         !
 ! R50   R(48,49)                1.088                                          !
 ! R51   R(48,52)                1.3958                                         !
 ! R52   R(50,51)                1.086                                          !
 ! R53   R(50,54)                1.3979                                         !
 ! R54   R(52,53)                1.0882                                         !
 ! R55   R(52,56)                1.3974                                         !
 ! R56   R(54,55)                1.0859                                         !
 ! R57   R(54,56)                1.3968                                         !
 ! R58   R(56,57)                1.085                                          !
 ! R59   R(58,59)                1.0116                                         !
 ! R60   R(58,60)                1.4744                                         !
 ! R61   R(60,61)                1.0924                                         !
 ! R62   R(60,62)                1.5438                                         !
 ! R63   R(60,63)                1.5271                                         !
 ! R64   R(62,66)                1.2308                                         !
 ! R65   R(62,77)                1.347                                          !
 ! R66   R(63,64)                1.0978                                         !
 ! R67   R(63,65)                1.0984                                         !
 ! R68   R(63,67)                1.5429                                         !
 ! R69   R(67,68)                1.0979                                         !
 ! R70   R(67,69)                1.5372                                         !
 ! R71   R(67,73)                1.5347                                         !
 ! R72   R(69,70)                1.0983                                         !
 ! R73   R(69,71)                1.0963                                         !
 ! R74   R(69,72)                1.0953                                         !
 ! R75   R(73,74)                1.0978                                         !
 ! R76   R(73,75)                1.0954                                         !
 ! R77   R(73,76)                1.0964                                         !
 ! R78   R(77,78)                1.0102                                         !
 ! R79   R(77,79)                1.4503                                         !
 ! R80   R(79,80)                1.0905                                         !
 ! R81   R(79,81)                1.5326                                         !
 ! R82   R(79,82)                1.5542                                         !
 ! R83   R(81,85)                1.2361                                         !
 ! R84   R(81,92)                1.3517                                         !
 ! R85   R(82,83)                1.0959                                         !
 ! R86   R(82,84)                1.0941                                         !
 ! R87   R(82,86)                1.5371                                         !
 ! R88   R(86,87)                1.0938                                         !
 ! R89   R(86,88)                1.0982                                         !
 ! R90   R(86,89)                1.5361                                         !
 ! R91   R(89,90)                1.256                                          !
 ! R92   R(89,91)                1.2807                                         !
 ! R93   R(92,93)                1.0364                                         !
 ! R94   R(92,94)                1.4598                                         !
 ! R95   R(94,95)                1.0918                                         !
 ! R96   R(94,96)                1.5385                                         !
 ! R97   R(94,97)                1.5294                                         !
 ! R98   R(96,100)               1.243                                          !
 ! R99   R(96,106)               1.3429                                         !
 ! R100  R(97,98)                1.0965                                         !
 ! R101  R(97,99)                1.0937                                         !
 ! R102  R(97,101)               1.5256                                         !
 ! R103  R(101,102)              1.3746                                         !
 ! R104  R(101,105)              1.2197                                         !
 ! R105  R(102,103)              1.0122                                         !
 ! R106  R(102,104)              1.0107                                         !
 ! R107  R(106,107)              1.0163                                         !
 ! R108  R(106,108)              1.4556                                         !
 ! R109  R(108,109)              1.0995                                         !
 ! R110  R(108,110)              1.5426                                         !
 ! R111  R(108,111)              1.5451                                         !
 ! R112  R(110,114)              1.2196                                         !
 ! R113  R(110,127)              1.3677                                         !
 ! R114  R(111,112)              1.0959                                         !
 ! R115  R(111,113)              1.0959                                         !
 ! R116  R(111,115)              1.5156                                         !
 ! R117  R(115,116)              1.4036                                         !
 ! R118  R(115,118)              1.3996                                         !
 ! R119  R(116,117)              1.0882                                         !
 ! R120  R(116,120)              1.3915                                         !
 ! R121  R(118,119)              1.085                                          !
 ! R122  R(118,122)              1.3971                                         !
 ! R123  R(120,121)              1.0851                                         !
 ! R124  R(120,126)              1.4005                                         !
 ! R125  R(122,123)              1.0878                                         !
 ! R126  R(122,126)              1.3995                                         !
 ! R127  R(124,125)              0.9757                                         !
 ! R128  R(124,126)              1.3673                                         !
 ! R129  R(127,128)              1.0113                                         !
 ! R130  R(127,129)              1.4516                                         !
 ! R131  R(129,130)              1.0922                                         !
 ! R132  R(129,131)              1.5171                                         !
 ! R133  R(129,132)              1.5574                                         !
 ! R134  R(131,135)              1.2136                                         !
 ! R135  R(131,151)              1.3481                                         !
 ! R136  R(132,133)              1.0968                                         !
 ! R137  R(132,134)              1.0948                                         !
 ! R138  R(132,136)              1.5336                                         !
 ! R139  R(136,137)              1.0934                                         !
 ! R140  R(136,138)              1.0987                                         !
 ! R141  R(136,139)              1.5339                                         !
 ! R142  R(139,140)              1.0951                                         !
 ! R143  R(139,141)              1.0939                                         !
 ! R144  R(139,142)              1.4722                                         !
 ! R145  R(142,143)              1.0118                                         !
 ! R146  R(142,150)              1.3534                                         !
 ! R147  R(144,145)              1.0345                                         !
 ! R148  R(144,146)              1.0265                                         !
 ! R149  R(144,150)              1.3317                                         !
 ! R150  R(147,148)              1.0449                                         !
 ! R151  R(147,149)              1.0104                                         !
 ! R152  R(147,150)              1.346                                          !
 ! R153  R(151,152)              0.9763                                         !
 ! A1    A(2,1,3)              109.5083                                         !
 ! A2    A(2,1,4)              108.6709                                         !
 ! A3    A(2,1,5)              113.3373                                         !
 ! A4    A(3,1,4)              110.9995                                         !
 ! A5    A(3,1,5)              100.9749                                         !
 ! A6    A(4,1,5)              113.1508                                         !
 ! A7    A(1,5,6)              108.0223                                         !
 ! A8    A(1,5,7)              102.3607                                         !
 ! A9    A(1,5,8)              111.8685                                         !
 ! A10   A(6,5,7)              111.4427                                         !
 ! A11   A(6,5,8)              110.4758                                         !
 ! A12   A(7,5,8)              112.355                                          !
 ! A13   A(5,7,10)             117.5405                                         !
 ! A14   A(5,7,19)             116.1429                                         !
 ! A15   A(10,7,19)            126.2683                                         !
 ! A16   A(5,8,9)              104.6804                                         !
 ! A17   A(5,8,11)             111.402                                          !
 ! A18   A(5,8,15)             112.4568                                         !
 ! A19   A(9,8,11)             107.9186                                         !
 ! A20   A(9,8,15)             107.7703                                         !
 ! A21   A(11,8,15)            112.1623                                         !
 ! A22   A(8,11,12)            112.306                                          !
 ! A23   A(8,11,13)            109.9784                                         !
 ! A24   A(8,11,14)            111.8692                                         !
 ! A25   A(12,11,13)           106.4818                                         !
 ! A26   A(12,11,14)           108.0642                                         !
 ! A27   A(13,11,14)           107.9004                                         !
 ! A28   A(8,15,16)            112.3753                                         !
 ! A29   A(8,15,17)            112.352                                          !
 ! A30   A(8,15,18)            109.6697                                         !
 ! A31   A(16,15,17)           107.8811                                         !
 ! A32   A(16,15,18)           106.6024                                         !
 ! A33   A(17,15,18)           107.6923                                         !
 ! A34   A(7,19,20)            121.403                                          !
 ! A35   A(7,19,21)            123.5267                                         !
 ! A36   A(20,19,21)           111.5846                                         !
 ! A37   A(19,21,22)           107.1236                                         !
 ! A38   A(19,21,23)           103.4313                                         !
 ! A39   A(19,21,24)           112.03                                           !
 ! A40   A(22,21,23)           106.9427                                         !
 ! A41   A(22,21,24)           108.874                                          !
 ! A42   A(23,21,24)           117.8212                                         !
 ! A43   A(21,23,26)           120.0684                                         !
 ! A44   A(21,23,38)           116.1822                                         !
 ! A45   A(26,23,38)           123.575                                          !
 ! A46   A(21,24,25)           103.8784                                         !
 ! A47   A(21,24,27)           113.5404                                         !
 ! A48   A(21,24,30)           111.6529                                         !
 ! A49   A(25,24,27)           106.8573                                         !
 ! A50   A(25,24,30)           108.979                                          !
 ! A51   A(27,24,30)           111.449                                          !
 ! A52   A(24,27,28)           111.0179                                         !
 ! A53   A(24,27,29)           106.3314                                         !
 ! A54   A(24,27,34)           115.6441                                         !
 ! A55   A(28,27,29)           104.1421                                         !
 ! A56   A(28,27,34)           110.1843                                         !
 ! A57   A(29,27,34)           108.7885                                         !
 ! A58   A(24,30,31)           110.901                                          !
 ! A59   A(24,30,32)           111.7462                                         !
 ! A60   A(24,30,33)           110.498                                          !
 ! A61   A(31,30,32)           108.1026                                         !
 ! A62   A(31,30,33)           107.5496                                         !
 ! A63   A(32,30,33)           107.8867                                         !
 ! A64   A(27,34,35)           110.0597                                         !
 ! A65   A(27,34,36)           113.157                                          !
 ! A66   A(27,34,37)           111.4686                                         !
 ! A67   A(35,34,36)           106.5356                                         !
 ! A68   A(35,34,37)           108.1951                                         !
 ! A69   A(36,34,37)           107.176                                          !
 ! A70   A(23,38,39)           120.6339                                         !
 ! A71   A(23,38,40)           123.0149                                         !
 ! A72   A(39,38,40)           114.517                                          !
 ! A73   A(38,40,41)           109.1759                                         !
 ! A74   A(38,40,42)           105.7577                                         !
 ! A75   A(38,40,43)           111.1167                                         !
 ! A76   A(41,40,42)           108.2149                                         !
 ! A77   A(41,40,43)           108.0176                                         !
 ! A78   A(42,40,43)           114.4357                                         !
 ! A79   A(40,42,46)           120.4523                                         !
 ! A80   A(40,42,58)           117.1434                                         !
 ! A81   A(46,42,58)           122.4027                                         !
 ! A82   A(40,43,44)           106.0959                                         !
 ! A83   A(40,43,45)           109.2967                                         !
 ! A84   A(40,43,47)           113.2042                                         !
 ! A85   A(44,43,45)           106.6702                                         !
 ! A86   A(44,43,47)           110.3267                                         !
 ! A87   A(45,43,47)           110.9364                                         !
 ! A88   A(43,47,48)           119.9292                                         !
 ! A89   A(43,47,50)           121.4455                                         !
 ! A90   A(48,47,50)           118.5326                                         !
 ! A91   A(47,48,49)           118.9685                                         !
 ! A92   A(47,48,52)           120.9283                                         !
 ! A93   A(49,48,52)           120.1012                                         !
 ! A94   A(47,50,51)           120.3672                                         !
 ! A95   A(47,50,54)           120.5162                                         !
 ! A96   A(51,50,54)           119.1151                                         !
 ! A97   A(48,52,53)           119.9826                                         !
 ! A98   A(48,52,56)           120.093                                          !
 ! A99   A(53,52,56)           119.9236                                         !
 ! A100  A(50,54,55)           120.0556                                         !
 ! A101  A(50,54,56)           120.5033                                         !
 ! A102  A(55,54,56)           119.4205                                         !
 ! A103  A(52,56,54)           119.3038                                         !
 ! A104  A(52,56,57)           121.1125                                         !
 ! A105  A(54,56,57)           119.5713                                         !
 ! A106  A(42,58,59)           118.915                                          !
 ! A107  A(42,58,60)           121.0477                                         !
 ! A108  A(59,58,60)           116.2846                                         !
 ! A109  A(58,60,61)           106.5848                                         !
 ! A110  A(58,60,62)           106.1795                                         !
 ! A111  A(58,60,63)           110.6798                                         !
 ! A112  A(61,60,62)           110.9483                                         !
 ! A113  A(61,60,63)           110.4205                                         !
 ! A114  A(62,60,63)           111.8221                                         !
 ! A115  A(60,62,66)           120.4735                                         !
 ! A116  A(60,62,77)           114.1667                                         !
 ! A117  A(66,62,77)           125.1904                                         !
 ! A118  A(60,63,64)           108.3821                                         !
 ! A119  A(60,63,65)           108.3852                                         !
 ! A120  A(60,63,67)           113.7514                                         !
 ! A121  A(64,63,65)           107.8233                                         !
 ! A122  A(64,63,67)           108.3683                                         !
 ! A123  A(65,63,67)           109.9614                                         !
 ! A124  A(63,67,68)           107.1258                                         !
 ! A125  A(63,67,69)           112.7787                                         !
 ! A126  A(63,67,73)           109.5104                                         !
 ! A127  A(68,67,69)           108.0987                                         !
 ! A128  A(68,67,73)           108.0753                                         !
 ! A129  A(69,67,73)           111.0581                                         !
 ! A130  A(67,69,70)           111.1842                                         !
 ! A131  A(67,69,71)           112.0765                                         !
 ! A132  A(67,69,72)           110.4457                                         !
 ! A133  A(70,69,71)           108.5253                                         !
 ! A134  A(70,69,72)           107.5786                                         !
 ! A135  A(71,69,72)           106.8285                                         !
 ! A136  A(67,73,74)           110.9181                                         !
 ! A137  A(67,73,75)           110.8967                                         !
 ! A138  A(67,73,76)           111.4224                                         !
 ! A139  A(74,73,75)           107.7052                                         !
 ! A140  A(74,73,76)           107.8829                                         !
 ! A141  A(75,73,76)           107.8602                                         !
 ! A142  A(62,77,78)           118.6702                                         !
 ! A143  A(62,77,79)           125.0841                                         !
 ! A144  A(78,77,79)           115.6725                                         !
 ! A145  A(77,79,80)           107.7651                                         !
 ! A146  A(77,79,81)           108.8497                                         !
 ! A147  A(77,79,82)           107.4971                                         !
 ! A148  A(80,79,81)           110.1091                                         !
 ! A149  A(80,79,82)           110.5752                                         !
 ! A150  A(81,79,82)           111.9058                                         !
 ! A151  A(79,81,85)           121.6949                                         !
 ! A152  A(79,81,92)           113.8136                                         !
 ! A153  A(85,81,92)           124.4324                                         !
 ! A154  A(79,82,83)           107.2865                                         !
 ! A155  A(79,82,84)           106.287                                          !
 ! A156  A(79,82,86)           119.3245                                         !
 ! A157  A(83,82,84)           106.7188                                         !
 ! A158  A(83,82,86)           106.9315                                         !
 ! A159  A(84,82,86)           109.6561                                         !
 ! A160  A(82,86,87)           107.8949                                         !
 ! A161  A(82,86,88)           109.2095                                         !
 ! A162  A(82,86,89)           118.6588                                         !
 ! A163  A(87,86,88)           106.6778                                         !
 ! A164  A(87,86,89)           107.8147                                         !
 ! A165  A(88,86,89)           105.9981                                         !
 ! A166  A(86,89,90)           117.6322                                         !
 ! A167  A(86,89,91)           117.6463                                         !
 ! A168  A(90,89,91)           124.4855                                         !
 ! A169  A(81,92,93)           115.0342                                         !
 ! A170  A(81,92,94)           121.0674                                         !
 ! A171  A(93,92,94)           118.0083                                         !
 ! A172  A(92,94,95)           108.8011                                         !
 ! A173  A(92,94,96)           107.4842                                         !
 ! A174  A(92,94,97)           109.9868                                         !
 ! A175  A(95,94,96)           108.705                                          !
 ! A176  A(95,94,97)           109.7675                                         !
 ! A177  A(96,94,97)           112.0152                                         !
 ! A178  A(94,96,100)          122.474                                          !
 ! A179  A(94,96,106)          115.2151                                         !
 ! A180  A(100,96,106)         122.1099                                         !
 ! A181  A(94,97,98)           108.2344                                         !
 ! A182  A(94,97,99)           111.0093                                         !
 ! A183  A(94,97,101)          110.8616                                         !
 ! A184  A(98,97,99)           106.7506                                         !
 ! A185  A(98,97,101)          108.6896                                         !
 ! A186  A(99,97,101)          111.137                                          !
 ! A187  A(97,101,102)         115.3183                                         !
 ! A188  A(97,101,105)         121.9603                                         !
 ! A189  A(102,101,105)        122.7136                                         !
 ! A190  A(101,102,103)        116.1852                                         !
 ! A191  A(101,102,104)        120.547                                          !
 ! A192  A(103,102,104)        116.9253                                         !
 ! A193  A(96,106,107)         117.6371                                         !
 ! A194  A(96,106,108)         121.9225                                         !
 ! A195  A(107,106,108)        119.9545                                         !
 ! A196  A(106,108,109)        108.7583                                         !
 ! A197  A(106,108,110)        108.5018                                         !
 ! A198  A(106,108,111)        110.1392                                         !
 ! A199  A(109,108,110)        109.2155                                         !
 ! A200  A(109,108,111)        108.6264                                         !
 ! A201  A(110,108,111)        111.5543                                         !
 ! A202  A(108,110,114)        122.1231                                         !
 ! A203  A(108,110,127)        114.4163                                         !
 ! A204  A(114,110,127)        123.4563                                         !
 ! A205  A(108,111,112)        108.1251                                         !
 ! A206  A(108,111,113)        107.4878                                         !
 ! A207  A(108,111,115)        112.7626                                         !
 ! A208  A(112,111,113)        106.6412                                         !
 ! A209  A(112,111,115)        111.8993                                         !
 ! A210  A(113,111,115)        109.6481                                         !
 ! A211  A(111,115,116)        119.862                                          !
 ! A212  A(111,115,118)        122.3416                                         !
 ! A213  A(116,115,118)        117.7709                                         !
 ! A214  A(115,116,117)        119.3467                                         !
 ! A215  A(115,116,120)        121.5883                                         !
 ! A216  A(117,116,120)        119.0644                                         !
 ! A217  A(115,118,119)        120.2581                                         !
 ! A218  A(115,118,122)        121.2607                                         !
 ! A219  A(119,118,122)        118.4809                                         !
 ! A220  A(116,120,121)        121.2211                                         !
 ! A221  A(116,120,126)        119.9813                                         !
 ! A222  A(121,120,126)        118.7974                                         !
 ! A223  A(118,122,123)        120.0686                                         !
 ! A224  A(118,122,126)        120.1656                                         !
 ! A225  A(123,122,126)        119.74                                           !
 ! A226  A(125,124,126)        109.9323                                         !
 ! A227  A(120,126,122)        119.209                                          !
 ! A228  A(120,126,124)        117.9473                                         !
 ! A229  A(122,126,124)        122.8173                                         !
 ! A230  A(110,127,128)        119.5278                                         !
 ! A231  A(110,127,129)        120.0868                                         !
 ! A232  A(128,127,129)        115.5506                                         !
 ! A233  A(127,129,130)        108.4441                                         !
 ! A234  A(127,129,131)        108.3819                                         !
 ! A235  A(127,129,132)        111.7679                                         !
 ! A236  A(130,129,131)        109.8596                                         !
 ! A237  A(130,129,132)        108.4994                                         !
 ! A238  A(131,129,132)        109.8666                                         !
 ! A239  A(129,131,135)        124.7116                                         !
 ! A240  A(129,131,151)        111.6247                                         !
 ! A241  A(135,131,151)        123.5549                                         !
 ! A242  A(129,132,133)        108.6685                                         !
 ! A243  A(129,132,134)        106.4967                                         !
 ! A244  A(129,132,136)        112.5764                                         !
 ! A245  A(133,132,134)        108.159                                          !
 ! A246  A(133,132,136)        111.1415                                         !
 ! A247  A(134,132,136)        109.6033                                         !
 ! A248  A(132,136,137)        108.7026                                         !
 ! A249  A(132,136,138)        110.7409                                         !
 ! A250  A(132,136,139)        113.1579                                         !
 ! A251  A(137,136,138)        107.3216                                         !
 ! A252  A(137,136,139)        107.7546                                         !
 ! A253  A(138,136,139)        108.9556                                         !
 ! A254  A(136,139,140)        111.2814                                         !
 ! A255  A(136,139,141)        111.0961                                         !
 ! A256  A(136,139,142)        111.6322                                         !
 ! A257  A(140,139,141)        106.8429                                         !
 ! A258  A(140,139,142)        107.2003                                         !
 ! A259  A(141,139,142)        108.5772                                         !
 ! A260  A(139,142,143)        115.178                                          !
 ! A261  A(139,142,150)        123.9031                                         !
 ! A262  A(143,142,150)        115.5091                                         !
 ! A263  A(145,144,146)        113.7061                                         !
 ! A264  A(145,144,150)        116.9416                                         !
 ! A265  A(146,144,150)        120.2576                                         !
 ! A266  A(148,147,149)        116.8656                                         !
 ! A267  A(148,147,150)        114.367                                          !
 ! A268  A(149,147,150)        118.7199                                         !
 ! A269  A(142,150,144)        120.7386                                         !
 ! A270  A(142,150,147)        120.8556                                         !
 ! A271  A(144,150,147)        118.2645                                         !
 ! A272  A(131,151,152)        107.0022                                         !
 ! D1    D(2,1,5,6)             10.4017                                         !
 ! D2    D(2,1,5,7)           -107.299                                          !
 ! D3    D(2,1,5,8)            132.2024                                         !
 ! D4    D(3,1,5,6)            127.4114                                         !
 ! D5    D(3,1,5,7)              9.7106                                         !
 ! D6    D(3,1,5,8)           -110.7879                                         !
 ! D7    D(4,1,5,6)           -113.908                                          !
 ! D8    D(4,1,5,7)            128.3912                                         !
 ! D9    D(4,1,5,8)              7.8926                                         !
 ! D10   D(1,5,7,10)           -10.3716                                         !
 ! D11   D(1,5,7,19)           171.9981                                         !
 ! D12   D(6,5,7,10)          -125.6079                                         !
 ! D13   D(6,5,7,19)            56.7618                                         !
 ! D14   D(8,5,7,10)           109.7891                                         !
 ! D15   D(8,5,7,19)           -67.8412                                         !
 ! D16   D(1,5,8,9)            176.7343                                         !
 ! D17   D(1,5,8,11)           -66.8881                                         !
 ! D18   D(1,5,8,15)            60.0116                                         !
 ! D19   D(6,5,8,9)            -62.8859                                         !
 ! D20   D(6,5,8,11)            53.4916                                         !
 ! D21   D(6,5,8,15)          -179.6087                                         !
 ! D22   D(7,5,8,9)             62.2486                                         !
 ! D23   D(7,5,8,11)           178.6261                                         !
 ! D24   D(7,5,8,15)           -54.4742                                         !
 ! D25   D(5,7,19,20)            7.8356                                         !
 ! D26   D(5,7,19,21)          164.9818                                         !
 ! D27   D(10,7,19,20)        -169.5581                                         !
 ! D28   D(10,7,19,21)         -12.412                                          !
 ! D29   D(5,8,11,12)           67.5799                                         !
 ! D30   D(5,8,11,13)         -174.0322                                         !
 ! D31   D(5,8,11,14)          -54.1433                                         !
 ! D32   D(9,8,11,12)         -178.0389                                         !
 ! D33   D(9,8,11,13)          -59.6511                                         !
 ! D34   D(9,8,11,14)           60.2379                                         !
 ! D35   D(15,8,11,12)         -59.4802                                         !
 ! D36   D(15,8,11,13)          58.9076                                         !
 ! D37   D(15,8,11,14)         178.7966                                         !
 ! D38   D(5,8,15,16)          -66.8021                                         !
 ! D39   D(5,8,15,17)           55.0879                                         !
 ! D40   D(5,8,15,18)          174.8196                                         !
 ! D41   D(9,8,15,16)          178.3362                                         !
 ! D42   D(9,8,15,17)          -59.7738                                         !
 ! D43   D(9,8,15,18)           59.9578                                         !
 ! D44   D(11,8,15,16)          59.6899                                         !
 ! D45   D(11,8,15,17)        -178.4201                                         !
 ! D46   D(11,8,15,18)         -58.6884                                         !
 ! D47   D(7,19,21,22)         -33.9851                                         !
 ! D48   D(7,19,21,23)        -146.7582                                         !
 ! D49   D(7,19,21,24)          85.3435                                         !
 ! D50   D(20,19,21,22)        125.13                                           !
 ! D51   D(20,19,21,23)         12.3569                                         !
 ! D52   D(20,19,21,24)       -115.5415                                         !
 ! D53   D(19,21,23,26)         -1.8174                                         !
 ! D54   D(19,21,23,38)        173.5522                                         !
 ! D55   D(22,21,23,26)       -114.722                                          !
 ! D56   D(22,21,23,38)         60.6475                                         !
 ! D57   D(24,21,23,26)        122.3814                                         !
 ! D58   D(24,21,23,38)        -62.2491                                         !
 ! D59   D(19,21,24,25)        -49.2214                                         !
 ! D60   D(19,21,24,27)       -164.9089                                         !
 ! D61   D(19,21,24,30)         68.0704                                         !
 ! D62   D(22,21,24,25)         69.0732                                         !
 ! D63   D(22,21,24,27)        -46.6144                                         !
 ! D64   D(22,21,24,30)       -173.635                                          !
 ! D65   D(23,21,24,25)       -169.0136                                         !
 ! D66   D(23,21,24,27)         75.2989                                         !
 ! D67   D(23,21,24,30)        -51.7217                                         !
 ! D68   D(21,23,38,39)          4.147                                          !
 ! D69   D(21,23,38,40)       -159.579                                          !
 ! D70   D(26,23,38,39)        179.3368                                         !
 ! D71   D(26,23,38,40)         15.6108                                         !
 ! D72   D(21,24,27,28)        -77.7713                                         !
 ! D73   D(21,24,27,29)        169.5645                                         !
 ! D74   D(21,24,27,34)         48.7037                                         !
 ! D75   D(25,24,27,28)        168.3132                                         !
 ! D76   D(25,24,27,29)         55.649                                          !
 ! D77   D(25,24,27,34)        -65.2118                                         !
 ! D78   D(30,24,27,28)         49.3558                                         !
 ! D79   D(30,24,27,29)        -63.3084                                         !
 ! D80   D(30,24,27,34)        175.8309                                         !
 ! D81   D(21,24,30,31)         66.311                                          !
 ! D82   D(21,24,30,32)        -54.3806                                         !
 ! D83   D(21,24,30,33)       -174.5222                                         !
 ! D84   D(25,24,30,31)       -179.5192                                         !
 ! D85   D(25,24,30,32)         59.7892                                         !
 ! D86   D(25,24,30,33)        -60.3524                                         !
 ! D87   D(27,24,30,31)        -61.835                                          !
 ! D88   D(27,24,30,32)        177.4734                                         !
 ! D89   D(27,24,30,33)         57.3318                                         !
 ! D90   D(24,27,34,35)        171.1387                                         !
 ! D91   D(24,27,34,36)        -69.8015                                         !
 ! D92   D(24,27,34,37)         51.0852                                         !
 ! D93   D(28,27,34,35)        -61.9657                                         !
 ! D94   D(28,27,34,36)         57.0942                                         !
 ! D95   D(28,27,34,37)        177.9808                                         !
 ! D96   D(29,27,34,35)         51.6144                                         !
 ! D97   D(29,27,34,36)        170.6743                                         !
 ! D98   D(29,27,34,37)        -68.4391                                         !
 ! D99   D(23,38,40,41)        -59.7001                                         !
 ! D100  D(23,38,40,42)       -175.9316                                         !
 ! D101  D(23,38,40,43)         59.3361                                         !
 ! D102  D(39,38,40,41)        135.6679                                         !
 ! D103  D(39,38,40,42)         19.4364                                         !
 ! D104  D(39,38,40,43)       -105.2959                                         !
 ! D105  D(38,40,42,46)          3.192                                          !
 ! D106  D(38,40,42,58)       -177.2462                                         !
 ! D107  D(41,40,42,46)       -113.6901                                         !
 ! D108  D(41,40,42,58)         65.8717                                         !
 ! D109  D(43,40,42,46)        125.8334                                         !
 ! D110  D(43,40,42,58)        -54.6048                                         !
 ! D111  D(38,40,43,44)        -73.8968                                         !
 ! D112  D(38,40,43,45)        171.4344                                         !
 ! D113  D(38,40,43,47)         47.2389                                         !
 ! D114  D(41,40,43,44)         45.8315                                         !
 ! D115  D(41,40,43,45)        -68.8372                                         !
 ! D116  D(41,40,43,47)        166.9672                                         !
 ! D117  D(42,40,43,44)        166.4175                                         !
 ! D118  D(42,40,43,45)         51.7487                                         !
 ! D119  D(42,40,43,47)        -72.4468                                         !
 ! D120  D(40,42,58,59)         10.5726                                         !
 ! D121  D(40,42,58,60)        167.9434                                         !
 ! D122  D(46,42,58,59)       -169.8748                                         !
 ! D123  D(46,42,58,60)        -12.504                                          !
 ! D124  D(40,43,47,48)        -89.2627                                         !
 ! D125  D(40,43,47,50)         87.1862                                         !
 ! D126  D(44,43,47,48)         29.4542                                         !
 ! D127  D(44,43,47,50)       -154.097                                          !
 ! D128  D(45,43,47,48)        147.4407                                         !
 ! D129  D(45,43,47,50)        -36.1104                                         !
 ! D130  D(43,47,48,49)         -6.5171                                         !
 ! D131  D(43,47,48,52)        172.9792                                         !
 ! D132  D(50,47,48,49)        176.9312                                         !
 ! D133  D(50,47,48,52)         -3.5725                                         !
 ! D134  D(43,47,50,51)          5.6874                                         !
 ! D135  D(43,47,50,54)       -173.8643                                         !
 ! D136  D(48,47,50,51)       -177.8155                                         !
 ! D137  D(48,47,50,54)          2.6328                                         !
 ! D138  D(47,48,52,53)       -178.2903                                         !
 ! D139  D(47,48,52,56)          1.3699                                         !
 ! D140  D(49,48,52,53)          1.2003                                         !
 ! D141  D(49,48,52,56)       -179.1396                                         !
 ! D142  D(47,50,54,55)        178.8368                                         !
 ! D143  D(47,50,54,56)          0.4996                                         !
 ! D144  D(51,50,54,55)         -0.7205                                         !
 ! D145  D(51,50,54,56)       -179.0577                                         !
 ! D146  D(48,52,56,54)          1.8107                                         !
 ! D147  D(48,52,56,57)       -176.9019                                         !
 ! D148  D(53,52,56,54)       -178.529                                          !
 ! D149  D(53,52,56,57)          2.7584                                         !
 ! D150  D(50,54,56,52)         -2.742                                          !
 ! D151  D(50,54,56,57)        175.9907                                         !
 ! D152  D(55,54,56,52)        178.9102                                         !
 ! D153  D(55,54,56,57)         -2.3571                                         !
 ! D154  D(42,58,60,61)         48.8041                                         !
 ! D155  D(42,58,60,62)        -69.5447                                         !
 ! D156  D(42,58,60,63)        168.9062                                         !
 ! D157  D(59,58,60,61)       -153.2597                                         !
 ! D158  D(59,58,60,62)         88.3915                                         !
 ! D159  D(59,58,60,63)        -33.1576                                         !
 ! D160  D(58,60,62,66)        -74.2194                                         !
 ! D161  D(58,60,62,77)        101.2913                                         !
 ! D162  D(61,60,62,66)        170.3566                                         !
 ! D163  D(61,60,62,77)        -14.1327                                         !
 ! D164  D(63,60,62,66)         46.5956                                         !
 ! D165  D(63,60,62,77)       -137.8937                                         !
 ! D166  D(58,60,63,64)         54.4999                                         !
 ! D167  D(58,60,63,65)        -62.2655                                         !
 ! D168  D(58,60,63,67)        175.0988                                         !
 ! D169  D(61,60,63,64)        172.2801                                         !
 ! D170  D(61,60,63,65)         55.5147                                         !
 ! D171  D(61,60,63,67)        -67.121                                          !
 ! D172  D(62,60,63,64)        -63.6624                                         !
 ! D173  D(62,60,63,65)        179.5722                                         !
 ! D174  D(62,60,63,67)         56.9365                                         !
 ! D175  D(60,62,77,78)          2.9737                                         !
 ! D176  D(60,62,77,79)       -167.9483                                         !
 ! D177  D(66,62,77,78)        178.2387                                         !
 ! D178  D(66,62,77,79)          7.3167                                         !
 ! D179  D(60,63,67,68)        -67.4051                                         !
 ! D180  D(60,63,67,69)         51.4083                                         !
 ! D181  D(60,63,67,73)        175.6188                                         !
 ! D182  D(64,63,67,68)         53.2015                                         !
 ! D183  D(64,63,67,69)        172.0149                                         !
 ! D184  D(64,63,67,73)        -63.7745                                         !
 ! D185  D(65,63,67,68)        170.8295                                         !
 ! D186  D(65,63,67,69)        -70.3571                                         !
 ! D187  D(65,63,67,73)         53.8535                                         !
 ! D188  D(63,67,69,70)         54.0347                                         !
 ! D189  D(63,67,69,71)        -67.6265                                         !
 ! D190  D(63,67,69,72)        173.386                                          !
 ! D191  D(68,67,69,70)        172.28                                           !
 ! D192  D(68,67,69,71)         50.6188                                         !
 ! D193  D(68,67,69,72)        -68.3688                                         !
 ! D194  D(73,67,69,70)        -69.3208                                         !
 ! D195  D(73,67,69,71)        169.018                                          !
 ! D196  D(73,67,69,72)         50.0305                                         !
 ! D197  D(63,67,73,74)        -65.1489                                         !
 ! D198  D(63,67,73,75)        175.2187                                         !
 ! D199  D(63,67,73,76)         55.0565                                         !
 ! D200  D(68,67,73,74)        178.4746                                         !
 ! D201  D(68,67,73,75)         58.8422                                         !
 ! D202  D(68,67,73,76)        -61.32                                           !
 ! D203  D(69,67,73,74)         60.0612                                         !
 ! D204  D(69,67,73,75)        -59.5712                                         !
 ! D205  D(69,67,73,76)       -179.7334                                         !
 ! D206  D(62,77,79,80)          0.8291                                         !
 ! D207  D(62,77,79,81)       -118.5683                                         !
 ! D208  D(62,77,79,82)        120.0342                                         !
 ! D209  D(78,77,79,80)       -170.3355                                         !
 ! D210  D(78,77,79,81)         70.2671                                         !
 ! D211  D(78,77,79,82)        -51.1304                                         !
 ! D212  D(77,79,81,85)        -29.208                                          !
 ! D213  D(77,79,81,92)        153.4692                                         !
 ! D214  D(80,79,81,85)       -147.134                                          !
 ! D215  D(80,79,81,92)         35.5432                                         !
 ! D216  D(82,79,81,85)         89.4578                                         !
 ! D217  D(82,79,81,92)        -87.865                                          !
 ! D218  D(77,79,82,83)         51.8745                                         !
 ! D219  D(77,79,82,84)        -62.0045                                         !
 ! D220  D(77,79,82,86)        173.5191                                         !
 ! D221  D(80,79,82,83)        169.2649                                         !
 ! D222  D(80,79,82,84)         55.3858                                         !
 ! D223  D(80,79,82,86)        -69.0905                                         !
 ! D224  D(81,79,82,83)        -67.5902                                         !
 ! D225  D(81,79,82,84)        178.5308                                         !
 ! D226  D(81,79,82,86)         54.0544                                         !
 ! D227  D(79,81,92,93)         11.7204                                         !
 ! D228  D(79,81,92,94)        164.1512                                         !
 ! D229  D(85,81,92,93)       -165.5177                                         !
 ! D230  D(85,81,92,94)        -13.0869                                         !
 ! D231  D(79,82,86,87)       -178.954                                          !
 ! D232  D(79,82,86,88)        -63.3681                                         !
 ! D233  D(79,82,86,89)         58.1678                                         !
 ! D234  D(83,82,86,87)        -57.1327                                         !
 ! D235  D(83,82,86,88)         58.4532                                         !
 ! D236  D(83,82,86,89)        179.9891                                         !
 ! D237  D(84,82,86,87)         58.2113                                         !
 ! D238  D(84,82,86,88)        173.7972                                         !
 ! D239  D(84,82,86,89)        -64.6668                                         !
 ! D240  D(82,86,89,90)        129.555                                          !
 ! D241  D(82,86,89,91)        -55.7727                                         !
 ! D242  D(87,86,89,90)          6.6369                                         !
 ! D243  D(87,86,89,91)       -178.6908                                         !
 ! D244  D(88,86,89,90)       -107.2995                                         !
 ! D245  D(88,86,89,91)         67.3728                                         !
 ! D246  D(81,92,94,95)         41.0089                                         !
 ! D247  D(81,92,94,96)        -76.5345                                         !
 ! D248  D(81,92,94,97)        161.2731                                         !
 ! D249  D(93,92,94,95)       -167.3484                                         !
 ! D250  D(93,92,94,96)         75.1082                                         !
 ! D251  D(93,92,94,97)        -47.0842                                         !
 ! D252  D(92,94,96,100)       -99.3723                                         !
 ! D253  D(92,94,96,106)        75.5713                                         !
 ! D254  D(95,94,96,100)       143.0218                                         !
 ! D255  D(95,94,96,106)       -42.0345                                         !
 ! D256  D(97,94,96,100)        21.5522                                         !
 ! D257  D(97,94,96,106)      -163.5041                                         !
 ! D258  D(92,94,97,98)        -68.6889                                         !
 ! D259  D(92,94,97,99)         48.156                                          !
 ! D260  D(92,94,97,101)       172.1936                                         !
 ! D261  D(95,94,97,98)         50.9889                                         !
 ! D262  D(95,94,97,99)        167.8338                                         !
 ! D263  D(95,94,97,101)       -68.1286                                         !
 ! D264  D(96,94,97,98)        171.8455                                         !
 ! D265  D(96,94,97,99)        -71.3097                                         !
 ! D266  D(96,94,97,101)        52.7279                                         !
 ! D267  D(94,96,106,107)       -1.4352                                         !
 ! D268  D(94,96,106,108)     -173.428                                          !
 ! D269  D(100,96,106,107)     173.5288                                         !
 ! D270  D(100,96,106,108)       1.536                                          !
 ! D271  D(94,97,101,102)     -148.6381                                         !
 ! D272  D(94,97,101,105)       30.3709                                         !
 ! D273  D(98,97,101,102)       92.5187                                         !
 ! D274  D(98,97,101,105)      -88.4723                                         !
 ! D275  D(99,97,101,102)      -24.6735                                         !
 ! D276  D(99,97,101,105)      154.3355                                         !
 ! D277  D(97,101,102,103)    -167.444                                          !
 ! D278  D(97,101,102,104)     -16.2642                                         !
 ! D279  D(105,101,102,103)     13.5554                                         !
 ! D280  D(105,101,102,104)    164.7352                                         !
 ! D281  D(96,106,108,109)      63.4811                                         !
 ! D282  D(96,106,108,110)     -55.2157                                         !
 ! D283  D(96,106,108,111)    -177.5835                                         !
 ! D284  D(107,106,108,109)   -108.3304                                         !
 ! D285  D(107,106,108,110)    132.9728                                         !
 ! D286  D(107,106,108,111)     10.605                                          !
 ! D287  D(106,108,110,114)    -47.8065                                         !
 ! D288  D(106,108,110,127)    132.9228                                         !
 ! D289  D(109,108,110,114)   -166.2142                                         !
 ! D290  D(109,108,110,127)     14.5151                                         !
 ! D291  D(111,108,110,114)     73.6967                                         !
 ! D292  D(111,108,110,127)   -105.574                                          !
 ! D293  D(106,108,111,112)     51.4724                                         !
 ! D294  D(106,108,111,113)    166.2478                                         !
 ! D295  D(106,108,111,115)    -72.7873                                         !
 ! D296  D(109,108,111,112)    170.4884                                         !
 ! D297  D(109,108,111,113)    -74.7362                                         !
 ! D298  D(109,108,111,115)     46.2287                                         !
 ! D299  D(110,108,111,112)    -69.0763                                         !
 ! D300  D(110,108,111,113)     45.6991                                         !
 ! D301  D(110,108,111,115)    166.6639                                         !
 ! D302  D(108,110,127,128)     -7.629                                          !
 ! D303  D(108,110,127,129)   -161.9242                                         !
 ! D304  D(114,110,127,128)    173.1114                                         !
 ! D305  D(114,110,127,129)     18.8161                                         !
 ! D306  D(108,111,115,116)    -85.5073                                         !
 ! D307  D(108,111,115,118)     92.6147                                         !
 ! D308  D(112,111,115,116)    152.3334                                         !
 ! D309  D(112,111,115,118)    -29.5445                                         !
 ! D310  D(113,111,115,116)     34.2178                                         !
 ! D311  D(113,111,115,118)   -147.6601                                         !
 ! D312  D(111,115,116,117)     -2.7457                                         !
 ! D313  D(111,115,116,120)    177.536                                          !
 ! D314  D(118,115,116,117)    179.0475                                         !
 ! D315  D(118,115,116,120)     -0.6708                                         !
 ! D316  D(111,115,118,119)      2.7232                                         !
 ! D317  D(111,115,118,122)   -177.0769                                         !
 ! D318  D(116,115,118,119)   -179.1174                                         !
 ! D319  D(116,115,118,122)      1.0825                                         !
 ! D320  D(115,116,120,121)    179.1124                                         !
 ! D321  D(115,116,120,126)     -0.7014                                         !
 ! D322  D(117,116,120,121)     -0.6067                                         !
 ! D323  D(117,116,120,126)    179.5795                                         !
 ! D324  D(115,118,122,123)   -178.2732                                         !
 ! D325  D(115,118,122,126)     -0.1248                                         !
 ! D326  D(119,118,122,123)      1.9233                                         !
 ! D327  D(119,118,122,126)   -179.9283                                         !
 ! D328  D(116,120,126,122)      1.6667                                         !
 ! D329  D(116,120,126,124)    179.8532                                         !
 ! D330  D(121,120,126,122)   -178.1516                                         !
 ! D331  D(121,120,126,124)      0.0349                                         !
 ! D332  D(118,122,126,120)     -1.2631                                         !
 ! D333  D(118,122,126,124)   -179.3568                                         !
 ! D334  D(123,122,126,120)    176.8915                                         !
 ! D335  D(123,122,126,124)     -1.2023                                         !
 ! D336  D(125,124,126,120)    145.0313                                         !
 ! D337  D(125,124,126,122)    -36.8522                                         !
 ! D338  D(110,127,129,130)    -46.0093                                         !
 ! D339  D(110,127,129,131)   -165.2312                                         !
 ! D340  D(110,127,129,132)     73.5508                                         !
 ! D341  D(128,127,129,130)    158.7185                                         !
 ! D342  D(128,127,129,131)     39.4966                                         !
 ! D343  D(128,127,129,132)    -81.7214                                         !
 ! D344  D(127,129,131,135)    -22.9801                                         !
 ! D345  D(127,129,131,151)    160.7055                                         !
 ! D346  D(130,129,131,135)   -141.3068                                         !
 ! D347  D(130,129,131,151)     42.3787                                         !
 ! D348  D(132,129,131,135)     99.4039                                         !
 ! D349  D(132,129,131,151)    -76.9106                                         !
 ! D350  D(127,129,132,133)   -177.3924                                         !
 ! D351  D(127,129,132,134)    -61.0877                                         !
 ! D352  D(127,129,132,136)     59.05                                           !
 ! D353  D(130,129,132,133)    -57.865                                          !
 ! D354  D(130,129,132,134)     58.4398                                         !
 ! D355  D(130,129,132,136)    178.5775                                         !
 ! D356  D(131,129,132,133)     62.2537                                         !
 ! D357  D(131,129,132,134)    178.5584                                         !
 ! D358  D(131,129,132,136)    -61.3039                                         !
 ! D359  D(129,131,151,152)    177.008                                          !
 ! D360  D(135,131,151,152)      0.6434                                         !
 ! D361  D(129,132,136,137)    -55.9292                                         !
 ! D362  D(129,132,136,138)     61.7365                                         !
 ! D363  D(129,132,136,139)   -175.5961                                         !
 ! D364  D(133,132,136,137)   -178.1006                                         !
 ! D365  D(133,132,136,138)    -60.4348                                         !
 ! D366  D(133,132,136,139)     62.2326                                         !
 ! D367  D(134,132,136,137)     62.3992                                         !
 ! D368  D(134,132,136,138)   -179.9351                                         !
 ! D369  D(134,132,136,139)    -57.2677                                         !
 ! D370  D(132,136,139,140)    -65.7496                                         !
 ! D371  D(132,136,139,141)     53.1685                                         !
 ! D372  D(132,136,139,142)    174.5233                                         !
 ! D373  D(137,136,139,140)    174.0415                                         !
 ! D374  D(137,136,139,141)    -67.0404                                         !
 ! D375  D(137,136,139,142)     54.3144                                         !
 ! D376  D(138,136,139,140)     57.9042                                         !
 ! D377  D(138,136,139,141)    176.8223                                         !
 ! D378  D(138,136,139,142)    -61.823                                          !
 ! D379  D(136,139,142,143)     68.6663                                         !
 ! D380  D(136,139,142,150)    -84.1158                                         !
 ! D381  D(140,139,142,143)    -53.44                                           !
 ! D382  D(140,139,142,150)    153.7779                                         !
 ! D383  D(141,139,142,143)   -168.529                                          !
 ! D384  D(141,139,142,150)     38.6888                                         !
 ! D385  D(139,142,150,144)    -13.9302                                         !
 ! D386  D(139,142,150,147)    170.4661                                         !
 ! D387  D(143,142,150,144)   -166.6316                                         !
 ! D388  D(143,142,150,147)     17.7647                                         !
 ! D389  D(145,144,150,142)    178.663                                          !
 ! D390  D(145,144,150,147)     -5.6217                                         !
 ! D391  D(146,144,150,142)     33.7172                                         !
 ! D392  D(146,144,150,147)   -150.5676                                         !
 ! D393  D(148,147,150,142)   -148.7052                                         !
 ! D394  D(148,147,150,144)     35.5847                                         !
 ! D395  D(149,147,150,142)     -4.2309                                         !
 ! D396  D(149,147,150,144)   -179.9409                                         !
 --------------------------------------------------------------------------------
 Symmetry turned off by external request.
 Stoichiometry    C50H77N12O13(1+)
 Framework group  C1[X(C50H77N12O13)]
 Deg. of freedom   450
 Full point group                 C1      NOp   1
                          Input orientation:                          
 ---------------------------------------------------------------------
 Center     Atomic      Atomic             Coordinates (Angstroms)
 Number     Number       Type             X           Y           Z
 ---------------------------------------------------------------------
      1          7           0       -3.047014   -1.143800    8.960744
[...]
 Alpha virt. eigenvalues --    1.87357   1.87584   1.87832   1.87943   1.88462
 Alpha virt. eigenvalues --    1.88834   1.89388   1.89800   1.89988   1.90356
 Alpha virt. eigenvalues --    1.90447   1.90589   1.90790   1.90865   1.91201
 Alpha virt. eigenvalues --    1.91848   1.91894   1.92280   1.92368   1.92776
 Alpha virt. eigenvalues --    1.93253   1.93486   1.93765   1.94020   1.94322
 Alpha virt. eigenvalues --    1.94371   1.94816   1.94906   1.95199   1.95603
 Alpha virt. eigenvalues --    1.95736   1.95935   1.96130   1.96318   1.96761
 Alpha virt. eigenvalues --    1.96902   1.96982   1.97145   1.97570   1.97941
 Alpha virt. eigenvalues --    1.98311   1.98468   1.99136   1.99557   1.99870
 Alpha virt. eigenvalues --    1.99999   2.00116   2.00407   2.01275   2.01396
 Alpha virt. eigenvalues --    2.01519   2.01805   2.01972   2.02251   2.02715
 Alpha virt. eigenvalues --    2.02885   2.03920   2.04345   2.04744   2.05062
 Alpha virt. eigenvalues --    2.05612   2.05979   2.06230   2.06848   2.07385
 Alpha virt. eigenvalues --    2.07680   2.08179   2.08783   2.09120   2.09394
 Alpha virt. eigenvalues --    2.09739   2.09912   2.10036   2.10150   2.10488
 Alpha virt. eigenvalues --    2.10921   2.11187   2.11391   2.11726   2.12633
 Alpha virt. eigenvalues --    2.13134   2.13317   2.13796   2.14148   2.14487
 Alpha virt. eigenvalues --    2.14636   2.15110   2.15427   2.15929   2.17130
 Alpha virt. eigenvalues --    2.17461   2.17765   2.17884   2.18434   2.19026
 Alpha virt. eigenvalues --    2.19485   2.19579   2.19897   2.20110   2.20526
 Alpha virt. eigenvalues --    2.20616   2.21009   2.21407   2.22065   2.22998
 Alpha virt. eigenvalues --    2.23546   2.23652   2.24265   2.24489   2.24855
 Alpha virt. eigenvalues --    2.25024   2.25809   2.25987   2.26364   2.26759
 Alpha virt. eigenvalues --    2.27007   2.27917   2.28023   2.28664   2.28882
 Alpha virt. eigenvalues --    2.29206   2.29472   2.29710   2.30103   2.30335
 Alpha virt. eigenvalues --    2.30851   2.31487   2.31965   2.32087   2.32566
 Alpha virt. eigenvalues --    2.33030   2.33352   2.33718   2.34332   2.34697
 Alpha virt. eigenvalues --    2.34975   2.35097   2.35543   2.36483   2.37143
 Alpha virt. eigenvalues --    2.37598   2.38159   2.38459   2.38915   2.39298
 Alpha virt. eigenvalues --    2.39757   2.40039   2.40592   2.41131   2.41945
 Alpha virt. eigenvalues --    2.42103   2.42386   2.42939   2.43515   2.44301
 Alpha virt. eigenvalues --    2.44945   2.45163   2.45384   2.45917   2.46314
 Alpha virt. eigenvalues --    2.46896   2.47192   2.47627   2.47706   2.48688
 Alpha virt. eigenvalues --    2.48692   2.49762   2.50159   2.51244   2.51270
 Alpha virt. eigenvalues --    2.51833   2.51959   2.52981   2.53521   2.53937
 Alpha virt. eigenvalues --    2.54257   2.54636   2.55083   2.55708   2.56257
 Alpha virt. eigenvalues --    2.56689   2.56835   2.57031   2.57463   2.58262
 Alpha virt. eigenvalues --    2.58604   2.58711   2.59128   2.59231   2.60023
 Alpha virt. eigenvalues --    2.60301   2.60317   2.61002   2.61532   2.62290
 Alpha virt. eigenvalues --    2.62604   2.63119   2.63561   2.64179   2.64644
 Alpha virt. eigenvalues --    2.65163   2.65715   2.66052   2.66541   2.66993
 Alpha virt. eigenvalues --    2.67293   2.67878   2.68109   2.68434   2.68993
 Alpha virt. eigenvalues --    2.69936   2.70075   2.70778   2.71473   2.72094
 Alpha virt. eigenvalues --    2.73193   2.73627   2.73942   2.74579   2.75183
 Alpha virt. eigenvalues --    2.75902   2.77329   2.77873   2.78805   2.80284
 Alpha virt. eigenvalues --    2.80832   2.80996   2.81294   2.83234   2.83832
 Alpha virt. eigenvalues --    2.84688   2.85903   2.86001   2.87472   2.87725
 Alpha virt. eigenvalues --    2.88204   2.89225   2.90994   2.91222   2.93074
 Alpha virt. eigenvalues --    2.93272   2.93716   2.94206   2.94784   2.96540
 Alpha virt. eigenvalues --    2.97407   2.97628   2.98000   2.98441   2.98804
 Alpha virt. eigenvalues --    3.00712   3.01038   3.01507   3.02457   3.04856
 Alpha virt. eigenvalues --    3.05276   3.06428   3.07444   3.08761   3.10318
 Alpha virt. eigenvalues --    3.11142   3.12680   3.13825   3.15710   3.16546
 Alpha virt. eigenvalues --    3.34966   3.36467   3.64787   3.77249   3.79230
 Alpha virt. eigenvalues --    3.81500   3.91286   3.92595   3.94109   3.95977
 Alpha virt. eigenvalues --    3.96434   3.98581   3.98828   4.01019   4.01233
 Alpha virt. eigenvalues --    4.02585   4.05178   4.05854   4.07439   4.07634
 Alpha virt. eigenvalues --    4.08238   4.08927   4.09555   4.10219   4.11052
 Alpha virt. eigenvalues --    4.11872   4.13134   4.13482   4.15338   4.16060
 Alpha virt. eigenvalues --    4.17162   4.17885   4.18306   4.18622   4.19626
 Alpha virt. eigenvalues --    4.21416   4.21658   4.22201   4.24779   4.25040
 Alpha virt. eigenvalues --    4.25799   4.26752   4.26828   4.28437   4.30021
 Alpha virt. eigenvalues --    4.30153   4.30865   4.31755   4.32756   4.34614
 Alpha virt. eigenvalues --    4.35363   4.35659   4.38051   4.38936   4.40289
 Alpha virt. eigenvalues --    4.41798   4.42271   4.42725   4.44760   4.45914
 Alpha virt. eigenvalues --    4.47555   4.48991   4.49662   4.52253   4.53586
 Alpha virt. eigenvalues --    4.53740   4.54678   4.58330   4.59516   4.60102
 Alpha virt. eigenvalues --    4.61684   4.64748   4.65927   4.67686   4.70235
 Alpha virt. eigenvalues --    4.71343   4.75244
          Condensed to atoms (all electrons):
 Mulliken charges:
               1
     1  N   -0.762583
     2  H    0.415333
     3  H    0.434178
     4  H    0.409024
     5  C   -0.101929
     6  H    0.212090
     7  C    0.648211
     8  C   -0.129280
     9  H    0.196203
    10  O   -0.551089
    11  C   -0.462266
    12  H    0.137572
    13  H    0.199810
    14  H    0.172648
    15  C   -0.487584
    16  H    0.138942
    17  H    0.201616
    18  H    0.199892
    19  N   -0.600863
    20  H    0.374671
    21  C   -0.088618
    22  H    0.210656
    23  C    0.634735
    24  C   -0.078463
    25  H    0.149049
    26  O   -0.564225
    27  C   -0.301718
    28  H    0.182156
    29  H    0.152133
    30  C   -0.461442
    31  H    0.165142
    32  H    0.136430
    33  H    0.167667
    34  C   -0.492381
    35  H    0.177664
    36  H    0.158142
    37  H    0.151989
    38  N   -0.625075
    39  H    0.387735
    40  C   -0.035169
    41  H    0.199632
    42  C    0.644944
    43  C   -0.399662
    44  H    0.186351
    45  H    0.156762
    46  O   -0.566547
    47  C    0.170610
    48  C   -0.205669
    49  H    0.110479
    50  C   -0.213388
    51  H    0.182929
    52  C   -0.144497
    53  H    0.117379
    54  C   -0.169655
    55  H    0.182959
    56  C   -0.130130
    57  H    0.170798
    58  N   -0.607479
    59  H    0.346998
    60  C   -0.051979
    61  H    0.163249
    62  C    0.631445
    63  C   -0.281137
    64  H    0.151782
    65  H    0.143973
    66  O   -0.545662
    67  C   -0.085301
    68  H    0.160041
    69  C   -0.461395
    70  H    0.139118
    71  H    0.149988
    72  H    0.158565
    73  C   -0.446901
    74  H    0.142031
    75  H    0.153433
    76  H    0.146464
    77  N   -0.564293
    78  H    0.352105
    79  C   -0.094040
    80  H    0.204102
    81  C    0.622912
    82  C   -0.289955
    83  H    0.164589
    84  H    0.164591
    85  O   -0.564976
    86  C   -0.380086
    87  H    0.158351
    88  H    0.158860
    89  C    0.610795
    90  O   -0.583250
    91  O   -0.621182
    92  N   -0.632023
    93  H    0.396472
    94  C   -0.060228
    95  H    0.207103
    96  C    0.691148
    97  C   -0.404067
    98  H    0.193838
    99  H    0.165124
   100  O   -0.595782
   101  C    0.617394
   102  N   -0.757019
   103  H    0.345661
   104  H    0.338670
   105  O   -0.492036
   106  N   -0.615236
   107  H    0.384606
   108  C   -0.024002
   109  H    0.146606
   110  C    0.649050
   111  C   -0.403614
   112  H    0.184866
   113  H    0.170149
   114  O   -0.511780
   115  C    0.166099
   116  C   -0.188477
   117  H    0.128352
   118  C   -0.175542
   119  H    0.157625
   120  C   -0.164964
   121  H    0.139249
   122  C   -0.214341
   123  H    0.132957
   124  O   -0.677974
   125  H    0.437649
   126  C    0.348857
   127  N   -0.608850
   128  H    0.338390
   129  C   -0.041238
   130  H    0.207989
   131  C    0.588623
   132  C   -0.288336
   133  H    0.153965
   134  H    0.207379
   135  O   -0.476883
   136  C   -0.273468
   137  H    0.164852
   138  H    0.138507
   139  C   -0.184819
   140  H    0.167266
   141  H    0.199634
   142  N   -0.586224
   143  H    0.335782
   144  N   -0.842675
   145  H    0.408113
   146  H    0.423144
   147  N   -0.768461
   148  H    0.401705
   149  H    0.332681
   150  C    0.753090
   151  O   -0.562022
   152  H    0.417417
 Sum of Mulliken charges =   1.00000
 Mulliken charges with hydrogens summed into heavy atoms:
               1
     1  N    0.495953
     5  C    0.110161
     7  C    0.648211
     8  C    0.066923
    10  O   -0.551089
    11  C    0.047764
    15  C    0.052866
    19  N   -0.226193
    21  C    0.122038
    23  C    0.634735
    24  C    0.070586
    26  O   -0.564225
    27  C    0.032571
    30  C    0.007797
    34  C   -0.004587
    38  N   -0.237340
    40  C    0.164463
    42  C    0.644944
    43  C   -0.056549
    46  O   -0.566547
    47  C    0.170610
    48  C   -0.095190
    50  C   -0.030459
    52  C   -0.027118
    54  C    0.013304
    56  C    0.040668
    58  N   -0.260481
    60  C    0.111270
    62  C    0.631445
    63  C    0.014619
    66  O   -0.545662
    67  C    0.074740
    69  C   -0.013725
    73  C   -0.004974
    77  N   -0.212189
    79  C    0.110062
    81  C    0.622912
    82  C    0.039226
    85  O   -0.564976
    86  C   -0.062875
    89  C    0.610795
    90  O   -0.583250
    91  O   -0.621182
    92  N   -0.235552
    94  C    0.146874
    96  C    0.691148
    97  C   -0.045105
   100  O   -0.595782
   101  C    0.617394
   102  N   -0.072689
   105  O   -0.492036
   106  N   -0.230630
   108  C    0.122604
   110  C    0.649050
   111  C   -0.048600
   114  O   -0.511780
   115  C    0.166099
   116  C   -0.060125
   118  C   -0.017917
   120  C   -0.025715
   122  C   -0.081384
   124  O   -0.240325
   126  C    0.348857
   127  N   -0.270460
   129  C    0.166751
   131  C    0.588623
   132  C    0.073008
   135  O   -0.476883
   136  C    0.029891
   139  C    0.182081
   142  N   -0.250442
   144  N   -0.011418
   147  N   -0.034076
   150  C    0.753090
   151  O   -0.144605
 Electronic spatial extent (au):  <R**2>=          76783.5504
 Charge=              1.0000 electrons
 Dipole moment (field-independent basis, Debye):
    X=             -5.8089    Y=              0.3964    Z=             34.1416  Tot=             34.6345
 Quadrupole moment (field-independent basis, Debye-Ang):
   XX=           -259.7326   YY=           -419.5385   ZZ=           -158.2796
   XY=             30.7175   XZ=            -63.1092   YZ=            -34.4789
 Traceless Quadrupole moment (field-independent basis, Debye-Ang):
   XX=             19.4509   YY=           -140.3549   ZZ=            120.9040
   XY=             30.7175   XZ=            -63.1092   YZ=            -34.4789
 Octapole moment (field-independent basis, Debye-Ang**2):
  XXX=           -323.4612  YYY=          -1008.9901  ZZZ=           1864.2606  XYY=           -184.9038
  XXY=            -70.8735  XXZ=            497.8958  XZZ=          -1453.5268  YZZ=           -539.8521
  YYZ=           -257.9553  XYZ=            119.3611
 Hexadecapole moment (field-independent basis, Debye-Ang**3):
 XXXX=         -40309.3586 YYYY=         -14863.6204 ZZZZ=          -8372.4084 XXXY=            393.3692
 XXXZ=           7788.7684 YYYX=            -85.7075 YYYZ=            857.7947 ZZZX=          -1780.5714
 ZZZY=           -694.4157 XXYY=          -8909.0742 XXZZ=          -9979.6960 YYZZ=          -7140.8061
 XXYZ=             46.7462 YYXZ=           1632.5289 ZZXY=            712.1223
 N-N= 1.417759965561D+04 E-N=-3.667283786834D+04  KE= 3.553676173941D+03
 Unable to Open any file for archive entry.
 1\1\GINC-SKL-149\SP\RB3LYP\6-31G(d)\C50H77N12O13(1+)\KENGMITH\14-Aug-2
 022\0\\# B3LYP/6-31G* empiricaldispersion=gd3 guess=read geom=check no
 symm integral(ultrafinegrid)\\Candidate Structure: Conf:962 Charge cal
 c in gas phase\\1,1\N,0,-3.0470141126,-1.1438001618,8.9607438511\H,0,-
 3.220079243,-2.0136671877,9.4698162278\H,0,-2.1288432008,-1.2243922029
 ,8.4174522757\H,0,-3.0090715461,-0.3732244893,9.6324914846\C,0,-4.0303
 838002,-0.9026398044,7.8316509301\H,0,-4.8371023771,-1.6338807735,7.92
 39726911\C,0,-3.1634217095,-1.1704650035,6.5733103937\C,0,-4.598074161
 9,0.5355372879,7.8595688544\H,0,-5.239321846,0.5987595061,6.9710285189
 \O,0,-1.9372865411,-1.2958653149,6.7360683564\C,0,-5.4795353891,0.7661
 615581,9.0957541238\H,0,-4.9002015737,0.7521319621,10.0297204698\H,0,-
 5.9527734905,1.7506143049,9.0388936277\H,0,-6.2731140214,0.0152430424,
 9.1769350605\C,0,-3.5001797235,1.6030297034,7.7228017316\H,0,-2.828156
 7159,1.6255320698,8.5916882399\H,0,-2.8877874816,1.4576525455,6.828272
 7361\H,0,-3.9568821427,2.5941050979,7.6553520385\N,0,-3.8058653984,-1.
 1945795486,5.4172483889\H,0,-4.7913622797,-0.9286910711,5.3494513216\C
 ,0,-3.1346733959,-1.1144862207,4.1157205187\H,0,-2.2638251642,-0.46378
 73703,4.2417674328\C,0,-4.1475858532,-0.3461983164,3.2359925461\C,0,-2
 .655909084,-2.5022698559,3.6226692615\H,0,-2.1230452114,-2.9200738315,
 4.4881757578\O,0,-5.2401758773,-0.0002563563,3.7055818241\C,0,-1.63895
 89652,-2.4276929507,2.4643855741\H,0,-2.140660195,-2.2167638314,1.5142
 783657\H,0,-1.2404980841,-3.4424467994,2.3377296238\C,0,-3.8359677573,
 -3.4169547236,3.2745997068\H,0,-4.3860150859,-3.0329040893,2.407480973
 4\H,0,-4.539032461,-3.5087211447,4.1105690273\H,0,-3.4810563325,-4.421
 1790002,3.0220077453\C,0,-0.4663367226,-1.4581532901,2.6710015296\H,0,
 0.2744799802,-1.5907760529,1.8772011888\H,0,-0.7683797284,-0.403438381
 5,2.6433218898\H,0,0.0298486872,-1.6278086942,3.6343660637\N,0,-3.7290
 362448,-0.0103677862,2.0087878838\H,0,-2.8210827867,-0.309955061,1.672
 885925\C,0,-4.3436517229,1.0501000088,1.2238179147\H,0,-5.401539803,0.
 8113436564,1.0617124449\C,0,-3.6297013365,1.0272951095,-0.1422587356\C
 ,0,-4.2661645004,2.4245194442,1.9729817702\H,0,-5.0022549471,2.3719231
 55,2.7797782296\H,0,-4.5951339828,3.2234331796,1.2988997821\O,0,-2.772
 9985104,0.1686736342,-0.3879806804\C,0,-2.89200003,2.7215031605,2.5335
 535944\C,0,-2.5566893473,2.2952484726,3.8279429641\H,0,-3.3280855188,1
 .8490511631,4.4521907869\C,0,-1.9091890588,3.3534629682,1.7618754367\H
 ,0,-2.145913221,3.7268683616,0.7699222965\C,0,-1.2542573081,2.42773890
 06,4.3119794338\H,0,-1.0048112113,2.0666735165,5.3078043416\C,0,-0.609
 1261669,3.5040502258,2.2529555425\H,0,0.151991423,3.9784542971,1.64067
 69826\C,0,-0.2678360722,3.0171638044,3.5168315979\H,0,0.7604559484,3.0
 83656001,3.8565129412\N,0,-3.9879810126,1.9675107419,-1.0391114341\H,0
 ,-4.5749820966,2.7337295528,-0.7364151059\C,0,-3.1926267134,2.19685456
 26,-2.2592478391\H,0,-3.0221928514,1.2161803172,-2.7092647315\C,0,-1.8
 633902662,2.8290662794,-1.7937613395\C,0,-3.9440170037,3.1052375534,-3
 .2299862224\H,0,-4.2189245539,4.0263993015,-2.6998247204\H,0,-4.872167
 1688,2.5999111911,-3.5294294419\O,0,-1.8259751095,4.002495521,-1.42418
 23196\C,0,-3.1264334631,3.48963693,-4.4807317348\H,0,-2.3016743287,4.1
 310257697,-4.1433157686\C,0,-2.5215911801,2.2698685496,-5.1944352854\H
 ,0,-3.2939358292,1.5264713676,-5.4332811121\H,0,-1.7445271327,1.783870
 5502,-4.5928050118\H,0,-2.0508770098,2.5720878165,-6.1361226283\C,0,-4
 .005580176,4.3077174498,-5.4362492607\H,0,-4.8333284722,3.7000113578,-
 5.8244770701\H,0,-3.4240219438,4.6648173639,-6.2931325067\H,0,-4.43642
 74503,5.1821554256,-4.9343565879\N,0,-0.8294337289,1.9670644574,-1.746
 7261178\H,0,-0.977419782,1.015571595,-2.0520758985\C,0,0.4497577866,2.
 2331611157,-1.1171724323\H,0,0.4072340413,3.234534034,-0.6875095688\C,
 0,1.5498498584,2.1629363788,-2.182001864\C,0,0.6525544736,1.1688653157
 ,-0.0028959732\H,0,0.494266351,0.1851972023,-0.4594127\H,0,-0.15989283
 89,1.3172428092,0.7146483441\O,0,1.4437267001,1.4395441566,-3.17870667
 34\C,0,1.9954400388,1.1056546179,0.7423279536\H,0,1.9406807121,0.28620
 02358,1.4647134429\H,0,2.7913290164,0.8464549099,0.0314342692\C,0,2.48
 4207003,2.3570075544,1.4872920269\O,0,2.8461980592,2.2194166846,2.6821
 041748\O,0,2.5924228193,3.4430854556,0.8173211085\N,0,2.6388245002,2.9
 092599442,-1.8917298474\H,0,2.6756094232,3.2726532755,-0.9218494854\C,
 0,3.9012572892,2.7053854511,-2.5957251236\H,0,3.6912916638,2.542546879
 8,-3.6547059345\C,0,4.5513350135,1.4350603102,-2.0205801252\C,0,4.7970
 759423,3.933656691,-2.4289401486\H,0,4.3462136233,4.7650513439,-2.9838
 184304\H,0,4.8462189882,4.2437750894,-1.3813239205\O,0,5.4539791892,1.
 4751618076,-1.1670183698\C,0,6.1907899874,3.669889557,-2.9905378766\N,
 0,7.2150841939,4.3319196882,-2.3563994852\H,0,8.1100949109,4.327432721
 9,-2.8291565271\H,0,7.0216410013,5.1171149722,-1.7502053283\O,0,6.3768
 191429,2.9086185444,-3.9251439488\N,0,4.0032565487,0.2781286376,-2.426
 0576791\H,0,3.2032666977,0.3288737495,-3.0508099276\C,0,4.4088932773,-
 1.0032373343,-1.8672695713\H,0,4.1568996491,-1.0179769219,-0.797093912
 4\C,0,5.9359322109,-1.1474289052,-2.0313132898\C,0,3.6515695962,-2.153
 0744776,-2.5684745892\H,0,3.7699318063,-2.0290773314,-3.6508406227\H,0
 ,4.1553624204,-3.0893830221,-2.3028925014\O,0,6.499359327,-0.916339007
 2,-3.0880242755\C,0,2.1927383511,-2.22683355,-2.1641138352\C,0,1.82258
 38864,-2.9327649726,-1.0088358817\H,0,2.5851441738,-3.4592673887,-0.43
 82651771\C,0,1.1825055819,-1.5785942777,-2.8839993218\H,0,1.421342484,
 -1.0331941009,-3.7909840012\C,0,0.5008021191,-2.9814294032,-0.57651248
 92\H,0,0.2190872611,-3.5407862586,0.3096038347\C,0,-0.1473985398,-1.61
 17205602,-2.4571568163\H,0,-0.9212723367,-1.1248319225,-3.0465465212\O
 ,0,-1.7799253116,-2.3819647069,-0.8312043489\H,0,-2.2430970802,-1.5385
 006376,-0.9927323136\C,0,-0.4947544291,-2.3035634638,-1.2912847483\N,0
 ,6.5883950002,-1.5670818293,-0.9049689925\H,0,6.0809489628,-1.64086995
 23,-0.0333152531\C,0,8.0219748892,-1.3759865216,-0.7806019978\H,0,8.49
 42746174,-1.6858972643,-1.7153766215\C,0,8.5225902647,-2.2405001021,0.
 3611302493\C,0,8.3849441707,0.1149131944,-0.5141106165\H,0,9.477082944
 4,0.2089271655,-0.4757626943\H,0,8.0238045901,0.68200827,-1.3781067884
 \O,0,7.834821242,-2.6422123916,1.2768181675\C,0,7.7376651268,0.6588419
 462,0.7654361991\H,0,6.6557409244,0.5149819328,0.6995244503\H,0,8.0885
 726283,0.1028148919,1.6456727039\C,0,7.9981834023,2.1545559005,0.98445
 09992\H,0,9.0604727894,2.3508755995,1.1638623954\H,0,7.7125321144,2.73
 70896029,0.1036792533\N,0,7.257676677,2.6697750055,2.1479105067\H,0,7.
 5750495208,2.3281783219,3.0458669377\N,0,5.3635598038,3.2933636481,0.9
 351468642\H,0,4.3708481161,3.582507973,0.9679349721\H,0,5.5999823571,2
 .7213548456,0.116195944\N,0,5.291593471,3.3569565823,3.2315154778\H,0,
 4.2666860589,3.1599846257,3.180555529\H,0,5.7438052597,3.1961023906,4.
 1206307556\C,0,5.9677604684,3.076807437,2.1019207775\O,0,9.8523498117,
 -2.4475254544,0.2814691435\H,0,10.1081338603,-2.9661810464,1.068019892
 9\\Version=ES64L-G16RevC.01\HF=-3586.8919117\RMSD=5.817e-10\Dipole=-3.
 9804145,-1.3106735,12.1697314\Quadrupole=14.4612973,-104.3504558,89.88
 91585,22.8376844,-46.9201196,-25.6341887\PG=C01 [X(C50H77N12O13)]\\@
 The archive entry for this job was punched.


 HE THAT IS UNAWARE OF HIS IGNORANCE WILL BE MISLED BY HIS KNOWLEDGE.

                                        -- WHATLEY
 Job cpu time:       0 days  0 hours 15 minutes 15.2 seconds.
 Elapsed time:       0 days  0 hours  3 minutes 50.7 seconds.
 File lengths (MBytes):  RWF=   1088 Int=      0 D2E=      0 Chk=    160 Scr=     32
 Normal termination of Gaussian 16 at Sun Aug 14 21:12:35 2022.
