 Entering Gaussian System, Link 0=/opt/software/Gaussian/g16-AVX2-C.01/g16/g16
 Input=charge-conf-102.com
 Output=charge-conf-102.log
 Initial command:
 /opt/software/Gaussian/g16-AVX2-C.01/g16/l1.exe "/mnt/gs21/scratch/kengmith/Gau-78669.inp" -scrdir="/mnt/gs21/scratch/kengmith/"
 Entering Link 1 = /opt/software/Gaussian/g16-AVX2-C.01/g16/l1.exe PID=     78682.
  
 Copyright (c) 1988-2019, Gaussian, Inc.  All Rights Reserved.
  
 This is part of the Gaussian(R) 16 program.  It is based on
 the Gaussian(R) 09 system (copyright 2009, Gaussian, Inc.),
 the Gaussian(R) 03 system (copyright 2003, Gaussian, Inc.),
 the Gaussian(R) 98 system (copyright 1998, Gaussian, Inc.),
 the Gaussian(R) 94 system (copyright 1995, Gaussian, Inc.),
 the Gaussian 92(TM) system (copyright 1992, Gaussian, Inc.),
 the Gaussian 90(TM) system (copyright 1990, Gaussian, Inc.),
 the Gaussian 88(TM) system (copyright 1988, Gaussian, Inc.),
 the Gaussian 86(TM) system (copyright 1986, Carnegie Mellon
 University), and the Gaussian 82(TM) system (copyright 1983,
 Carnegie Mellon University). Gaussian is a federally registered
 trademark of Gaussian, Inc.
  
 This software contains proprietary and confidential information,
 including trade secrets, belonging to Gaussian, Inc.
  
 This software is provided under written license and may be
 used, copied, transmitted, or stored only in accord with that
 written license.
  
 The following legend is applicable only to US Government
 contracts under FAR:
  
                    RESTRICTED RIGHTS LEGEND
  
 Use, reproduction and disclosure by the US Government is
 subject to restrictions as set forth in subparagraphs (a)
 and (c) of the Commercial Computer Software - Restricted
 Rights clause in FAR 52.227-19.
  
 Gaussian, Inc.
 340 Quinnipiac St., Bldg. 40, Wallingford CT 06492
  
  
 ---------------------------------------------------------------
 Warning -- This program may not be used in any manner that
 competes with the business of Gaussian, Inc. or will provide
 assistance to any competitor of Gaussian, Inc.  The licensee
 of this program is prohibited from giving any competitor of
 Gaussian, Inc. access to this program.  By using this program,
 the user acknowledges that Gaussian, Inc. is engaged in the
 business of creating and licensing software in the field of
 computational chemistry and represents and warrants to the
 licensee that it is not a competitor of Gaussian, Inc. and that
 it will not use this program in any manner prohibited above.
 ---------------------------------------------------------------
  

 Cite this work as:
 Gaussian 16, Revision C.01,
 M. J. Frisch, G. W. Trucks, H. B. Schlegel, G. E. Scuseria, 
 M. A. Robb, J. R. Cheeseman, G. Scalmani, V. Barone, 
 G. A. Petersson, H. Nakatsuji, X. Li, M. Caricato, A. V. Marenich, 
 J. Bloino, B. G. Janesko, R. Gomperts, B. Mennucci, H. P. Hratchian, 
 J. V. Ortiz, A. F. Izmaylov, J. L. Sonnenberg, D. Williams-Young, 
 F. Ding, F. Lipparini, F. Egidi, J. Goings, B. Peng, A. Petrone, 
 T. Henderson, D. Ranasinghe, V. G. Zakrzewski, J. Gao, N. Rega, 
 G. Zheng, W. Liang, M. Hada, M. Ehara, K. Toyota, R. Fukuda, 
 J. Hasegawa, M. Ishida, T. Nakajima, Y. Honda, O. Kitao, H. Nakai, 
 T. Vreven, K. Throssell, J. A. Montgomery, Jr., J. E. Peralta, 
 F. Ogliaro, M. J. Bearpark, J. J. Heyd, E. N. Brothers, K. N. Kudin, 
 V. N. Staroverov, T. A. Keith, R. Kobayashi, J. Normand, 
 K. Raghavachari, A. P. Rendell, J. C. Burant, S. S. Iyengar, 
 J. Tomasi, M. Cossi, J. M. Millam, M. Klene, C. Adamo, R. Cammi, 
 J. W. Ochterski, R. L. Martin, K. Morokuma, O. Farkas, 
 J. B. Foresman, and D. J. Fox, Gaussian, Inc., Wallingford CT, 2019.
 
 ******************************************
 Gaussian 16:  ES64L-G16RevC.01  3-Jul-2019
                14-Aug-2022 
 ******************************************
 %mem=8gb
 %nproc=4
 Will use up to    4 processors via shared memory.
 %chk=conf-102.chk
 ----------------------------------------------------------------------
 # B3LYP/6-31G* empiricaldispersion=gd3 guess=read geom=check nosymm in
 tegral(ultrafinegrid)
 ----------------------------------------------------------------------
 1/29=2,38=1,172=1/1;
 2/12=2,15=1,40=1/2;
 3/5=1,6=6,7=1,11=2,14=-4,25=1,30=1,74=-5,75=-5,116=-2,124=31/1,2,3;
 4/5=1/1;
 5/5=2,38=6/2;
 6/7=2,8=2,9=2,10=2,28=1/1;
 99/5=1,9=1/99;
 ------------------------------------------------------
 Candidate Structure: Conf:102 Charge calc in gas phase
 ------------------------------------------------------
 Structure from the checkpoint file:  "conf-102.chk"
 Charge =  1 Multiplicity = 1
 Redundant internal coordinates found in file.  (old form).
 N,0,-5.8425370234,-1.6761844346,7.4210305742
 H,0,-6.8110822427,-1.854550471,7.1431004141
 H,0,-5.209091388,-2.4000994885,6.9467097596
 H,0,-5.7802109039,-1.7184673182,8.4404980433
 C,0,-5.278288701,-0.3953547363,6.8330695802
 H,0,-6.1105775643,0.2531512603,6.5463190576
 C,0,-4.5186313549,-0.9467865706,5.5918529386
 C,0,-4.3722399762,0.3146103475,7.8683918155
 H,0,-3.5904067418,-0.4033165465,8.1569285551
 O,0,-4.2275576263,-2.1583757863,5.6084414995
 C,0,-3.6922614776,1.5505869792,7.255299862
 H,0,-4.4343890007,2.2640636729,6.8758219867
 H,0,-3.10977342,2.0626850883,8.0265459596
 H,0,-3.013699011,1.2977078608,6.4385510326
 C,0,-5.1741241779,0.7250214584,9.1166679931
 H,0,-5.969077016,1.4331475009,8.8545634992
 H,0,-5.6368431371,-0.1164143734,9.6503908096
 H,0,-4.5132564665,1.2159442329,9.8366928205
 N,0,-4.243674988,-0.0928888878,4.6262527377
 H,0,-4.4753259638,0.9026181118,4.6750009649
 C,0,-3.4695793572,-0.4058963034,3.4203538095
 H,0,-2.6584140974,-1.084137221,3.6956446527
 C,0,-2.924226206,0.9692157726,2.9828277192
 C,0,-4.3853058861,-1.0815854177,2.3533104044
 H,0,-4.9614595865,-1.8252194459,2.9230518647
 O,0,-3.4997505071,1.9954301384,3.3803842123
 C,0,-3.5970588692,-1.8492629367,1.2766084467
 H,0,-2.9516152395,-1.1605745827,0.7243880751
 H,0,-4.3374533918,-2.2268662192,0.5584427593
 C,0,-5.3591101059,-0.0743213693,1.7251910299
 H,0,-4.8251010759,0.6225564536,1.071626871
 H,0,-5.893811214,0.5106895574,2.4824446641
 H,0,-6.1031096253,-0.6032850157,1.1199253406
 C,0,-2.762413621,-3.0184822739,1.8102124857
 H,0,-2.4237407915,-3.6510301228,0.9834436886
 H,0,-1.8575350863,-2.67124435,2.3157268917
 H,0,-3.3434153402,-3.645134376,2.4991840783
 N,0,-1.845713037,0.9555360779,2.1957141305
 H,0,-1.4197375681,0.0790577064,1.8451153839
 C,0,-1.3631235249,2.1475698122,1.5244078947
 H,0,-1.7557729881,3.0201723975,2.057160626
 C,0,-1.9838784098,2.1790700507,0.1067428961
 C,0,0.1906737095,2.1118315299,1.6127966535
 H,0,0.5124602928,1.1234166842,1.2752483402
 H,0,0.4136954381,2.1745770511,2.6848995128
 O,0,-2.8126940581,1.3428371054,-0.2579154632
 C,0,0.9960160199,3.1632487319,0.8824444816
 C,0,1.7476942391,2.7866728021,-0.241091299
 H,0,1.6661745291,1.7620508455,-0.5912145245
 C,0,1.0764598537,4.490494208,1.3338465665
 H,0,0.4989730973,4.7972779046,2.2037896962
 C,0,2.6028562828,3.6975781443,-0.8617817014
 H,0,3.1897681742,3.3689889765,-1.7140855413
 C,0,1.9166025402,5.4100130999,0.701573762
 H,0,1.981650752,6.4289682099,1.0730533932
 C,0,2.6986660959,5.0087585199,-0.3857918634
 H,0,3.3894443766,5.7151131985,-0.8430868011
 N,0,-1.6236306991,3.2212955804,-0.6920574927
 H,0,-0.8204614994,3.7808652751,-0.4297188571
 C,0,-2.0996158642,3.3295506529,-2.076933847
 H,0,-3.143076092,3.0045090817,-2.0776721315
 C,0,-1.2468832953,2.3418010988,-2.8947410817
 C,0,-1.9797332616,4.7725545442,-2.5669817896
 H,0,-0.9355302628,5.0927586271,-2.4672217715
 H,0,-2.5667238775,5.4075997697,-1.8912949184
 O,0,-0.1935066958,2.7134505476,-3.4510132907
 C,0,-2.4450306879,4.9995322226,-4.0186301142
 H,0,-1.9376511123,4.2620190052,-4.6568326442
 C,0,-3.9592411865,4.7993032164,-4.1767455601
 H,0,-4.5116870105,5.5049028369,-3.5434320946
 H,0,-4.2761916432,3.7855987125,-3.9058082865
 H,0,-4.2670700447,4.9711642163,-5.2138473338
 C,0,-2.0190277342,6.3969057679,-4.4899784385
 H,0,-2.4769690892,7.1748932991,-3.8661286137
 H,0,-2.330263212,6.5743226076,-5.5251961835
 H,0,-0.9307034116,6.5184014306,-4.4374826703
 N,0,-1.6548741222,1.0580167009,-2.874221731
 H,0,-2.4721657182,0.9090830826,-2.2875992255
 C,0,-0.7322943067,-0.1042650036,-2.8597117969
 H,0,0.1530431929,0.2136888267,-2.2840333915
 C,0,-0.0823275529,-0.5567001633,-4.1728802539
 C,0,-1.3740068744,-1.2865409658,-2.102329212
 H,0,-1.8182540951,-1.9837138384,-2.8193337742
 H,0,-2.175085371,-0.9074472622,-1.4586324732
 O,0,0.2961491781,-1.7166116746,-4.2903017349
 C,0,-0.3578767179,-2.0304298321,-1.2084861628
 H,0,-0.8632591113,-2.8744718978,-0.7308237336
 H,0,0.4559440648,-2.4079810178,-1.8323448241
 C,0,0.1851411652,-1.0751080489,-0.1330606112
 O,0,1.1598438457,-0.335209726,-0.474851712
 O,0,-0.4208162217,-1.0430430116,0.9729794371
 N,0,0.2681203649,0.4260730162,-5.081524187
 H,0,0.1094460954,1.3675456755,-4.7156147128
 C,0,1.634989031,0.3012890315,-5.6278699127
 H,0,1.7983213506,-0.7546807727,-5.8437510472
 C,0,2.511349991,0.7689502895,-4.4607817315
 C,0,1.8240344213,1.1580528678,-6.8989848815
 H,0,1.7623013326,0.5082504378,-7.7794559869
 H,0,0.9982353629,1.8641862137,-6.9876870016
 O,0,2.6721039079,1.9736115999,-4.2377672045
 C,0,3.1133921157,1.9736914583,-7.021831407
 N,0,4.2897420772,1.3544662505,-6.7755261436
 H,0,5.1060820169,1.9530261648,-6.7512321469
 H,0,4.3602644771,0.5618987807,-6.1467243727
 O,0,3.069820195,3.1434825507,-7.4375562874
 N,0,2.9986520222,-0.1998408539,-3.6599087301
 H,0,2.7064628504,-1.1594880785,-3.7961639373
 C,0,3.7687987294,0.1653382114,-2.4847298893
 H,0,3.144689851,0.8045043869,-1.8546267697
 C,0,4.9964444292,0.9771664639,-2.9626114736
 C,0,4.1498678827,-1.0759342025,-1.644212501
 H,0,3.2102654238,-1.563248681,-1.3626311666
 H,0,4.7505061575,-1.7620486604,-2.2528677061
 O,0,5.5268950085,0.7876496237,-4.0549973538
 C,0,4.909943298,-0.6117330887,-0.4215973384
 C,0,6.3102868498,-0.6084876299,-0.3999673259
 H,0,6.8611024714,-1.1087975281,-1.1927225603
 C,0,4.2188015404,0.039041658,0.6111955413
 H,0,3.1307922362,0.0220501045,0.6119087458
 C,0,7.0157270616,0.0869531432,0.5791747345
 H,0,8.0990854592,0.1387832796,0.566543515
 C,0,4.9140991562,0.7515688007,1.5887812487
 H,0,4.3682091416,1.2987954495,2.3554199322
 O,0,7.0458609798,1.6269246538,2.3756384676
 H,0,6.4688863554,1.96437866,3.0792137705
 C,0,6.3096865297,0.8068340056,1.544100576
 N,0,5.4007818754,1.9405617734,-2.0935533472
 H,0,4.9895914163,1.979076325,-1.1684802259
 C,0,6.5134309066,2.8436825996,-2.3720278749
 H,0,7.1063405091,2.3946384652,-3.1700188072
 C,0,7.3976234728,2.9011107916,-1.1282575974
 C,0,6.0010354365,4.2375770757,-2.8051984196
 H,0,5.4526564724,4.6783187311,-1.9620519465
 H,0,6.8618716151,4.8888547386,-3.0043209925
 O,0,8.5599042389,2.5803423239,-1.0848156413
 C,0,5.085254355,4.1257270549,-4.0305108642
 H,0,5.6574636802,3.7643077263,-4.894175425
 H,0,4.3206379321,3.3705902688,-3.8419111533
 C,0,4.368573336,5.4298394015,-4.4072868349
 H,0,4.0028971682,5.9555672632,-3.5182767212
 H,0,5.0362543203,6.1351103793,-4.9109381782
 N,0,3.2352017923,5.1896962407,-5.3117913174
 H,0,3.4789188219,4.8703668066,-6.2478522808
 N,0,1.6016597727,4.9102712189,-3.6366679395
 H,0,0.8884919031,4.2324633606,-3.3508884951
 H,0,2.2762571214,5.1156887851,-2.9171562675
 N,0,1.1361639491,4.3625642132,-5.8274856346
 H,0,0.3085122553,3.9046050012,-5.466279284
 H,0,1.5422434028,3.9771943634,-6.684253146
 C,0,2.0193869649,4.789453613,-4.9075329671
 O,0,6.6859544482,3.3290955173,-0.0564578737
 H,0,7.2104884207,3.1441687955,0.7510381072
 Recover connectivity data from disk.
                           ----------------------------
                           !    Current Parameters    !
                           ! (Angstroms and Degrees)  !
 --------------------------                            --------------------------
 ! Name  Definition              Value                                          !
 --------------------------------------------------------------------------------
 ! R1    R(1,2)                  1.0233                                         !
 ! R2    R(1,3)                  1.0725                                         !
 ! R3    R(1,4)                  1.0222                                         !
 ! R4    R(1,5)                  1.5181                                         !
 ! R5    R(5,6)                  1.0934                                         !
 ! R6    R(5,7)                  1.5562                                         !
 ! R7    R(5,8)                  1.5482                                         !
 ! R8    R(7,10)                 1.2462                                         !
 ! R9    R(7,19)                 1.318                                          !
 ! R10   R(8,9)                  1.1                                            !
 ! R11   R(8,11)                 1.5381                                         !
 ! R12   R(8,15)                 1.5394                                         !
 ! R13   R(11,12)                1.0972                                         !
 ! R14   R(11,13)                1.0938                                         !
 ! R15   R(11,14)                1.0915                                         !
 ! R16   R(15,16)                1.0964                                         !
 ! R17   R(15,17)                1.0986                                         !
 ! R18   R(15,18)                1.0937                                         !
 ! R19   R(19,20)                1.0233                                         !
 ! R20   R(19,21)                1.4668                                         !
 ! R21   R(21,22)                1.0926                                         !
 ! R22   R(21,23)                1.5427                                         !
 ! R23   R(21,24)                1.56                                           !
 ! R24   R(23,26)                1.2419                                         !
 ! R25   R(23,38)                1.3353                                         !
 ! R26   R(24,25)                1.0998                                         !
 ! R27   R(24,27)                1.5395                                         !
 ! R28   R(24,30)                1.5354                                         !
 ! R29   R(27,28)                1.0935                                         !
 ! R30   R(27,29)                1.0984                                         !
 ! R31   R(27,34)                1.5325                                         !
 ! R32   R(30,31)                1.0945                                         !
 ! R33   R(30,32)                1.0962                                         !
 ! R34   R(30,33)                1.0953                                         !
 ! R35   R(34,35)                1.0947                                         !
 ! R36   R(34,36)                1.0931                                         !
 ! R37   R(34,37)                1.0977                                         !
 ! R38   R(38,39)                1.0357                                         !
 ! R39   R(38,40)                1.4507                                         !
 ! R40   R(40,41)                1.0952                                         !
 ! R41   R(40,42)                1.5479                                         !
 ! R42   R(40,43)                1.5567                                         !
 ! R43   R(42,46)                1.2326                                         !
 ! R44   R(42,58)                1.3617                                         !
 ! R45   R(43,44)                1.0929                                         !
 ! R46   R(43,45)                1.0969                                         !
 ! R47   R(43,47)                1.5124                                         !
 ! R48   R(47,48)                1.4033                                         !
 ! R49   R(47,50)                1.4042                                         !
 ! R50   R(48,49)                1.0859                                         !
 ! R51   R(48,52)                1.3951                                         !
 ! R52   R(50,51)                1.0883                                         !
 ! R53   R(50,54)                1.3968                                         !
 ! R54   R(52,53)                1.0858                                         !
 ! R55   R(52,56)                1.3982                                         !
 ! R56   R(54,55)                1.0865                                         !
 ! R57   R(54,56)                1.3982                                         !
 ! R58   R(56,57)                1.0887                                         !
 ! R59   R(58,59)                1.0134                                         !
 ! R60   R(58,60)                1.4684                                         !
 ! R61   R(60,61)                1.0929                                         !
 ! R62   R(60,62)                1.54                                           !
 ! R63   R(60,63)                1.5287                                         !
 ! R64   R(62,66)                1.2479                                         !
 ! R65   R(62,77)                1.3472                                         !
 ! R66   R(63,64)                1.0967                                         !
 ! R67   R(63,65)                1.0974                                         !
 ! R68   R(63,67)                1.5412                                         !
 ! R69   R(67,68)                1.0994                                         !
 ! R70   R(67,69)                1.5356                                         !
 ! R71   R(67,73)                1.535                                          !
 ! R72   R(69,70)                1.0973                                         !
 ! R73   R(69,71)                1.0961                                         !
 ! R74   R(69,72)                1.0954                                         !
 ! R75   R(73,74)                1.0973                                         !
 ! R76   R(73,75)                1.0955                                         !
 ! R77   R(73,76)                1.0963                                         !
 ! R78   R(77,78)                1.017                                          !
 ! R79   R(77,79)                1.484                                          !
 ! R80   R(79,80)                1.1029                                         !
 ! R81   R(79,81)                1.5335                                         !
 ! R82   R(79,82)                1.5438                                         !
 ! R83   R(81,85)                1.2257                                         !
 ! R84   R(81,92)                1.3836                                         !
 ! R85   R(82,83)                1.0943                                         !
 ! R86   R(82,84)                1.0953                                         !
 ! R87   R(82,86)                1.5443                                         !
 ! R88   R(86,87)                1.0936                                         !
 ! R89   R(86,88)                1.0927                                         !
 ! R90   R(86,89)                1.5375                                         !
 ! R91   R(89,90)                1.2706                                         !
 ! R92   R(89,91)                1.2616                                         !
 ! R93   R(92,93)                1.0225                                         !
 ! R94   R(92,94)                1.4773                                         !
 ! R95   R(94,95)                1.0901                                         !
 ! R96   R(94,96)                1.5326                                         !
 ! R97   R(94,97)                1.5445                                         !
 ! R98   R(96,100)               1.2356                                         !
 ! R99   R(96,106)               1.3481                                         !
 ! R100  R(97,98)                1.096                                          !
 ! R101  R(97,99)                1.0902                                         !
 ! R102  R(97,101)               1.5306                                         !
 ! R103  R(101,102)              1.352                                          !
 ! R104  R(101,105)              1.2422                                         !
 ! R105  R(102,103)              1.0126                                         !
 ! R106  R(102,104)              1.0142                                         !
 ! R107  R(106,107)              1.0124                                         !
 ! R108  R(106,108)              1.4517                                         !
 ! R109  R(108,109)              1.0932                                         !
 ! R110  R(108,110)              1.5474                                         !
 ! R111  R(108,111)              1.5468                                         !
 ! R112  R(110,114)              1.2291                                         !
 ! R113  R(110,127)              1.359                                          !
 ! R114  R(111,112)              1.0953                                         !
 ! R115  R(111,113)              1.0963                                         !
 ! R116  R(111,115)              1.5126                                         !
 ! R117  R(115,116)              1.4005                                         !
 ! R118  R(115,118)              1.4028                                         !
 ! R119  R(116,117)              1.0873                                         !
 ! R120  R(116,120)              1.3928                                         !
 ! R121  R(118,119)              1.0881                                         !
 ! R122  R(118,122)              1.3953                                         !
 ! R123  R(120,121)              1.0847                                         !
 ! R124  R(120,126)              1.3956                                         !
 ! R125  R(122,123)              1.0887                                         !
 ! R126  R(122,126)              1.3974                                         !
 ! R127  R(124,125)              0.9705                                         !
 ! R128  R(124,126)              1.3806                                         !
 ! R129  R(127,128)              1.0131                                         !
 ! R130  R(127,129)              1.4599                                         !
 ! R131  R(129,130)              1.0909                                         !
 ! R132  R(129,131)              1.5271                                         !
 ! R133  R(129,132)              1.547                                          !
 ! R134  R(131,135)              1.2065                                         !
 ! R135  R(131,151)              1.3559                                         !
 ! R136  R(132,133)              1.0981                                         !
 ! R137  R(132,134)              1.0977                                         !
 ! R138  R(132,136)              1.5338                                         !
 ! R139  R(136,137)              1.0973                                         !
 ! R140  R(136,138)              1.0911                                         !
 ! R141  R(136,139)              1.535                                          !
 ! R142  R(139,140)              1.0956                                         !
 ! R143  R(139,141)              1.094                                          !
 ! R144  R(139,142)              1.4698                                         !
 ! R145  R(142,143)              1.0186                                         !
 ! R146  R(142,150)              1.3423                                         !
 ! R147  R(144,145)              1.0245                                         !
 ! R148  R(144,146)              1.0075                                         !
 ! R149  R(144,150)              1.3432                                         !
 ! R150  R(147,148)              1.0125                                         !
 ! R151  R(147,149)              1.0235                                         !
 ! R152  R(147,150)              1.3449                                         !
 ! R153  R(151,152)              0.9805                                         !
 ! A1    A(2,1,3)              108.7384                                         !
 ! A2    A(2,1,4)              108.7453                                         !
 ! A3    A(2,1,5)              113.1828                                         !
 ! A4    A(3,1,4)              112.1555                                         !
 ! A5    A(3,1,5)              100.2924                                         !
 ! A6    A(4,1,5)              113.4836                                         !
 ! A7    A(1,5,6)              108.6065                                         !
 ! A8    A(1,5,7)              101.0334                                         !
 ! A9    A(1,5,8)              110.2079                                         !
 ! A10   A(6,5,7)              111.8743                                         !
 ! A11   A(6,5,8)              110.4184                                         !
 ! A12   A(7,5,8)              114.2169                                         !
 ! A13   A(5,7,10)             116.6098                                         !
 ! A14   A(5,7,19)             117.168                                          !
 ! A15   A(10,7,19)            126.2222                                         !
 ! A16   A(5,8,9)              106.9827                                         !
 ! A17   A(5,8,11)             111.1406                                         !
 ! A18   A(5,8,15)             111.0806                                         !
 ! A19   A(9,8,11)             108.3486                                         !
 ! A20   A(9,8,15)             109.3633                                         !
 ! A21   A(11,8,15)            109.8324                                         !
 ! A22   A(8,11,12)            111.1847                                         !
 ! A23   A(8,11,13)            109.3043                                         !
 ! A24   A(8,11,14)            112.7621                                         !
 ! A25   A(12,11,13)           107.4355                                         !
 ! A26   A(12,11,14)           108.2003                                         !
 ! A27   A(13,11,14)           107.7589                                         !
 ! A28   A(8,15,16)            110.857                                          !
 ! A29   A(8,15,17)            114.1513                                         !
 ! A30   A(8,15,18)            109.801                                          !
 ! A31   A(16,15,17)           107.7837                                         !
 ! A32   A(16,15,18)           107.7937                                         !
 ! A33   A(17,15,18)           106.1679                                         !
 ! A34   A(7,19,20)            123.2415                                         !
 ! A35   A(7,19,21)            125.0416                                         !
 ! A36   A(20,19,21)           111.4848                                         !
 ! A37   A(19,21,22)           108.4899                                         !
 ! A38   A(19,21,23)           103.2691                                         !
 ! A39   A(19,21,24)           110.1806                                         !
 ! A40   A(22,21,23)           111.2442                                         !
 ! A41   A(22,21,24)           109.832                                          !
 ! A42   A(23,21,24)           113.5535                                         !
 ! A43   A(21,23,26)           118.8129                                         !
 ! A44   A(21,23,38)           116.3337                                         !
 ! A45   A(26,23,38)           124.8528                                         !
 ! A46   A(21,24,25)           104.243                                          !
 ! A47   A(21,24,27)           113.1918                                         !
 ! A48   A(21,24,30)           111.5903                                         !
 ! A49   A(25,24,27)           107.0605                                         !
 ! A50   A(25,24,30)           108.8595                                         !
 ! A51   A(27,24,30)           111.4548                                         !
 ! A52   A(24,27,28)           109.9592                                         !
 ! A53   A(24,27,29)           106.4735                                         !
 ! A54   A(24,27,34)           114.5701                                         !
 ! A55   A(28,27,29)           106.5098                                         !
 ! A56   A(28,27,34)           109.5646                                         !
 ! A57   A(29,27,34)           109.4202                                         !
 ! A58   A(24,30,31)           110.6426                                         !
 ! A59   A(24,30,32)           112.1408                                         !
 ! A60   A(24,30,33)           109.8806                                         !
 ! A61   A(31,30,32)           108.1015                                         !
 ! A62   A(31,30,33)           107.9945                                         !
 ! A63   A(32,30,33)           107.9477                                         !
 ! A64   A(27,34,35)           110.2664                                         !
 ! A65   A(27,34,36)           111.6856                                         !
 ! A66   A(27,34,37)           111.459                                          !
 ! A67   A(35,34,36)           106.0643                                         !
 ! A68   A(35,34,37)           107.9335                                         !
 ! A69   A(36,34,37)           109.222                                          !
 ! A70   A(23,38,39)           122.7141                                         !
 ! A71   A(23,38,40)           122.2126                                         !
 ! A72   A(39,38,40)           113.6987                                         !
 ! A73   A(38,40,41)           108.0791                                         !
 ! A74   A(38,40,42)           107.886                                          !
 ! A75   A(38,40,43)           106.6724                                         !
 ! A76   A(41,40,42)           106.59                                           !
 ! A77   A(41,40,43)           110.3969                                         !
 ! A78   A(42,40,43)           116.9194                                         !
 ! A79   A(40,42,46)           121.7903                                         !
 ! A80   A(40,42,58)           116.5354                                         !
 ! A81   A(46,42,58)           121.5768                                         !
 ! A82   A(40,43,44)           107.2838                                         !
 ! A83   A(40,43,45)           104.9                                            !
 ! A84   A(40,43,47)           119.2159                                         !
 ! A85   A(44,43,45)           107.0828                                         !
 ! A86   A(44,43,47)           108.8318                                         !
 ! A87   A(45,43,47)           108.9029                                         !
 ! A88   A(43,47,48)           119.0327                                         !
 ! A89   A(43,47,50)           122.1642                                         !
 ! A90   A(48,47,50)           118.7077                                         !
 ! A91   A(47,48,49)           118.1104                                         !
 ! A92   A(47,48,52)           120.6204                                         !
 ! A93   A(49,48,52)           121.2434                                         !
 ! A94   A(47,50,51)           119.5383                                         !
 ! A95   A(47,50,54)           120.7408                                         !
 ! A96   A(51,50,54)           119.6972                                         !
 ! A97   A(48,52,53)           118.8811                                         !
 ! A98   A(48,52,56)           120.1882                                         !
 ! A99   A(53,52,56)           120.9305                                         !
 ! A100  A(50,54,55)           119.9081                                         !
 ! A101  A(50,54,56)           119.9684                                         !
 ! A102  A(55,54,56)           120.102                                          !
 ! A103  A(52,56,54)           119.7053                                         !
 ! A104  A(52,56,57)           120.592                                          !
 ! A105  A(54,56,57)           119.6939                                         !
 ! A106  A(42,58,59)           118.7146                                         !
 ! A107  A(42,58,60)           121.5973                                         !
 ! A108  A(59,58,60)           117.4089                                         !
 ! A109  A(58,60,61)           106.7501                                         !
 ! A110  A(58,60,62)           105.9062                                         !
 ! A111  A(58,60,63)           110.2743                                         !
 ! A112  A(61,60,62)           109.7277                                         !
 ! A113  A(61,60,63)           110.8182                                         !
 ! A114  A(62,60,63)           113.0662                                         !
 ! A115  A(60,62,66)           120.8721                                         !
 ! A116  A(60,62,77)           115.812                                          !
 ! A117  A(66,62,77)           123.1093                                         !
 ! A118  A(60,63,64)           108.73                                           !
 ! A119  A(60,63,65)           107.8733                                         !
 ! A120  A(60,63,67)           114.6638                                         !
 ! A121  A(64,63,65)           106.5169                                         !
 ! A122  A(64,63,67)           109.2761                                         !
 ! A123  A(65,63,67)           109.4639                                         !
 ! A124  A(63,67,68)           107.9776                                         !
 ! A125  A(63,67,69)           112.0547                                         !
 ! A126  A(63,67,73)           109.8465                                         !
 ! A127  A(68,67,69)           107.9295                                         !
 ! A128  A(68,67,73)           107.7191                                         !
 ! A129  A(69,67,73)           111.1462                                         !
 ! A130  A(67,69,70)           110.6814                                         !
 ! A131  A(67,69,71)           112.351                                          !
 ! A132  A(67,69,72)           110.7413                                         !
 ! A133  A(70,69,71)           107.8446                                         !
 ! A134  A(70,69,72)           107.7018                                         !
 ! A135  A(71,69,72)           107.3295                                         !
 ! A136  A(67,73,74)           110.7943                                         !
 ! A137  A(67,73,75)           111.0243                                         !
 ! A138  A(67,73,76)           111.2028                                         !
 ! A139  A(74,73,75)           107.6895                                         !
 ! A140  A(74,73,76)           107.9674                                         !
 ! A141  A(75,73,76)           108.0194                                         !
 ! A142  A(62,77,78)           113.0609                                         !
 ! A143  A(62,77,79)           123.9322                                         !
 ! A144  A(78,77,79)           112.2885                                         !
 ! A145  A(77,79,80)           106.1629                                         !
 ! A146  A(77,79,81)           119.0914                                         !
 ! A147  A(77,79,82)           110.2543                                         !
 ! A148  A(80,79,81)           101.0578                                         !
 ! A149  A(80,79,82)           107.361                                          !
 ! A150  A(81,79,82)           111.7377                                         !
 ! A151  A(79,81,85)           119.4788                                         !
 ! A152  A(79,81,92)           117.3981                                         !
 ! A153  A(85,81,92)           122.0761                                         !
 ! A154  A(79,82,83)           109.5852                                         !
 ! A155  A(79,82,84)           109.103                                          !
 ! A156  A(79,82,86)           112.294                                          !
 ! A157  A(83,82,84)           107.9774                                         !
 ! A158  A(83,82,86)           109.8447                                         !
 ! A159  A(84,82,86)           107.9261                                         !
 ! A160  A(82,86,87)           108.6938                                         !
 ! A161  A(82,86,88)           109.028                                          !
 ! A162  A(82,86,89)           109.7507                                         !
 ! A163  A(87,86,88)           109.079                                          !
 ! A164  A(87,86,89)           109.7093                                         !
 ! A165  A(88,86,89)           110.5469                                         !
 ! A166  A(86,89,90)           116.398                                          !
 ! A167  A(86,89,91)           117.3467                                         !
 ! A168  A(90,89,91)           126.1232                                         !
 ! A169  A(81,92,93)           112.3159                                         !
 ! A170  A(81,92,94)           114.6604                                         !
 ! A171  A(93,92,94)           110.7147                                         !
 ! A172  A(92,94,95)           107.0791                                         !
 ! A173  A(92,94,96)           102.8072                                         !
 ! A174  A(92,94,97)           111.7624                                         !
 ! A175  A(95,94,96)           111.1443                                         !
 ! A176  A(95,94,97)           110.856                                          !
 ! A177  A(96,94,97)           112.7966                                         !
 ! A178  A(94,96,100)          120.6195                                         !
 ! A179  A(94,96,106)          116.0913                                         !
 ! A180  A(100,96,106)         123.1181                                         !
 ! A181  A(94,97,98)           108.9875                                         !
 ! A182  A(94,97,99)           109.4847                                         !
 ! A183  A(94,97,101)          117.6943                                         !
 ! A184  A(98,97,99)           106.0212                                         !
 ! A185  A(98,97,101)          107.3916                                         !
 ! A186  A(99,97,101)          106.643                                          !
 ! A187  A(97,101,102)         118.3106                                         !
 ! A188  A(97,101,105)         119.9417                                         !
 ! A189  A(102,101,105)        121.5192                                         !
 ! A190  A(101,102,103)        115.7916                                         !
 ! A191  A(101,102,104)        122.0993                                         !
 ! A192  A(103,102,104)        113.0188                                         !
 ! A193  A(96,106,107)         119.7968                                         !
 ! A194  A(96,106,108)         119.4649                                         !
 ! A195  A(107,106,108)        120.0343                                         !
 ! A196  A(106,108,109)        108.1071                                         !
 ! A197  A(106,108,110)        107.6287                                         !
 ! A198  A(106,108,111)        111.6367                                         !
 ! A199  A(109,108,110)        108.9162                                         !
 ! A200  A(109,108,111)        107.2561                                         !
 ! A201  A(110,108,111)        113.1649                                         !
 ! A202  A(108,110,114)        122.4105                                         !
 ! A203  A(108,110,127)        114.2339                                         !
 ! A204  A(114,110,127)        123.3169                                         !
 ! A205  A(108,111,112)        106.5832                                         !
 ! A206  A(108,111,113)        109.6037                                         !
 ! A207  A(108,111,115)        108.4663                                         !
 ! A208  A(112,111,113)        109.5283                                         !
 ! A209  A(112,111,115)        111.089                                          !
 ! A210  A(113,111,115)        111.438                                          !
 ! A211  A(111,115,116)        121.0393                                         !
 ! A212  A(111,115,118)        119.333                                          !
 ! A213  A(116,115,118)        118.6973                                         !
 ! A214  A(115,116,117)        119.6178                                         !
 ! A215  A(115,116,120)        121.2269                                         !
 ! A216  A(117,116,120)        119.0602                                         !
 ! A217  A(115,118,119)        119.0692                                         !
 ! A218  A(115,118,122)        120.4791                                         !
 ! A219  A(119,118,122)        120.3828                                         !
 ! A220  A(116,120,121)        121.4353                                         !
 ! A221  A(116,120,126)        119.1667                                         !
 ! A222  A(121,120,126)        119.254                                          !
 ! A223  A(118,122,123)        120.0138                                         !
 ! A224  A(118,122,126)        119.7008                                         !
 ! A225  A(123,122,126)        120.2265                                         !
 ! A226  A(125,124,126)        109.0384                                         !
 ! A227  A(120,126,122)        120.4605                                         !
 ! A228  A(120,126,124)        116.9412                                         !
 ! A229  A(122,126,124)        122.4651                                         !
 ! A230  A(110,127,128)        119.3487                                         !
 ! A231  A(110,127,129)        122.9108                                         !
 ! A232  A(128,127,129)        117.3882                                         !
 ! A233  A(127,129,130)        107.406                                          !
 ! A234  A(127,129,131)        108.0107                                         !
 ! A235  A(127,129,132)        111.0012                                         !
 ! A236  A(130,129,131)        107.2523                                         !
 ! A237  A(130,129,132)        110.2491                                         !
 ! A238  A(131,129,132)        112.7029                                         !
 ! A239  A(129,131,135)        125.2467                                         !
 ! A240  A(129,131,151)        110.5966                                         !
 ! A241  A(135,131,151)        124.1314                                         !
 ! A242  A(129,132,133)        108.1831                                         !
 ! A243  A(129,132,134)        109.0053                                         !
 ! A244  A(129,132,136)        110.8393                                         !
 ! A245  A(133,132,134)        107.0246                                         !
 ! A246  A(133,132,136)        110.1505                                         !
 ! A247  A(134,132,136)        111.5058                                         !
 ! A248  A(132,136,137)        109.9658                                         !
 ! A249  A(132,136,138)        109.3173                                         !
 ! A250  A(132,136,139)        114.3867                                         !
 ! A251  A(137,136,138)        105.8755                                         !
 ! A252  A(137,136,139)        109.2757                                         !
 ! A253  A(138,136,139)        107.6517                                         !
 ! A254  A(136,139,140)        111.3655                                         !
 ! A255  A(136,139,141)        112.0703                                         !
 ! A256  A(136,139,142)        111.855                                          !
 ! A257  A(140,139,141)        105.5396                                         !
 ! A258  A(140,139,142)        108.6851                                         !
 ! A259  A(141,139,142)        107.0153                                         !
 ! A260  A(139,142,143)        115.6097                                         !
 ! A261  A(139,142,150)        124.1814                                         !
 ! A262  A(143,142,150)        113.5778                                         !
 ! A263  A(145,144,146)        113.6894                                         !
 ! A264  A(145,144,150)        114.8902                                         !
 ! A265  A(146,144,150)        119.0662                                         !
 ! A266  A(148,147,149)        116.9144                                         !
 ! A267  A(148,147,150)        115.8726                                         !
 ! A268  A(149,147,150)        115.5684                                         !
 ! A269  A(142,150,144)        122.6707                                         !
 ! A270  A(142,150,147)        118.9132                                         !
 ! A271  A(144,150,147)        118.1333                                         !
 ! A272  A(131,151,152)        108.1004                                         !
 ! D1    D(2,1,5,6)             20.8921                                         !
 ! D2    D(2,1,5,7)            -96.8937                                         !
 ! D3    D(2,1,5,8)            141.9684                                         !
 ! D4    D(3,1,5,6)            136.5469                                         !
 ! D5    D(3,1,5,7)             18.7612                                         !
 ! D6    D(3,1,5,8)           -102.3767                                         !
 ! D7    D(4,1,5,6)           -103.6646                                         !
 ! D8    D(4,1,5,7)            138.5497                                         !
 ! D9    D(4,1,5,8)             17.4117                                         !
 ! D10   D(1,5,7,10)           -20.0515                                         !
 ! D11   D(1,5,7,19)           159.9914                                         !
 ! D12   D(6,5,7,10)          -135.4289                                         !
 ! D13   D(6,5,7,19)            44.614                                          !
 ! D14   D(8,5,7,10)            98.2161                                         !
 ! D15   D(8,5,7,19)           -81.741                                          !
 ! D16   D(1,5,8,9)             56.9885                                         !
 ! D17   D(1,5,8,11)           175.0874                                         !
 ! D18   D(1,5,8,15)           -62.3038                                         !
 ! D19   D(6,5,8,9)            176.9762                                         !
 ! D20   D(6,5,8,11)           -64.9249                                         !
 ! D21   D(6,5,8,15)            57.6839                                         !
 ! D22   D(7,5,8,9)            -55.9142                                         !
 ! D23   D(7,5,8,11)            62.1847                                         !
 ! D24   D(7,5,8,15)          -175.2065                                         !
 ! D25   D(5,7,19,20)            2.2249                                         !
 ! D26   D(5,7,19,21)          176.2119                                         !
 ! D27   D(10,7,19,20)        -177.7275                                         !
 ! D28   D(10,7,19,21)          -3.7405                                         !
 ! D29   D(5,8,11,12)           58.123                                          !
 ! D30   D(5,8,11,13)          176.5637                                         !
 ! D31   D(5,8,11,14)          -63.6048                                         !
 ! D32   D(9,8,11,12)          175.3928                                         !
 ! D33   D(9,8,11,13)          -66.1665                                         !
 ! D34   D(9,8,11,14)           53.665                                          !
 ! D35   D(15,8,11,12)         -65.2036                                         !
 ! D36   D(15,8,11,13)          53.2371                                         !
 ! D37   D(15,8,11,14)         173.0685                                         !
 ! D38   D(5,8,15,16)          -61.4982                                         !
 ! D39   D(5,8,15,17)           60.4421                                         !
 ! D40   D(5,8,15,18)          179.5059                                         !
 ! D41   D(9,8,15,16)         -179.3556                                         !
 ! D42   D(9,8,15,17)          -57.4153                                         !
 ! D43   D(9,8,15,18)           61.6485                                         !
 ! D44   D(11,8,15,16)          61.8637                                         !
 ! D45   D(11,8,15,17)        -176.196                                          !
 ! D46   D(11,8,15,18)         -57.1322                                         !
 ! D47   D(7,19,21,22)         -37.747                                          !
 ! D48   D(7,19,21,23)        -155.8725                                         !
 ! D49   D(7,19,21,24)          82.5202                                         !
 ! D50   D(20,19,21,22)        136.8503                                         !
 ! D51   D(20,19,21,23)         18.7248                                         !
 ! D52   D(20,19,21,24)       -102.8825                                         !
 ! D53   D(19,21,23,26)        -21.2722                                         !
 ! D54   D(19,21,23,38)        158.4443                                         !
 ! D55   D(22,21,23,26)       -137.4572                                         !
 ! D56   D(22,21,23,38)         42.2593                                         !
 ! D57   D(24,21,23,26)         98.0327                                         !
 ! D58   D(24,21,23,38)        -82.2508                                         !
 ! D59   D(19,21,24,25)        -45.0287                                         !
 ! D60   D(19,21,24,27)       -161.0081                                         !
 ! D61   D(19,21,24,30)         72.3014                                         !
 ! D62   D(22,21,24,25)         74.4262                                         !
 ! D63   D(22,21,24,27)        -41.5532                                         !
 ! D64   D(22,21,24,30)       -168.2437                                         !
 ! D65   D(23,21,24,25)       -160.305                                          !
 ! D66   D(23,21,24,27)         83.7156                                         !
 ! D67   D(23,21,24,30)        -42.9749                                         !
 ! D68   D(21,23,38,39)          3.4329                                         !
 ! D69   D(21,23,38,40)        169.2003                                         !
 ! D70   D(26,23,38,39)       -176.8697                                         !
 ! D71   D(26,23,38,40)        -11.1024                                         !
 ! D72   D(21,24,27,28)        -61.8011                                         !
 ! D73   D(21,24,27,29)       -176.8046                                         !
 ! D74   D(21,24,27,34)         62.1013                                         !
 ! D75   D(25,24,27,28)       -176.098                                          !
 ! D76   D(25,24,27,29)         68.8985                                         !
 ! D77   D(25,24,27,34)        -52.1956                                         !
 ! D78   D(30,24,27,28)         64.961                                          !
 ! D79   D(30,24,27,29)        -50.0424                                         !
 ! D80   D(30,24,27,34)       -171.1366                                         !
 ! D81   D(21,24,30,31)         70.9884                                         !
 ! D82   D(21,24,30,32)        -49.791                                          !
 ! D83   D(21,24,30,33)       -169.8504                                         !
 ! D84   D(25,24,30,31)       -174.5057                                         !
 ! D85   D(25,24,30,32)         64.7149                                         !
 ! D86   D(25,24,30,33)        -55.3445                                         !
 ! D87   D(27,24,30,31)        -56.6432                                         !
 ! D88   D(27,24,30,32)       -177.4226                                         !
 ! D89   D(27,24,30,33)         62.518                                          !
 ! D90   D(24,27,34,35)        166.8395                                         !
 ! D91   D(24,27,34,36)        -75.497                                          !
 ! D92   D(24,27,34,37)         46.9832                                         !
 ! D93   D(28,27,34,35)        -69.048                                          !
 ! D94   D(28,27,34,36)         48.6156                                         !
 ! D95   D(28,27,34,37)        171.0957                                         !
 ! D96   D(29,27,34,35)         47.3804                                         !
 ! D97   D(29,27,34,36)        165.0439                                         !
 ! D98   D(29,27,34,37)        -72.4759                                         !
 ! D99   D(23,38,40,41)         21.1894                                         !
 ! D100  D(23,38,40,42)        -93.7055                                         !
 ! D101  D(23,38,40,43)        139.9061                                         !
 ! D102  D(39,38,40,41)       -171.8671                                         !
 ! D103  D(39,38,40,42)         73.238                                          !
 ! D104  D(39,38,40,43)        -53.1505                                         !
 ! D105  D(38,40,42,46)          4.7946                                         !
 ! D106  D(38,40,42,58)       -178.7446                                         !
 ! D107  D(41,40,42,46)       -111.0798                                         !
 ! D108  D(41,40,42,58)         65.381                                          !
 ! D109  D(43,40,42,46)        124.925                                          !
 ! D110  D(43,40,42,58)        -58.6143                                         !
 ! D111  D(38,40,43,44)         50.0367                                         !
 ! D112  D(38,40,43,45)        -63.6128                                         !
 ! D113  D(38,40,43,47)        174.1853                                         !
 ! D114  D(41,40,43,44)        167.2291                                         !
 ! D115  D(41,40,43,45)         53.5795                                         !
 ! D116  D(41,40,43,47)        -68.6223                                         !
 ! D117  D(42,40,43,44)        -70.7357                                         !
 ! D118  D(42,40,43,45)        175.6147                                         !
 ! D119  D(42,40,43,47)         53.4129                                         !
 ! D120  D(40,42,58,59)         14.8855                                         !
 ! D121  D(40,42,58,60)        177.2923                                         !
 ! D122  D(46,42,58,59)       -168.6456                                         !
 ! D123  D(46,42,58,60)         -6.2387                                         !
 ! D124  D(40,43,47,48)       -109.7985                                         !
 ! D125  D(40,43,47,50)         73.8018                                         !
 ! D126  D(44,43,47,48)         13.5953                                         !
 ! D127  D(44,43,47,50)       -162.8044                                         !
 ! D128  D(45,43,47,48)        130.0088                                         !
 ! D129  D(45,43,47,50)        -46.3909                                         !
 ! D130  D(43,47,48,49)          4.4213                                         !
 ! D131  D(43,47,48,52)       -173.7515                                         !
 ! D132  D(50,47,48,49)       -179.0534                                         !
 ! D133  D(50,47,48,52)          2.7737                                         !
 ! D134  D(43,47,50,51)         -3.6082                                         !
 ! D135  D(43,47,50,54)        174.6169                                         !
 ! D136  D(48,47,50,51)        179.9808                                         !
 ! D137  D(48,47,50,54)         -1.794                                          !
 ! D138  D(47,48,52,53)        178.4901                                         !
 ! D139  D(47,48,52,56)         -1.362                                          !
 ! D140  D(49,48,52,53)          0.3751                                         !
 ! D141  D(49,48,52,56)       -179.477                                          !
 ! D142  D(47,50,54,55)       -178.9145                                         !
 ! D143  D(47,50,54,56)         -0.6012                                         !
 ! D144  D(51,50,54,55)         -0.6921                                         !
 ! D145  D(51,50,54,56)        177.6212                                         !
 ! D146  D(48,52,56,54)         -1.0751                                         !
 ! D147  D(48,52,56,57)        177.8485                                         !
 ! D148  D(53,52,56,54)        179.0759                                         !
 ! D149  D(53,52,56,57)         -2.0006                                         !
 ! D150  D(50,54,56,52)          2.0469                                         !
 ! D151  D(50,54,56,57)       -176.8864                                         !
 ! D152  D(55,54,56,52)       -179.6431                                         !
 ! D153  D(55,54,56,57)          1.4236                                         !
 ! D154  D(42,58,60,61)         39.3349                                         !
 ! D155  D(42,58,60,62)        -77.557                                          !
 ! D156  D(42,58,60,63)        159.7886                                         !
 ! D157  D(59,58,60,61)       -158.039                                          !
 ! D158  D(59,58,60,62)         85.0691                                         !
 ! D159  D(59,58,60,63)        -37.5852                                         !
 ! D160  D(58,60,62,66)        -91.9524                                         !
 ! D161  D(58,60,62,77)         82.9818                                         !
 ! D162  D(61,60,62,66)        153.1784                                         !
 ! D163  D(61,60,62,77)        -31.8874                                         !
 ! D164  D(63,60,62,66)         28.9096                                         !
 ! D165  D(63,60,62,77)       -156.1562                                         !
 ! D166  D(58,60,63,64)         56.9755                                         !
 ! D167  D(58,60,63,65)        -58.1599                                         !
 ! D168  D(58,60,63,67)        179.6092                                         !
 ! D169  D(61,60,63,64)        174.9546                                         !
 ! D170  D(61,60,63,65)         59.8191                                         !
 ! D171  D(61,60,63,67)        -62.4118                                         !
 ! D172  D(62,60,63,64)        -61.3745                                         !
 ! D173  D(62,60,63,65)       -176.5099                                         !
 ! D174  D(62,60,63,67)         61.2592                                         !
 ! D175  D(60,62,77,78)         -1.6739                                         !
 ! D176  D(60,62,77,79)       -143.2327                                         !
 ! D177  D(66,62,77,78)        173.1348                                         !
 ! D178  D(66,62,77,79)         31.576                                          !
 ! D179  D(60,63,67,68)        -51.3598                                         !
 ! D180  D(60,63,67,69)         67.3689                                         !
 ! D181  D(60,63,67,73)       -168.5726                                         !
 ! D182  D(64,63,67,68)         70.9785                                         !
 ! D183  D(64,63,67,69)       -170.2928                                         !
 ! D184  D(64,63,67,73)        -46.2344                                         !
 ! D185  D(65,63,67,68)       -172.7238                                         !
 ! D186  D(65,63,67,69)        -53.9951                                         !
 ! D187  D(65,63,67,73)         70.0633                                         !
 ! D188  D(63,67,69,70)         60.3068                                         !
 ! D189  D(63,67,69,71)        -60.3148                                         !
 ! D190  D(63,67,69,72)        179.6792                                         !
 ! D191  D(68,67,69,70)        179.0639                                         !
 ! D192  D(68,67,69,71)         58.4423                                         !
 ! D193  D(68,67,69,72)        -61.5637                                         !
 ! D194  D(73,67,69,70)        -63.023                                          !
 ! D195  D(73,67,69,71)        176.3554                                         !
 ! D196  D(73,67,69,72)         56.3494                                         !
 ! D197  D(63,67,73,74)        -61.0529                                         !
 ! D198  D(63,67,73,75)        179.3321                                         !
 ! D199  D(63,67,73,76)         59.0296                                         !
 ! D200  D(68,67,73,74)       -178.4271                                         !
 ! D201  D(68,67,73,75)         61.9579                                         !
 ! D202  D(68,67,73,76)        -58.3446                                         !
 ! D203  D(69,67,73,74)         63.5324                                         !
 ! D204  D(69,67,73,75)        -56.0825                                         !
 ! D205  D(69,67,73,76)       -176.385                                          !
 ! D206  D(62,77,79,80)         33.4032                                         !
 ! D207  D(62,77,79,81)        -79.5375                                         !
 ! D208  D(62,77,79,82)        149.3855                                         !
 ! D209  D(78,77,79,80)       -108.4106                                         !
 ! D210  D(78,77,79,81)        138.6487                                         !
 ! D211  D(78,77,79,82)          7.5717                                         !
 ! D212  D(77,79,81,85)       -155.6254                                         !
 ! D213  D(77,79,81,92)         35.8292                                         !
 ! D214  D(80,79,81,85)         88.6964                                         !
 ! D215  D(80,79,81,92)        -79.849                                          !
 ! D216  D(82,79,81,85)        -25.2092                                         !
 ! D217  D(82,79,81,92)        166.2454                                         !
 ! D218  D(77,79,82,83)         98.074                                          !
 ! D219  D(77,79,82,84)        -19.9545                                         !
 ! D220  D(77,79,82,86)       -139.5613                                         !
 ! D221  D(80,79,82,83)       -146.6967                                         !
 ! D222  D(80,79,82,84)         95.2748                                         !
 ! D223  D(80,79,82,86)        -24.332                                          !
 ! D224  D(81,79,82,83)        -36.7596                                         !
 ! D225  D(81,79,82,84)       -154.7881                                         !
 ! D226  D(81,79,82,86)         85.6051                                         !
 ! D227  D(79,81,92,93)          4.6518                                         !
 ! D228  D(79,81,92,94)        132.181                                          !
 ! D229  D(85,81,92,93)       -163.5757                                         !
 ! D230  D(85,81,92,94)        -36.0464                                         !
 ! D231  D(79,82,86,87)       -177.9305                                         !
 ! D232  D(79,82,86,88)        -59.1332                                         !
 ! D233  D(79,82,86,89)         62.0846                                         !
 ! D234  D(83,82,86,87)        -55.713                                          !
 ! D235  D(83,82,86,88)         63.0843                                         !
 ! D236  D(83,82,86,89)       -175.6979                                         !
 ! D237  D(84,82,86,87)         61.7787                                         !
 ! D238  D(84,82,86,88)       -179.424                                          !
 ! D239  D(84,82,86,89)        -58.2062                                         !
 ! D240  D(82,86,89,90)        -84.4394                                         !
 ! D241  D(82,86,89,91)         91.6399                                         !
 ! D242  D(87,86,89,90)        156.1963                                         !
 ! D243  D(87,86,89,91)        -27.7243                                         !
 ! D244  D(88,86,89,90)         35.8601                                         !
 ! D245  D(88,86,89,91)       -148.0606                                         !
 ! D246  D(81,92,94,95)         42.2938                                         !
 ! D247  D(81,92,94,96)        -74.8891                                         !
 ! D248  D(81,92,94,97)        163.8732                                         !
 ! D249  D(93,92,94,95)        170.6329                                         !
 ! D250  D(93,92,94,96)         53.4501                                         !
 ! D251  D(93,92,94,97)        -67.7877                                         !
 ! D252  D(92,94,96,100)       -80.2833                                         !
 ! D253  D(92,94,96,106)        95.107                                          !
 ! D254  D(95,94,96,100)       165.4587                                         !
 ! D255  D(95,94,96,106)       -19.151                                          !
 ! D256  D(97,94,96,100)        40.2459                                         !
 ! D257  D(97,94,96,106)      -144.3638                                         !
 ! D258  D(92,94,97,98)       -101.4563                                         !
 ! D259  D(92,94,97,99)         14.0969                                         !
 ! D260  D(92,94,97,101)       136.0232                                         !
 ! D261  D(95,94,97,98)         17.9168                                         !
 ! D262  D(95,94,97,99)        133.47                                           !
 ! D263  D(95,94,97,101)      -104.6037                                         !
 ! D264  D(96,94,97,98)        143.286                                          !
 ! D265  D(96,94,97,99)       -101.1609                                         !
 ! D266  D(96,94,97,101)        20.7655                                         !
 ! D267  D(94,96,106,107)       -5.8204                                         !
 ! D268  D(94,96,106,108)     -176.212                                          !
 ! D269  D(100,96,106,107)     169.4429                                         !
 ! D270  D(100,96,106,108)      -0.9488                                         !
 ! D271  D(94,97,101,102)       48.365                                          !
 ! D272  D(94,97,101,105)     -137.0424                                         !
 ! D273  D(98,97,101,102)      -74.9653                                         !
 ! D274  D(98,97,101,105)       99.6273                                         !
 ! D275  D(99,97,101,102)      171.7381                                         !
 ! D276  D(99,97,101,105)      -13.6693                                         !
 ! D277  D(97,101,102,103)    -172.4795                                         !
 ! D278  D(97,101,102,104)     -27.8132                                         !
 ! D279  D(105,101,102,103)     13.0174                                         !
 ! D280  D(105,101,102,104)    157.6837                                         !
 ! D281  D(96,106,108,109)      58.1254                                         !
 ! D282  D(96,106,108,110)     -59.3772                                         !
 ! D283  D(96,106,108,111)     175.8657                                         !
 ! D284  D(107,106,108,109)   -112.243                                          !
 ! D285  D(107,106,108,110)    130.2544                                         !
 ! D286  D(107,106,108,111)      5.4972                                         !
 ! D287  D(106,108,110,114)    -30.7271                                         !
 ! D288  D(106,108,110,127)    147.0805                                         !
 ! D289  D(109,108,110,114)   -147.7035                                         !
 ! D290  D(109,108,110,127)     30.1041                                         !
 ! D291  D(111,108,110,114)     93.1065                                         !
 ! D292  D(111,108,110,127)    -89.0859                                         !
 ! D293  D(106,108,111,112)    -58.6008                                         !
 ! D294  D(106,108,111,113)     59.8433                                         !
 ! D295  D(106,108,111,115)   -178.2876                                         !
 ! D296  D(109,108,111,112)     59.6497                                         !
 ! D297  D(109,108,111,113)    178.0938                                         !
 ! D298  D(109,108,111,115)    -60.0371                                         !
 ! D299  D(110,108,111,112)    179.7916                                         !
 ! D300  D(110,108,111,113)    -61.7643                                         !
 ! D301  D(110,108,111,115)     60.1047                                         !
 ! D302  D(108,110,127,128)      8.9173                                         !
 ! D303  D(108,110,127,129)   -178.0802                                         !
 ! D304  D(114,110,127,128)   -173.2977                                         !
 ! D305  D(114,110,127,129)     -0.2952                                         !
 ! D306  D(108,111,115,116)    -96.326                                          !
 ! D307  D(108,111,115,118)     72.4919                                         !
 ! D308  D(112,111,115,116)    146.8479                                         !
 ! D309  D(112,111,115,118)    -44.3342                                         !
 ! D310  D(113,111,115,116)     24.414                                          !
 ! D311  D(113,111,115,118)   -166.7681                                         !
 ! D312  D(111,115,116,117)    -11.1453                                         !
 ! D313  D(111,115,116,120)    165.2769                                         !
 ! D314  D(118,115,116,117)    179.9673                                         !
 ! D315  D(118,115,116,120)     -3.6105                                         !
 ! D316  D(111,115,118,119)     12.2181                                         !
 ! D317  D(111,115,118,122)   -164.7761                                         !
 ! D318  D(116,115,118,119)   -178.7013                                         !
 ! D319  D(116,115,118,122)      4.3045                                         !
 ! D320  D(115,116,120,121)   -176.457                                          !
 ! D321  D(115,116,120,126)     -0.8513                                         !
 ! D322  D(117,116,120,121)     -0.0152                                         !
 ! D323  D(117,116,120,126)    175.5904                                         !
 ! D324  D(115,118,122,123)    176.658                                          !
 ! D325  D(115,118,122,126)     -0.5569                                         !
 ! D326  D(119,118,122,123)     -0.2965                                         !
 ! D327  D(119,118,122,126)   -177.5115                                         !
 ! D328  D(116,120,126,122)      4.7033                                         !
 ! D329  D(116,120,126,124)   -171.2029                                         !
 ! D330  D(121,120,126,122)   -179.594                                          !
 ! D331  D(121,120,126,124)      4.4998                                         !
 ! D332  D(118,122,126,120)     -4.0159                                         !
 ! D333  D(118,122,126,124)    171.6582                                         !
 ! D334  D(123,122,126,120)    178.7752                                         !
 ! D335  D(123,122,126,124)     -5.5507                                         !
 ! D336  D(125,124,126,120)   -171.562                                          !
 ! D337  D(125,124,126,122)     12.6206                                         !
 ! D338  D(110,127,129,130)    -18.3293                                         !
 ! D339  D(110,127,129,131)   -133.7177                                         !
 ! D340  D(110,127,129,132)    102.2592                                         !
 ! D341  D(128,127,129,130)    154.802                                          !
 ! D342  D(128,127,129,131)     39.4135                                         !
 ! D343  D(128,127,129,132)    -84.6096                                         !
 ! D344  D(127,129,131,135)    119.6698                                         !
 ! D345  D(127,129,131,151)    -58.5607                                         !
 ! D346  D(130,129,131,135)      4.1806                                         !
 ! D347  D(130,129,131,151)   -174.05                                           !
 ! D348  D(132,129,131,135)   -117.3377                                         !
 ! D349  D(132,129,131,151)     64.4317                                         !
 ! D350  D(127,129,132,133)     63.8706                                         !
 ! D351  D(127,129,132,134)    179.9152                                         !
 ! D352  D(127,129,132,136)    -56.9933                                         !
 ! D353  D(130,129,132,133)   -177.2379                                         !
 ! D354  D(130,129,132,134)    -61.1934                                         !
 ! D355  D(130,129,132,136)     61.8981                                         !
 ! D356  D(131,129,132,133)    -57.436                                          !
 ! D357  D(131,129,132,134)     58.6085                                         !
 ! D358  D(131,129,132,136)   -178.2999                                         !
 ! D359  D(129,131,151,152)    166.2098                                         !
 ! D360  D(135,131,151,152)    -12.0445                                         !
 ! D361  D(129,132,136,137)    -65.0459                                         !
 ! D362  D(129,132,136,138)     50.7871                                         !
 ! D363  D(129,132,136,139)    171.5648                                         !
 ! D364  D(133,132,136,137)    175.2615                                         !
 ! D365  D(133,132,136,138)    -68.9055                                         !
 ! D366  D(133,132,136,139)     51.8722                                         !
 ! D367  D(134,132,136,137)     56.5894                                         !
 ! D368  D(134,132,136,138)    172.4224                                         !
 ! D369  D(134,132,136,139)    -66.7999                                         !
 ! D370  D(132,136,139,140)    -41.5925                                         !
 ! D371  D(132,136,139,141)     76.3792                                         !
 ! D372  D(132,136,139,142)   -163.4328                                         !
 ! D373  D(137,136,139,140)   -165.3525                                         !
 ! D374  D(137,136,139,141)    -47.3808                                         !
 ! D375  D(137,136,139,142)     72.8073                                         !
 ! D376  D(138,136,139,140)     80.1032                                         !
 ! D377  D(138,136,139,141)   -161.9251                                         !
 ! D378  D(138,136,139,142)    -41.737                                          !
 ! D379  D(136,139,142,143)    -68.0102                                         !
 ! D380  D(136,139,142,150)     81.4995                                         !
 ! D381  D(140,139,142,143)    168.6221                                         !
 ! D382  D(140,139,142,150)    -41.8683                                         !
 ! D383  D(141,139,142,143)     55.0907                                         !
 ! D384  D(141,139,142,150)   -155.3997                                         !
 ! D385  D(139,142,150,144)     18.4957                                         !
 ! D386  D(139,142,150,147)   -167.732                                          !
 ! D387  D(143,142,150,144)    168.5471                                         !
 ! D388  D(143,142,150,147)    -17.6806                                         !
 ! D389  D(145,144,150,142)   -153.6986                                         !
 ! D390  D(145,144,150,147)     32.4829                                         !
 ! D391  D(146,144,150,142)    -13.8249                                         !
 ! D392  D(146,144,150,147)    172.3567                                         !
 ! D393  D(148,147,150,142)    168.4621                                         !
 ! D394  D(148,147,150,144)    -17.4815                                         !
 ! D395  D(149,147,150,142)     26.3011                                         !
 ! D396  D(149,147,150,144)   -159.6425                                         !
 --------------------------------------------------------------------------------
 Symmetry turned off by external request.
 Stoichiometry    C50H77N12O13(1+)
 Framework group  C1[X(C50H77N12O13)]
 Deg. of freedom   450
 Full point group                 C1      NOp   1
                          Input orientation:                          
 ---------------------------------------------------------------------
 Center     Atomic      Atomic             Coordinates (Angstroms)
 Number     Number       Type             X           Y           Z
 ---------------------------------------------------------------------
      1          7           0       -5.842537   -1.676184    7.421031
[...]
 Alpha virt. eigenvalues --    1.90162   1.90827   1.91079   1.91320   1.91578
 Alpha virt. eigenvalues --    1.91734   1.91936   1.92215   1.92356   1.92623
 Alpha virt. eigenvalues --    1.92696   1.93132   1.93401   1.93704   1.93964
 Alpha virt. eigenvalues --    1.94196   1.94467   1.95025   1.95307   1.95840
 Alpha virt. eigenvalues --    1.96086   1.96127   1.96650   1.97037   1.97142
 Alpha virt. eigenvalues --    1.97341   1.97590   1.98010   1.98277   1.98646
 Alpha virt. eigenvalues --    1.98976   1.99265   1.99450   1.99779   1.99923
 Alpha virt. eigenvalues --    2.00588   2.00683   2.01014   2.01324   2.01434
 Alpha virt. eigenvalues --    2.01920   2.02194   2.02704   2.02842   2.03091
 Alpha virt. eigenvalues --    2.03452   2.03744   2.04161   2.04271   2.04632
 Alpha virt. eigenvalues --    2.04929   2.05195   2.06226   2.06325   2.06758
 Alpha virt. eigenvalues --    2.06834   2.07593   2.08045   2.08380   2.08871
 Alpha virt. eigenvalues --    2.09065   2.09398   2.09689   2.10188   2.10315
 Alpha virt. eigenvalues --    2.10899   2.11200   2.11337   2.12027   2.12412
 Alpha virt. eigenvalues --    2.12953   2.13151   2.13306   2.13532   2.13936
 Alpha virt. eigenvalues --    2.14286   2.14584   2.15106   2.15509   2.15985
 Alpha virt. eigenvalues --    2.16116   2.16449   2.16818   2.17717   2.18116
 Alpha virt. eigenvalues --    2.18593   2.18820   2.19099   2.19650   2.20146
 Alpha virt. eigenvalues --    2.21205   2.21875   2.22273   2.22740   2.22935
 Alpha virt. eigenvalues --    2.23225   2.23716   2.24255   2.24746   2.24996
 Alpha virt. eigenvalues --    2.25153   2.25472   2.26070   2.26572   2.26700
 Alpha virt. eigenvalues --    2.27077   2.27128   2.27881   2.28459   2.28506
 Alpha virt. eigenvalues --    2.29088   2.30100   2.30578   2.31081   2.31289
 Alpha virt. eigenvalues --    2.31447   2.31806   2.32374   2.32846   2.33400
 Alpha virt. eigenvalues --    2.33737   2.34004   2.34393   2.34551   2.34863
 Alpha virt. eigenvalues --    2.35319   2.35933   2.36200   2.36297   2.36585
 Alpha virt. eigenvalues --    2.37012   2.37411   2.37976   2.38227   2.38497
 Alpha virt. eigenvalues --    2.39171   2.39358   2.40005   2.40761   2.40911
 Alpha virt. eigenvalues --    2.41210   2.41608   2.42186   2.42906   2.43123
 Alpha virt. eigenvalues --    2.43468   2.44010   2.44880   2.45013   2.45347
 Alpha virt. eigenvalues --    2.45630   2.46316   2.47598   2.48470   2.49132
 Alpha virt. eigenvalues --    2.49537   2.49841   2.50212   2.50812   2.51504
 Alpha virt. eigenvalues --    2.51975   2.52572   2.52804   2.53019   2.53577
 Alpha virt. eigenvalues --    2.54195   2.54407   2.54561   2.54945   2.55738
 Alpha virt. eigenvalues --    2.56122   2.56788   2.57320   2.57527   2.57923
 Alpha virt. eigenvalues --    2.58139   2.58597   2.58674   2.59160   2.59394
 Alpha virt. eigenvalues --    2.60176   2.60955   2.61191   2.61625   2.62554
 Alpha virt. eigenvalues --    2.63067   2.63202   2.63537   2.64057   2.64940
 Alpha virt. eigenvalues --    2.65398   2.65656   2.65804   2.66276   2.66730
 Alpha virt. eigenvalues --    2.67253   2.67928   2.68511   2.68683   2.69369
 Alpha virt. eigenvalues --    2.69671   2.69968   2.70743   2.71429   2.71520
 Alpha virt. eigenvalues --    2.72261   2.72863   2.73241   2.73861   2.74585
 Alpha virt. eigenvalues --    2.75182   2.76719   2.77709   2.78379   2.79032
 Alpha virt. eigenvalues --    2.79963   2.80751   2.81197   2.82139   2.83763
 Alpha virt. eigenvalues --    2.84666   2.84680   2.85314   2.86773   2.87211
 Alpha virt. eigenvalues --    2.88827   2.90326   2.90794   2.91952   2.92603
 Alpha virt. eigenvalues --    2.93156   2.93296   2.93906   2.94568   2.95124
 Alpha virt. eigenvalues --    2.95975   2.97984   2.98674   2.99348   2.99748
 Alpha virt. eigenvalues --    2.99881   3.00117   3.00688   3.02528   3.03185
 Alpha virt. eigenvalues --    3.04125   3.06415   3.07107   3.07649   3.09618
 Alpha virt. eigenvalues --    3.10988   3.11446   3.13407   3.13672   3.16253
 Alpha virt. eigenvalues --    3.33756   3.36569   3.66825   3.80168   3.84512
 Alpha virt. eigenvalues --    3.85098   3.89973   3.91275   3.94371   3.95141
 Alpha virt. eigenvalues --    3.96282   3.96671   3.97233   4.01070   4.01648
 Alpha virt. eigenvalues --    4.02191   4.04423   4.05141   4.05907   4.06553
 Alpha virt. eigenvalues --    4.08007   4.08937   4.10114   4.10701   4.11039
 Alpha virt. eigenvalues --    4.11202   4.11973   4.13057   4.15071   4.16490
 Alpha virt. eigenvalues --    4.16620   4.17647   4.17975   4.18940   4.19703
 Alpha virt. eigenvalues --    4.21391   4.22829   4.23489   4.23599   4.24436
 Alpha virt. eigenvalues --    4.26535   4.26974   4.27211   4.27675   4.29302
 Alpha virt. eigenvalues --    4.30205   4.31739   4.32478   4.32959   4.34651
 Alpha virt. eigenvalues --    4.35036   4.36460   4.37340   4.39971   4.41203
 Alpha virt. eigenvalues --    4.41640   4.43294   4.44932   4.45237   4.45915
 Alpha virt. eigenvalues --    4.46226   4.49433   4.49619   4.52121   4.52867
 Alpha virt. eigenvalues --    4.55535   4.55697   4.58134   4.60254   4.61679
 Alpha virt. eigenvalues --    4.62982   4.64382   4.65643   4.66873   4.73286
 Alpha virt. eigenvalues --    4.73831   4.76862
          Condensed to atoms (all electrons):
 Mulliken charges:
               1
     1  N   -0.762123
     2  H    0.412500
     3  H    0.432771
     4  H    0.405709
     5  C   -0.101537
     6  H    0.201824
     7  C    0.652485
     8  C   -0.107470
     9  H    0.167687
    10  O   -0.553276
    11  C   -0.473515
    12  H    0.167419
    13  H    0.181969
    14  H    0.189455
    15  C   -0.469042
    16  H    0.174693
    17  H    0.135372
    18  H    0.197436
    19  N   -0.602150
    20  H    0.374801
    21  C   -0.080201
    22  H    0.196171
    23  C    0.635837
    24  C   -0.071642
    25  H    0.132449
    26  O   -0.578497
    27  C   -0.284508
    28  H    0.190215
    29  H    0.130483
    30  C   -0.478288
    31  H    0.193630
    32  H    0.124775
    33  H    0.148403
    34  C   -0.454525
    35  H    0.152843
    36  H    0.171405
    37  H    0.128445
    38  N   -0.622052
    39  H    0.430749
    40  C   -0.101413
    41  H    0.193098
    42  C    0.645546
    43  C   -0.391303
    44  H    0.237721
    45  H    0.157198
    46  O   -0.534396
    47  C    0.095585
    48  C   -0.215932
    49  H    0.231240
    50  C   -0.191185
    51  H    0.136896
    52  C   -0.185134
    53  H    0.162025
    54  C   -0.128684
    55  H    0.144913
    56  C   -0.162575
    57  H    0.134287
    58  N   -0.613808
    59  H    0.353143
    60  C   -0.058458
    61  H    0.185181
    62  C    0.633392
    63  C   -0.283892
    64  H    0.141161
    65  H    0.155789
    66  O   -0.586907
    67  C   -0.086096
    68  H    0.122188
    69  C   -0.450764
    70  H    0.150795
    71  H    0.144619
    72  H    0.158098
    73  C   -0.451406
    74  H    0.148447
    75  H    0.154005
    76  H    0.150427
    77  N   -0.605629
    78  H    0.379115
    79  C   -0.078638
    80  H    0.233482
    81  C    0.590089
    82  C   -0.328081
    83  H    0.167756
    84  H    0.168452
    85  O   -0.503324
    86  C   -0.331068
    87  H    0.149092
    88  H    0.156562
    89  C    0.581350
    90  O   -0.582820
    91  O   -0.600511
    92  N   -0.614655
    93  H    0.374857
    94  C   -0.053488
    95  H    0.188291
    96  C    0.596873
    97  C   -0.368714
    98  H    0.203575
    99  H    0.163697
   100  O   -0.561057
   101  C    0.610185
   102  N   -0.709514
   103  H    0.352854
   104  H    0.371043
   105  O   -0.569459
   106  N   -0.605188
   107  H    0.362916
   108  C   -0.038610
   109  H    0.199918
   110  C    0.646041
   111  C   -0.386073
   112  H    0.198480
   113  H    0.156949
   114  O   -0.560423
   115  C    0.113425
   116  C   -0.180001
   117  H    0.144670
   118  C   -0.222079
   119  H    0.201069
   120  C   -0.166695
   121  H    0.165340
   122  C   -0.191621
   123  H    0.124538
   124  O   -0.657892
   125  H    0.413216
   126  C    0.331544
   127  N   -0.620325
   128  H    0.366093
   129  C   -0.028682
   130  H    0.201690
   131  C    0.587517
   132  C   -0.287423
   133  H    0.154790
   134  H    0.160763
   135  O   -0.449653
   136  C   -0.308786
   137  H    0.148551
   138  H    0.230360
   139  C   -0.185765
   140  H    0.156725
   141  H    0.184240
   142  N   -0.592064
   143  H    0.379208
   144  N   -0.796996
   145  H    0.419778
   146  H    0.361162
   147  N   -0.788120
   148  H    0.375533
   149  H    0.392088
   150  C    0.786209
   151  O   -0.592961
   152  H    0.431735
 Sum of Mulliken charges =   1.00000
 Mulliken charges with hydrogens summed into heavy atoms:
               1
     1  N    0.488857
     5  C    0.100287
     7  C    0.652485
     8  C    0.060217
    10  O   -0.553276
    11  C    0.065328
    15  C    0.038458
    19  N   -0.227349
    21  C    0.115969
    23  C    0.635837
    24  C    0.060808
    26  O   -0.578497
    27  C    0.036190
    30  C   -0.011480
    34  C   -0.001832
    38  N   -0.191303
    40  C    0.091685
    42  C    0.645546
    43  C    0.003616
    46  O   -0.534396
    47  C    0.095585
    48  C    0.015307
    50  C   -0.054289
    52  C   -0.023109
    54  C    0.016229
    56  C   -0.028289
    58  N   -0.260665
    60  C    0.126722
    62  C    0.633392
    63  C    0.013058
    66  O   -0.586907
    67  C    0.036091
    69  C    0.002747
    73  C    0.001473
    77  N   -0.226514
    79  C    0.154844
    81  C    0.590089
    82  C    0.008127
    85  O   -0.503324
    86  C   -0.025413
    89  C    0.581350
    90  O   -0.582820
    91  O   -0.600511
    92  N   -0.239798
    94  C    0.134803
    96  C    0.596873
    97  C   -0.001443
   100  O   -0.561057
   101  C    0.610185
   102  N    0.014382
   105  O   -0.569459
   106  N   -0.242271
   108  C    0.161308
   110  C    0.646041
   111  C   -0.030644
   114  O   -0.560423
   115  C    0.113425
   116  C   -0.035330
   118  C   -0.021010
   120  C   -0.001355
   122  C   -0.067083
   124  O   -0.244676
   126  C    0.331544
   127  N   -0.254233
   129  C    0.173008
   131  C    0.587517
   132  C    0.028129
   135  O   -0.449653
   136  C    0.070125
   139  C    0.155199
   142  N   -0.212856
   144  N   -0.016056
   147  N   -0.020500
   150  C    0.786209
   151  O   -0.161226
 Electronic spatial extent (au):  <R**2>=          77070.4932
 Charge=              1.0000 electrons
 Dipole moment (field-independent basis, Debye):
    X=            -15.0121    Y=              9.6191    Z=             17.0524  Tot=             24.6714
 Quadrupole moment (field-independent basis, Debye-Ang):
   XX=           -320.2236   YY=           -383.1345   ZZ=           -187.3088
   XY=             43.7886   XZ=           -156.3178   YZ=            -46.5592
 Traceless Quadrupole moment (field-independent basis, Debye-Ang):
   XX=            -23.3346   YY=            -86.2455   ZZ=            109.5802
   XY=             43.7886   XZ=           -156.3178   YZ=            -46.5592
 Octapole moment (field-independent basis, Debye-Ang**2):
  XXX=          -1862.4661  YYY=          -1728.8230  ZZZ=           2454.1983  XYY=           -195.6278
  XXY=           -726.5413  XXZ=           1146.2768  XZZ=          -1346.8272  YZZ=           -687.0831
  YYZ=            243.9476  XYZ=            138.2842
 Hexadecapole moment (field-independent basis, Debye-Ang**3):
 XXXX=         -37964.4717 YYYY=         -18963.5064 ZZZZ=         -25905.5409 XXXY=          -3161.3363
 XXXZ=           4373.1525 YYYX=          -3312.7439 YYYZ=           5205.4035 ZZZX=            289.0159
 ZZZY=           4231.2282 XXYY=          -8823.9079 XXZZ=          -5570.8325 YYZZ=          -9128.7268
 XXYZ=            420.5977 YYXZ=           2564.4232 ZZXY=            270.3694
 N-N= 1.453880095934D+04 E-N=-3.739413961310D+04  KE= 3.553666044788D+03
 Unable to Open any file for archive entry.
 1\1\GINC-VIM-002\SP\RB3LYP\6-31G(d)\C50H77N12O13(1+)\KENGMITH\14-Aug-2
 022\0\\# B3LYP/6-31G* empiricaldispersion=gd3 guess=read geom=check no
 symm integral(ultrafinegrid)\\Candidate Structure: Conf:102 Charge cal
 c in gas phase\\1,1\N,0,-5.8425370234,-1.6761844346,7.4210305742\H,0,-
 6.8110822427,-1.854550471,7.1431004141\H,0,-5.209091388,-2.4000994885,
 6.9467097596\H,0,-5.7802109039,-1.7184673182,8.4404980433\C,0,-5.27828
 8701,-0.3953547363,6.8330695802\H,0,-6.1105775643,0.2531512603,6.54631
 90576\C,0,-4.5186313549,-0.9467865706,5.5918529386\C,0,-4.3722399762,0
 .3146103475,7.8683918155\H,0,-3.5904067418,-0.4033165465,8.1569285551\
 O,0,-4.2275576263,-2.1583757863,5.6084414995\C,0,-3.6922614776,1.55058
 69792,7.255299862\H,0,-4.4343890007,2.2640636729,6.8758219867\H,0,-3.1
 0977342,2.0626850883,8.0265459596\H,0,-3.013699011,1.2977078608,6.4385
 510326\C,0,-5.1741241779,0.7250214584,9.1166679931\H,0,-5.969077016,1.
 4331475009,8.8545634992\H,0,-5.6368431371,-0.1164143734,9.6503908096\H
 ,0,-4.5132564665,1.2159442329,9.8366928205\N,0,-4.243674988,-0.0928888
 878,4.6262527377\H,0,-4.4753259638,0.9026181118,4.6750009649\C,0,-3.46
 95793572,-0.4058963034,3.4203538095\H,0,-2.6584140974,-1.084137221,3.6
 956446527\C,0,-2.924226206,0.9692157726,2.9828277192\C,0,-4.3853058861
 ,-1.0815854177,2.3533104044\H,0,-4.9614595865,-1.8252194459,2.92305186
 47\O,0,-3.4997505071,1.9954301384,3.3803842123\C,0,-3.5970588692,-1.84
 92629367,1.2766084467\H,0,-2.9516152395,-1.1605745827,0.7243880751\H,0
 ,-4.3374533918,-2.2268662192,0.5584427593\C,0,-5.3591101059,-0.0743213
 693,1.7251910299\H,0,-4.8251010759,0.6225564536,1.071626871\H,0,-5.893
 811214,0.5106895574,2.4824446641\H,0,-6.1031096253,-0.6032850157,1.119
 9253406\C,0,-2.762413621,-3.0184822739,1.8102124857\H,0,-2.4237407915,
 -3.6510301228,0.9834436886\H,0,-1.8575350863,-2.67124435,2.3157268917\
 H,0,-3.3434153402,-3.645134376,2.4991840783\N,0,-1.845713037,0.9555360
 779,2.1957141305\H,0,-1.4197375681,0.0790577064,1.8451153839\C,0,-1.36
 31235249,2.1475698122,1.5244078947\H,0,-1.7557729881,3.0201723975,2.05
 7160626\C,0,-1.9838784098,2.1790700507,0.1067428961\C,0,0.1906737095,2
 .1118315299,1.6127966535\H,0,0.5124602928,1.1234166842,1.2752483402\H,
 0,0.4136954381,2.1745770511,2.6848995128\O,0,-2.8126940581,1.342837105
 4,-0.2579154632\C,0,0.9960160199,3.1632487319,0.8824444816\C,0,1.74769
 42391,2.7866728021,-0.241091299\H,0,1.6661745291,1.7620508455,-0.59121
 45245\C,0,1.0764598537,4.490494208,1.3338465665\H,0,0.4989730973,4.797
 2779046,2.2037896962\C,0,2.6028562828,3.6975781443,-0.8617817014\H,0,3
 .1897681742,3.3689889765,-1.7140855413\C,0,1.9166025402,5.4100130999,0
 .701573762\H,0,1.981650752,6.4289682099,1.0730533932\C,0,2.6986660959,
 5.0087585199,-0.3857918634\H,0,3.3894443766,5.7151131985,-0.8430868011
 \N,0,-1.6236306991,3.2212955804,-0.6920574927\H,0,-0.8204614994,3.7808
 652751,-0.4297188571\C,0,-2.0996158642,3.3295506529,-2.076933847\H,0,-
 3.143076092,3.0045090817,-2.0776721315\C,0,-1.2468832953,2.3418010988,
 -2.8947410817\C,0,-1.9797332616,4.7725545442,-2.5669817896\H,0,-0.9355
 302628,5.0927586271,-2.4672217715\H,0,-2.5667238775,5.4075997697,-1.89
 12949184\O,0,-0.1935066958,2.7134505476,-3.4510132907\C,0,-2.445030687
 9,4.9995322226,-4.0186301142\H,0,-1.9376511123,4.2620190052,-4.6568326
 442\C,0,-3.9592411865,4.7993032164,-4.1767455601\H,0,-4.5116870105,5.5
 049028369,-3.5434320946\H,0,-4.2761916432,3.7855987125,-3.9058082865\H
 ,0,-4.2670700447,4.9711642163,-5.2138473338\C,0,-2.0190277342,6.396905
 7679,-4.4899784385\H,0,-2.4769690892,7.1748932991,-3.8661286137\H,0,-2
 .330263212,6.5743226076,-5.5251961835\H,0,-0.9307034116,6.5184014306,-
 4.4374826703\N,0,-1.6548741222,1.0580167009,-2.874221731\H,0,-2.472165
 7182,0.9090830826,-2.2875992255\C,0,-0.7322943067,-0.1042650036,-2.859
 7117969\H,0,0.1530431929,0.2136888267,-2.2840333915\C,0,-0.0823275529,
 -0.5567001633,-4.1728802539\C,0,-1.3740068744,-1.2865409658,-2.1023292
 12\H,0,-1.8182540951,-1.9837138384,-2.8193337742\H,0,-2.175085371,-0.9
 074472622,-1.4586324732\O,0,0.2961491781,-1.7166116746,-4.2903017349\C
 ,0,-0.3578767179,-2.0304298321,-1.2084861628\H,0,-0.8632591113,-2.8744
 718978,-0.7308237336\H,0,0.4559440648,-2.4079810178,-1.8323448241\C,0,
 0.1851411652,-1.0751080489,-0.1330606112\O,0,1.1598438457,-0.335209726
 ,-0.474851712\O,0,-0.4208162217,-1.0430430116,0.9729794371\N,0,0.26812
 03649,0.4260730162,-5.081524187\H,0,0.1094460954,1.3675456755,-4.71561
 47128\C,0,1.634989031,0.3012890315,-5.6278699127\H,0,1.7983213506,-0.7
 546807727,-5.8437510472\C,0,2.511349991,0.7689502895,-4.4607817315\C,0
 ,1.8240344213,1.1580528678,-6.8989848815\H,0,1.7623013326,0.5082504378
 ,-7.7794559869\H,0,0.9982353629,1.8641862137,-6.9876870016\O,0,2.67210
 39079,1.9736115999,-4.2377672045\C,0,3.1133921157,1.9736914583,-7.0218
 31407\N,0,4.2897420772,1.3544662505,-6.7755261436\H,0,5.1060820169,1.9
 530261648,-6.7512321469\H,0,4.3602644771,0.5618987807,-6.1467243727\O,
 0,3.069820195,3.1434825507,-7.4375562874\N,0,2.9986520222,-0.199840853
 9,-3.6599087301\H,0,2.7064628504,-1.1594880785,-3.7961639373\C,0,3.768
 7987294,0.1653382114,-2.4847298893\H,0,3.144689851,0.8045043869,-1.854
 6267697\C,0,4.9964444292,0.9771664639,-2.9626114736\C,0,4.1498678827,-
 1.0759342025,-1.644212501\H,0,3.2102654238,-1.563248681,-1.3626311666\
 H,0,4.7505061575,-1.7620486604,-2.2528677061\O,0,5.5268950085,0.787649
 6237,-4.0549973538\C,0,4.909943298,-0.6117330887,-0.4215973384\C,0,6.3
 102868498,-0.6084876299,-0.3999673259\H,0,6.8611024714,-1.1087975281,-
 1.1927225603\C,0,4.2188015404,0.039041658,0.6111955413\H,0,3.130792236
 2,0.0220501045,0.6119087458\C,0,7.0157270616,0.0869531432,0.5791747345
 \H,0,8.0990854592,0.1387832796,0.566543515\C,0,4.9140991562,0.75156880
 07,1.5887812487\H,0,4.3682091416,1.2987954495,2.3554199322\O,0,7.04586
 09798,1.6269246538,2.3756384676\H,0,6.4688863554,1.96437866,3.07921377
 05\C,0,6.3096865297,0.8068340056,1.544100576\N,0,5.4007818754,1.940561
 7734,-2.0935533472\H,0,4.9895914163,1.979076325,-1.1684802259\C,0,6.51
 34309066,2.8436825996,-2.3720278749\H,0,7.1063405091,2.3946384652,-3.1
 700188072\C,0,7.3976234728,2.9011107916,-1.1282575974\C,0,6.0010354365
 ,4.2375770757,-2.8051984196\H,0,5.4526564724,4.6783187311,-1.962051946
 5\H,0,6.8618716151,4.8888547386,-3.0043209925\O,0,8.5599042389,2.58034
 23239,-1.0848156413\C,0,5.085254355,4.1257270549,-4.0305108642\H,0,5.6
 574636802,3.7643077263,-4.894175425\H,0,4.3206379321,3.3705902688,-3.8
 419111533\C,0,4.368573336,5.4298394015,-4.4072868349\H,0,4.0028971682,
 5.9555672632,-3.5182767212\H,0,5.0362543203,6.1351103793,-4.9109381782
 \N,0,3.2352017923,5.1896962407,-5.3117913174\H,0,3.4789188219,4.870366
 8066,-6.2478522808\N,0,1.6016597727,4.9102712189,-3.6366679395\H,0,0.8
 884919031,4.2324633606,-3.3508884951\H,0,2.2762571214,5.1156887851,-2.
 9171562675\N,0,1.1361639491,4.3625642132,-5.8274856346\H,0,0.308512255
 3,3.9046050012,-5.466279284\H,0,1.5422434028,3.9771943634,-6.684253146
 \C,0,2.0193869649,4.789453613,-4.9075329671\O,0,6.6859544482,3.3290955
 173,-0.0564578737\H,0,7.2104884207,3.1441687955,0.7510381072\\Version=
 ES64L-G16RevC.01\HF=-3586.8850061\RMSD=2.358e-09\Dipole=-7.2718409,0.9
 21816,8.1077571\Quadrupole=-17.3487288,-64.12145,81.4701788,32.5557398
 ,-116.2184871,-34.6156318\PG=C01 [X(C50H77N12O13)]\\@
 The archive entry for this job was punched.


 When I told the people of Northern Ireland that I was
 an atheist, a woman in the audience stood up and said,
 "Yes, but is it the God of the Catholics or the God
 of the Protestants in whom you don't believe?"
                               -- Quentin Crisp
 Job cpu time:       0 days  0 hours 11 minutes 11.2 seconds.
 Elapsed time:       0 days  0 hours  2 minutes 49.0 seconds.
 File lengths (MBytes):  RWF=   1072 Int=      0 D2E=      0 Chk=    160 Scr=     32
 Normal termination of Gaussian 16 at Sun Aug 14 21:11:44 2022.
