 Entering Gaussian System, Link 0=/opt/software/Gaussian/g16-AVX2-C.01/g16/g16
 Input=charge-conf-49.com
 Output=charge-conf-49.log
 Initial command:
 /opt/software/Gaussian/g16-AVX2-C.01/g16/l1.exe "/mnt/gs21/scratch/kengmith/Gau-78625.inp" -scrdir="/mnt/gs21/scratch/kengmith/"
 Entering Link 1 = /opt/software/Gaussian/g16-AVX2-C.01/g16/l1.exe PID=     78641.
  
 Copyright (c) 1988-2019, Gaussian, Inc.  All Rights Reserved.
  
 This is part of the Gaussian(R) 16 program.  It is based on
 the Gaussian(R) 09 system (copyright 2009, Gaussian, Inc.),
 the Gaussian(R) 03 system (copyright 2003, Gaussian, Inc.),
 the Gaussian(R) 98 system (copyright 1998, Gaussian, Inc.),
 the Gaussian(R) 94 system (copyright 1995, Gaussian, Inc.),
 the Gaussian 92(TM) system (copyright 1992, Gaussian, Inc.),
 the Gaussian 90(TM) system (copyright 1990, Gaussian, Inc.),
 the Gaussian 88(TM) system (copyright 1988, Gaussian, Inc.),
 the Gaussian 86(TM) system (copyright 1986, Carnegie Mellon
 University), and the Gaussian 82(TM) system (copyright 1983,
 Carnegie Mellon University). Gaussian is a federally registered
 trademark of Gaussian, Inc.
  
 This software contains proprietary and confidential information,
 including trade secrets, belonging to Gaussian, Inc.
  
 This software is provided under written license and may be
 used, copied, transmitted, or stored only in accord with that
 written license.
  
 The following legend is applicable only to US Government
 contracts under FAR:
  
                    RESTRICTED RIGHTS LEGEND
  
 Use, reproduction and disclosure by the US Government is
 subject to restrictions as set forth in subparagraphs (a)
 and (c) of the Commercial Computer Software - Restricted
 Rights clause in FAR 52.227-19.
  
 Gaussian, Inc.
 340 Quinnipiac St., Bldg. 40, Wallingford CT 06492
  
  
 ---------------------------------------------------------------
 Warning -- This program may not be used in any manner that
 competes with the business of Gaussian, Inc. or will provide
 assistance to any competitor of Gaussian, Inc.  The licensee
 of this program is prohibited from giving any competitor of
 Gaussian, Inc. access to this program.  By using this program,
 the user acknowledges that Gaussian, Inc. is engaged in the
 business of creating and licensing software in the field of
 computational chemistry and represents and warrants to the
 licensee that it is not a competitor of Gaussian, Inc. and that
 it will not use this program in any manner prohibited above.
 ---------------------------------------------------------------
  

 Cite this work as:
 Gaussian 16, Revision C.01,
 M. J. Frisch, G. W. Trucks, H. B. Schlegel, G. E. Scuseria, 
 M. A. Robb, J. R. Cheeseman, G. Scalmani, V. Barone, 
 G. A. Petersson, H. Nakatsuji, X. Li, M. Caricato, A. V. Marenich, 
 J. Bloino, B. G. Janesko, R. Gomperts, B. Mennucci, H. P. Hratchian, 
 J. V. Ortiz, A. F. Izmaylov, J. L. Sonnenberg, D. Williams-Young, 
 F. Ding, F. Lipparini, F. Egidi, J. Goings, B. Peng, A. Petrone, 
 T. Henderson, D. Ranasinghe, V. G. Zakrzewski, J. Gao, N. Rega, 
 G. Zheng, W. Liang, M. Hada, M. Ehara, K. Toyota, R. Fukuda, 
 J. Hasegawa, M. Ishida, T. Nakajima, Y. Honda, O. Kitao, H. Nakai, 
 T. Vreven, K. Throssell, J. A. Montgomery, Jr., J. E. Peralta, 
 F. Ogliaro, M. J. Bearpark, J. J. Heyd, E. N. Brothers, K. N. Kudin, 
 V. N. Staroverov, T. A. Keith, R. Kobayashi, J. Normand, 
 K. Raghavachari, A. P. Rendell, J. C. Burant, S. S. Iyengar, 
 J. Tomasi, M. Cossi, J. M. Millam, M. Klene, C. Adamo, R. Cammi, 
 J. W. Ochterski, R. L. Martin, K. Morokuma, O. Farkas, 
 J. B. Foresman, and D. J. Fox, Gaussian, Inc., Wallingford CT, 2019.
 
 ******************************************
 Gaussian 16:  ES64L-G16RevC.01  3-Jul-2019
                14-Aug-2022 
 ******************************************
 %mem=8gb
 %nproc=4
 Will use up to    4 processors via shared memory.
 %chk=conf-49.chk
 ----------------------------------------------------------------------
 # B3LYP/6-31G* empiricaldispersion=gd3 guess=read geom=check nosymm in
 tegral(ultrafinegrid)
 ----------------------------------------------------------------------
 1/29=2,38=1,172=1/1;
 2/12=2,15=1,40=1/2;
 3/5=1,6=6,7=1,11=2,14=-4,25=1,30=1,74=-5,75=-5,116=-2,124=31/1,2,3;
 4/5=1/1;
 5/5=2,38=6/2;
 6/7=2,8=2,9=2,10=2,28=1/1;
 99/5=1,9=1/99;
 -----------------------------------------------------
 Candidate Structure: Conf:49 Charge calc in gas phase
 -----------------------------------------------------
 Structure from the checkpoint file:  "conf-49.chk"
 Charge =  1 Multiplicity = 1
 Redundant internal coordinates found in file.  (old form).
 N,0,-3.3320467047,4.1373403002,6.702705481
 H,0,-3.0203599241,5.0853459358,6.4728224218
 H,0,-4.3458996548,4.0450447926,6.4464827827
 H,0,-3.1784644504,3.9724244952,7.7008958361
 C,0,-2.6780411916,3.0813272614,5.8246368886
 H,0,-1.6686323237,3.3927552197,5.53668164
 C,0,-3.6222593619,3.0284678326,4.6120645366
 C,0,-2.6557531141,1.7463241566,6.6131117219
 H,0,-3.6284547682,1.66311768,7.1245839577
 O,0,-4.8343237025,3.2364373181,4.8114414901
 C,0,-2.5282323397,0.531552609,5.683768096
 H,0,-1.638776246,0.6114596789,5.0572681395
 H,0,-2.4342921067,-0.3749854507,6.2879974953
 H,0,-3.4107267688,0.4150273069,5.0505432948
 C,0,-1.5162966445,1.7589516794,7.6455001192
 H,0,-0.546988054,1.7076628304,7.1384708921
 H,0,-1.5223280879,2.6520318161,8.2882678729
 H,0,-1.5963183343,0.8897005408,8.3053826067
 N,0,-3.0217556221,2.726046132,3.4673386915
 H,0,-1.9645962312,2.6773755081,3.4960448614
 C,0,-3.7338451574,2.3188291827,2.2554684721
 H,0,-4.8038810548,2.3230060633,2.4800346928
 C,0,-3.2279288894,0.8929058579,2.0113587443
 C,0,-3.4277035012,3.2409408297,1.0596513186
 H,0,-2.3351246837,3.2724730046,0.9652995885
 O,0,-2.0916489373,0.7000289685,1.5982749678
 C,0,-3.9191326827,4.6796610305,1.3185404163
 H,0,-3.6032155708,5.2932303456,0.464731082
 H,0,-3.3920755746,5.0829458983,2.1927555566
 C,0,-3.98990389,2.6377108511,-0.2387059172
 H,0,-5.048256579,2.3645978197,-0.141123928
 H,0,-3.4200942076,1.7503802125,-0.5341230053
 H,0,-3.9110722728,3.3603132378,-1.0580617419
 C,0,-5.4300030821,4.8405855162,1.5351347837
 H,0,-5.6935345684,5.9012417032,1.613139064
 H,0,-6.0075829177,4.4210446728,0.7037112945
 H,0,-5.7575879067,4.355125543,2.4613237917
 N,0,-4.0752046111,-0.1322411406,2.3308281585
 H,0,-4.929233689,0.1083135831,2.8229209501
 C,0,-3.5367328496,-1.4663456278,2.6191534204
 H,0,-2.8483522433,-1.4029466931,3.4696434195
 C,0,-2.6762923245,-2.0316131721,1.4850341996
 C,0,-4.684254487,-2.4341086058,2.9868099631
 H,0,-4.232864072,-3.417967302,3.1514100519
 H,0,-5.3675028761,-2.521588966,2.1342152864
 O,0,-1.7215529127,-2.7556630988,1.7589736483
 C,0,-5.4167145609,-1.9624403209,4.2242122274
 C,0,-4.8554441512,-2.1631658368,5.493235554
 H,0,-3.9293288732,-2.726297463,5.5839878277
 C,0,-6.6137172527,-1.2393661605,4.1255778226
 H,0,-7.0767361378,-1.0992156057,3.1502791759
 C,0,-5.4701081324,-1.6471187189,6.6334001813
 H,0,-5.0267000857,-1.8213419433,7.610128693
 C,0,-7.2284004325,-0.7142674069,5.2657580345
 H,0,-8.1565517916,-0.157786151,5.1707093482
 C,0,-6.6555675859,-0.9145704294,6.5218616073
 H,0,-7.1361390133,-0.5149329982,7.4104639343
 N,0,-3.0500519434,-1.7376097175,0.2086096217
 H,0,-3.701758528,-0.9697737446,0.0959085215
 C,0,-2.0816617948,-1.9216591608,-0.8800084306
 H,0,-1.58481088,-2.8737061897,-0.6841060596
 C,0,-1.0607630884,-0.7688224598,-0.7853776421
 C,0,-2.7905533623,-1.9533875136,-2.2334786899
 H,0,-3.3512701902,-1.017910181,-2.3554348773
 H,0,-3.5191949241,-2.7744504722,-2.2076728006
 O,0,-1.2246750557,0.2791508257,-1.4260748703
 C,0,-1.85640064,-2.1263203746,-3.4476049988
 H,0,-1.2217800166,-1.2324358072,-3.5011361596
 C,0,-0.9465372717,-3.3575561816,-3.3214245907
 H,0,-1.5368551035,-4.270178907,-3.1670603492
 H,0,-0.2412732245,-3.2663390113,-2.4874306449
 H,0,-0.3545820515,-3.4961877406,-4.2333092505
 C,0,-2.6906564945,-2.1935470346,-4.7342654022
 H,0,-3.335938164,-3.0815459112,-4.7367168672
 H,0,-2.0458837337,-2.2492655189,-5.6189086525
 H,0,-3.3334658258,-1.3114972669,-4.840238556
 N,0,-0.0142635298,-0.9740215594,0.0485378382
 H,0,-0.0637324729,-1.8084961299,0.6256697244
 C,0,0.8098233394,0.124931648,0.5772532935
 H,0,0.1435750384,0.9899610511,0.7061555775
 C,0,1.8902123939,0.6365389812,-0.394287953
 C,0,1.4144883325,-0.2387805331,1.9406466207
 H,0,2.1897673249,0.5018943699,2.1412778206
 H,0,1.9207502957,-1.2102853813,1.8916557135
 O,0,2.9686301479,1.0728732747,0.0122444144
 C,0,0.3709403839,-0.2278905484,3.0724009322
 H,0,-0.2578033892,0.6544685177,2.9671366192
 H,0,-0.2722427003,-1.1112466505,3.0029686139
 C,0,1.0328312201,-0.2481758327,4.4460704056
 O,0,1.658932132,-1.2003957394,4.8569414575
 O,0,0.8783975253,0.8655189979,5.1936448092
 N,0,1.5348936966,0.6932224893,-1.7162393637
 H,0,0.5301550053,0.6388244265,-1.9092241527
 C,0,2.3562685948,1.5060235733,-2.6024657926
 H,0,3.3780819447,1.4013698184,-2.2257767877
 C,0,1.942644044,2.9856557603,-2.5028681907
 C,0,2.291482876,1.0640500473,-4.0628070008
 H,0,2.631599186,0.0251667183,-4.1472077516
 H,0,1.2682987056,1.113656188,-4.4418182378
 O,0,1.3165628904,3.5472322916,-3.4077269443
 C,0,3.137845516,1.904811836,-5.010138216
 N,0,4.2054312095,2.5729249555,-4.5130820119
 H,0,4.7040444089,3.1722001829,-5.1573868922
 H,0,4.251361315,2.8966141935,-3.5529633412
 O,0,2.8869229797,1.8987854107,-6.2291234219
 N,0,2.3536898143,3.6235315603,-1.3896851372
 H,0,2.8320549186,3.0981270778,-0.6626411278
 C,0,2.2434567032,5.0634232433,-1.3097939613
 H,0,1.191578202,5.3418569143,-1.4482903219
 C,0,3.0719473697,5.6590814348,-2.4679993633
 C,0,2.7167723683,5.5634941761,0.0748142858
 H,0,3.7872801378,5.3463981106,0.1749199285
 H,0,2.6105770031,6.6557058949,0.0880701122
 O,0,4.1011741333,5.1273927402,-2.8827349589
 C,0,1.9287238706,4.9117486911,1.1892586189
 C,0,0.5901597881,5.2575802656,1.4248504616
 H,0,0.1369153353,6.068582082,0.8545822677
 C,0,2.475473943,3.8769573848,1.9604917778
 H,0,3.5137929284,3.586063389,1.8114131603
 C,0,-0.1769948292,4.586005095,2.3706940262
 H,0,-1.2073922234,4.8811019784,2.5473433422
 C,0,1.7212019323,3.1998663671,2.9140941452
 H,0,2.1745115984,2.416976515,3.5131310123
 O,0,-0.3894629002,2.8370783144,3.9918645848
 H,0,0.3982289503,1.6041214279,4.6930284103
 C,0,0.3583387061,3.5140231381,3.1290092548
 N,0,2.5771246402,6.8090378175,-3.0030982568
 H,0,1.7061061284,7.1830972549,-2.6529795602
 C,0,3.1664395468,7.4200879804,-4.1793096095
 H,0,4.2125368436,7.0955055888,-4.1998927864
 C,0,3.183033796,8.9441450639,-4.1251344532
 C,0,2.4892212769,6.9682929351,-5.4980758038
 H,0,1.4463534958,7.3170416344,-5.5005397989
 H,0,3.0027245589,7.4902285906,-6.314620396
 O,0,3.5811123745,9.6298024108,-5.0391842366
 C,0,2.5221840097,5.4482425618,-5.6788047225
 H,0,3.558473283,5.0949494015,-5.6383778346
 H,0,2.0011514052,4.960430595,-4.851349975
 C,0,1.8678586338,4.9587500834,-6.9718209868
 H,0,1.7350323712,3.8755331913,-6.9462071528
 H,0,0.8745324149,5.3997373402,-7.1026771314
 N,0,2.6392044538,5.3054470701,-8.182127012
 H,0,2.6105500893,6.2771972597,-8.4632058874
 N,0,3.9634892487,3.3775429829,-8.2432217973
 H,0,4.5492534224,2.7779962491,-8.8084550329
 H,0,3.5349272065,2.9122894242,-7.4089526029
 N,0,4.2710259448,5.0709182675,-9.7998629707
 H,0,5.0102471529,4.5435523511,-10.2407167532
 H,0,3.858690032,5.808321949,-10.3529493122
 C,0,3.6124779654,4.5659984363,-8.7275669402
 O,0,2.690628881,9.4457435923,-2.9719453284
 H,0,2.747812462,10.4182539652,-3.0422935304
 Recover connectivity data from disk.
                           ----------------------------
                           !    Current Parameters    !
                           ! (Angstroms and Degrees)  !
 --------------------------                            --------------------------
 ! Name  Definition              Value                                          !
 --------------------------------------------------------------------------------
 ! R1    R(1,2)                  1.0241                                         !
 ! R2    R(1,3)                  1.0498                                         !
 ! R3    R(1,4)                  1.0233                                         !
 ! R4    R(1,5)                  1.5211                                         !
 ! R5    R(5,6)                  1.0949                                         !
 ! R6    R(5,7)                  1.5377                                         !
 ! R7    R(5,8)                  1.5506                                         !
 ! R8    R(7,10)                 1.2458                                         !
 ! R9    R(7,19)                 1.3276                                         !
 ! R10   R(8,9)                  1.1021                                         !
 ! R11   R(8,11)                 1.5348                                         !
 ! R12   R(8,15)                 1.5376                                         !
 ! R13   R(11,12)                1.0909                                         !
 ! R14   R(11,13)                1.0935                                         !
 ! R15   R(11,14)                1.0924                                         !
 ! R16   R(15,16)                1.0951                                         !
 ! R17   R(15,17)                1.1004                                         !
 ! R18   R(15,18)                1.0943                                         !
 ! R19   R(19,20)                1.0587                                         !
 ! R20   R(19,21)                1.4634                                         !
 ! R21   R(21,22)                1.0934                                         !
 ! R22   R(21,23)                1.5326                                         !
 ! R23   R(21,24)                1.5408                                         !
 ! R24   R(23,26)                1.2243                                         !
 ! R25   R(23,38)                1.3678                                         !
 ! R26   R(24,25)                1.0971                                         !
 ! R27   R(24,27)                1.5422                                         !
 ! R28   R(24,30)                1.5381                                         !
 ! R29   R(27,28)                1.0978                                         !
 ! R30   R(27,29)                1.0976                                         !
 ! R31   R(27,34)                1.5348                                         !
 ! R32   R(30,31)                1.0974                                         !
 ! R33   R(30,32)                1.0951                                         !
 ! R34   R(30,33)                1.0953                                         !
 ! R35   R(34,35)                1.0957                                         !
 ! R36   R(34,36)                1.0958                                         !
 ! R37   R(34,37)                1.0958                                         !
 ! R38   R(38,39)                1.0146                                         !
 ! R39   R(38,40)                1.4673                                         !
 ! R40   R(40,41)                1.096                                          !
 ! R41   R(40,42)                1.5317                                         !
 ! R42   R(40,43)                1.5455                                         !
 ! R43   R(42,46)                1.2292                                         !
 ! R44   R(42,58)                1.3621                                         !
 ! R45   R(43,44)                1.0949                                         !
 ! R46   R(43,45)                1.0961                                         !
 ! R47   R(43,47)                1.5133                                         !
 ! R48   R(47,48)                1.402                                          !
 ! R49   R(47,50)                1.4019                                         !
 ! R50   R(48,49)                1.0877                                         !
 ! R51   R(48,52)                1.3943                                         !
 ! R52   R(50,51)                1.0887                                         !
 ! R53   R(50,54)                1.3977                                         !
 ! R54   R(52,53)                1.0867                                         !
 ! R55   R(52,56)                1.398                                          !
 ! R56   R(54,55)                1.0864                                         !
 ! R57   R(54,56)                1.395                                          !
 ! R58   R(56,57)                1.0864                                         !
 ! R59   R(58,59)                1.0134                                         !
 ! R60   R(58,60)                1.4686                                         !
 ! R61   R(60,61)                1.0916                                         !
 ! R62   R(60,62)                1.5428                                         !
 ! R63   R(60,63)                1.5282                                         !
 ! R64   R(62,66)                1.2392                                         !
 ! R65   R(62,77)                1.3538                                         !
 ! R66   R(63,64)                1.0974                                         !
 ! R67   R(63,65)                1.0981                                         !
 ! R68   R(63,67)                1.5416                                         !
 ! R69   R(67,68)                1.0976                                         !
 ! R70   R(67,69)                1.5361                                         !
 ! R71   R(67,73)                1.5349                                         !
 ! R72   R(69,70)                1.0978                                         !
 ! R73   R(69,71)                1.096                                          !
 ! R74   R(69,72)                1.096                                          !
 ! R75   R(73,74)                1.0977                                         !
 ! R76   R(73,75)                1.0961                                         !
 ! R77   R(73,76)                1.0966                                         !
 ! R78   R(77,78)                1.0158                                         !
 ! R79   R(77,79)                1.4719                                         !
 ! R80   R(79,80)                1.0994                                         !
 ! R81   R(79,81)                1.5404                                         !
 ! R82   R(79,82)                1.5352                                         !
 ! R83   R(81,85)                1.2323                                         !
 ! R84   R(81,92)                1.37                                           !
 ! R85   R(82,83)                1.0908                                         !
 ! R86   R(82,84)                1.0966                                         !
 ! R87   R(82,86)                1.5395                                         !
 ! R88   R(86,87)                1.0886                                         !
 ! R89   R(86,88)                1.0949                                         !
 ! R90   R(86,89)                1.525                                          !
 ! R91   R(89,90)                1.2114                                         !
 ! R92   R(89,91)                1.3502                                         !
 ! R93   R(92,93)                1.0245                                         !
 ! R94   R(92,94)                1.4563                                         !
 ! R95   R(94,95)                1.0941                                         !
 ! R96   R(94,96)                1.5396                                         !
 ! R97   R(94,97)                1.5271                                         !
 ! R98   R(96,100)               1.2354                                         !
 ! R99   R(96,106)               1.3472                                         !
 ! R100  R(97,98)                1.0964                                         !
 ! R101  R(97,99)                1.0923                                         !
 ! R102  R(97,101)               1.5234                                         !
 ! R103  R(101,102)              1.3539                                         !
 ! R104  R(101,105)              1.2446                                         !
 ! R105  R(102,103)              1.0114                                         !
 ! R106  R(102,104)              1.0143                                         !
 ! R107  R(106,107)              1.0166                                         !
 ! R108  R(106,108)              1.4463                                         !
 ! R109  R(108,109)              1.0969                                         !
 ! R110  R(108,110)              1.5436                                         !
 ! R111  R(108,111)              1.5464                                         !
 ! R112  R(110,114)              1.2304                                         !
 ! R113  R(110,127)              1.3615                                         !
 ! R114  R(111,112)              1.0969                                         !
 ! R115  R(111,113)              1.0974                                         !
 ! R116  R(111,115)              1.5125                                         !
 ! R117  R(115,116)              1.4024                                         !
 ! R118  R(115,118)              1.4016                                         !
 ! R119  R(116,117)              1.0901                                         !
 ! R120  R(116,120)              1.3907                                         !
 ! R121  R(118,119)              1.0886                                         !
 ! R122  R(118,122)              1.3917                                         !
 ! R123  R(120,121)              1.0863                                         !
 ! R124  R(120,126)              1.418                                          !
 ! R125  R(122,123)              1.085                                          !
 ! R126  R(122,126)              1.415                                          !
 ! R127  R(124,125)              1.6224                                         !
 ! R128  R(124,126)              1.3274                                         !
 ! R129  R(127,128)              1.0105                                         !
 ! R130  R(127,129)              1.4506                                         !
 ! R131  R(129,130)              1.0955                                         !
 ! R132  R(129,131)              1.5251                                         !
 ! R133  R(129,132)              1.5498                                         !
 ! R134  R(131,135)              1.21                                           !
 ! R135  R(131,151)              1.3505                                         !
 ! R136  R(132,133)              1.0996                                         !
 ! R137  R(132,134)              1.0967                                         !
 ! R138  R(132,136)              1.5311                                         !
 ! R139  R(136,137)              1.0956                                         !
 ! R140  R(136,138)              1.0928                                         !
 ! R141  R(136,139)              1.5296                                         !
 ! R142  R(139,140)              1.0916                                         !
 ! R143  R(139,141)              1.0947                                         !
 ! R144  R(139,142)              1.4765                                         !
 ! R145  R(142,143)              1.012                                          !
 ! R146  R(142,150)              1.3385                                         !
 ! R147  R(144,145)              1.011                                          !
 ! R148  R(144,146)              1.047                                          !
 ! R149  R(144,150)              1.3305                                         !
 ! R150  R(147,148)              1.0094                                         !
 ! R151  R(147,149)              1.0098                                         !
 ! R152  R(147,150)              1.3559                                         !
 ! R153  R(151,152)              0.9767                                         !
 ! A1    A(2,1,3)              108.6957                                         !
 ! A2    A(2,1,4)              108.8129                                         !
 ! A3    A(2,1,5)              112.4714                                         !
 ! A4    A(3,1,4)              111.645                                          !
 ! A5    A(3,1,5)              102.3159                                         !
 ! A6    A(4,1,5)              112.747                                          !
 ! A7    A(1,5,6)              110.5315                                         !
 ! A8    A(1,5,7)              102.4181                                         !
 ! A9    A(1,5,8)              108.0801                                         !
 ! A10   A(6,5,7)              111.6216                                         !
 ! A11   A(6,5,8)              111.4299                                         !
 ! A12   A(7,5,8)              112.3457                                         !
 ! A13   A(5,7,10)             117.7394                                         !
 ! A14   A(5,7,19)             114.2059                                         !
 ! A15   A(10,7,19)            128.0311                                         !
 ! A16   A(5,8,9)              106.7557                                         !
 ! A17   A(5,8,11)             112.0072                                         !
 ! A18   A(5,8,15)             110.181                                          !
 ! A19   A(9,8,11)             107.1325                                         !
 ! A20   A(9,8,15)             110.063                                          !
 ! A21   A(11,8,15)            110.5777                                         !
 ! A22   A(8,11,12)            110.9479                                         !
 ! A23   A(8,11,13)            109.1907                                         !
 ! A24   A(8,11,14)            111.6108                                         !
 ! A25   A(12,11,13)           107.9402                                         !
 ! A26   A(12,11,14)           109.4869                                         !
 ! A27   A(13,11,14)           107.534                                          !
 ! A28   A(8,15,16)            110.1616                                         !
 ! A29   A(8,15,17)            113.2538                                         !
 ! A30   A(8,15,18)            110.1309                                         !
 ! A31   A(16,15,17)           108.2594                                         !
 ! A32   A(16,15,18)           107.8618                                         !
 ! A33   A(17,15,18)           106.9818                                         !
 ! A34   A(7,19,20)            116.0259                                         !
 ! A35   A(7,19,21)            123.8725                                         !
 ! A36   A(20,19,21)           119.7073                                         !
 ! A37   A(19,21,22)           107.7624                                         !
 ! A38   A(19,21,23)           103.3074                                         !
 ! A39   A(19,21,24)           112.3025                                         !
 ! A40   A(22,21,23)           111.0595                                         !
 ! A41   A(22,21,24)           110.5838                                         !
 ! A42   A(23,21,24)           111.5685                                         !
 ! A43   A(21,23,26)           120.4432                                         !
 ! A44   A(21,23,38)           117.1064                                         !
 ! A45   A(26,23,38)           122.3868                                         !
 ! A46   A(21,24,25)           106.369                                          !
 ! A47   A(21,24,27)           111.3897                                         !
 ! A48   A(21,24,30)           110.3531                                         !
 ! A49   A(25,24,27)           107.7559                                         !
 ! A50   A(25,24,30)           107.6193                                         !
 ! A51   A(27,24,30)           113.0234                                         !
 ! A52   A(24,27,28)           107.4053                                         !
 ! A53   A(24,27,29)           108.8724                                         !
 ! A54   A(24,27,34)           115.7976                                         !
 ! A55   A(28,27,29)           106.0163                                         !
 ! A56   A(28,27,34)           109.5381                                         !
 ! A57   A(29,27,34)           108.7712                                         !
 ! A58   A(24,30,31)           112.0287                                         !
 ! A59   A(24,30,32)           110.8121                                         !
 ! A60   A(24,30,33)           110.2683                                         !
 ! A61   A(31,30,32)           108.9138                                         !
 ! A62   A(31,30,33)           107.465                                          !
 ! A63   A(32,30,33)           107.1756                                         !
 ! A64   A(27,34,35)           110.3845                                         !
 ! A65   A(27,34,36)           111.8168                                         !
 ! A66   A(27,34,37)           111.5377                                         !
 ! A67   A(35,34,36)           107.3287                                         !
 ! A68   A(35,34,37)           107.2641                                         !
 ! A69   A(36,34,37)           108.3062                                         !
 ! A70   A(23,38,39)           117.1938                                         !
 ! A71   A(23,38,40)           120.002                                          !
 ! A72   A(39,38,40)           115.4155                                         !
 ! A73   A(38,40,41)           109.2923                                         !
 ! A74   A(38,40,42)           113.3413                                         !
 ! A75   A(38,40,43)           110.0969                                         !
 ! A76   A(41,40,42)           104.0689                                         !
 ! A77   A(41,40,43)           108.5403                                         !
 ! A78   A(42,40,43)           111.2324                                         !
 ! A79   A(40,42,46)           119.256                                          !
 ! A80   A(40,42,58)           117.3901                                         !
 ! A81   A(46,42,58)           123.3069                                         !
 ! A82   A(40,43,44)           106.9977                                         !
 ! A83   A(40,43,45)           109.1336                                         !
 ! A84   A(40,43,47)           111.0218                                         !
 ! A85   A(44,43,45)           107.5901                                         !
 ! A86   A(44,43,47)           110.8966                                         !
 ! A87   A(45,43,47)           111.051                                          !
 ! A88   A(43,47,48)           120.1135                                         !
 ! A89   A(43,47,50)           121.097                                          !
 ! A90   A(48,47,50)           118.6417                                         !
 ! A91   A(47,48,49)           119.3736                                         !
 ! A92   A(47,48,52)           120.7091                                         !
 ! A93   A(49,48,52)           119.9172                                         !
 ! A94   A(47,50,51)           119.5091                                         !
 ! A95   A(47,50,54)           120.7888                                         !
 ! A96   A(51,50,54)           119.6954                                         !
 ! A97   A(48,52,53)           119.7194                                         !
 ! A98   A(48,52,56)           120.1665                                         !
 ! A99   A(53,52,56)           120.1132                                         !
 ! A100  A(50,54,55)           119.789                                          !
 ! A101  A(50,54,56)           119.9996                                         !
 ! A102  A(55,54,56)           120.2094                                         !
 ! A103  A(52,56,54)           119.6883                                         !
 ! A104  A(52,56,57)           120.1721                                         !
 ! A105  A(54,56,57)           120.134                                          !
 ! A106  A(42,58,59)           116.3728                                         !
 ! A107  A(42,58,60)           119.1202                                         !
 ! A108  A(59,58,60)           115.8853                                         !
 ! A109  A(58,60,61)           106.0455                                         !
 ! A110  A(58,60,62)           107.291                                          !
 ! A111  A(58,60,63)           110.6854                                         !
 ! A112  A(61,60,62)           109.8469                                         !
 ! A113  A(61,60,63)           110.6075                                         !
 ! A114  A(62,60,63)           112.135                                          !
 ! A115  A(60,62,66)           120.8432                                         !
 ! A116  A(60,62,77)           115.852                                          !
 ! A117  A(66,62,77)           123.2932                                         !
 ! A118  A(60,63,64)           108.5256                                         !
 ! A119  A(60,63,65)           107.6092                                         !
 ! A120  A(60,63,67)           114.7559                                         !
 ! A121  A(64,63,65)           107.5151                                         !
 ! A122  A(64,63,67)           108.5236                                         !
 ! A123  A(65,63,67)           109.6773                                         !
 ! A124  A(63,67,68)           107.3026                                         !
 ! A125  A(63,67,69)           112.5895                                         !
 ! A126  A(63,67,73)           109.6178                                         !
 ! A127  A(68,67,69)           108.3189                                         !
 ! A128  A(68,67,73)           108.0021                                         !
 ! A129  A(69,67,73)           110.835                                          !
 ! A130  A(67,69,70)           111.061                                          !
 ! A131  A(67,69,71)           112.1438                                         !
 ! A132  A(67,69,72)           110.6682                                         !
 ! A133  A(70,69,71)           107.951                                          !
 ! A134  A(70,69,72)           107.5941                                         !
 ! A135  A(71,69,72)           107.2229                                         !
 ! A136  A(67,73,74)           110.9044                                         !
 ! A137  A(67,73,75)           111.0419                                         !
 ! A138  A(67,73,76)           111.3701                                         !
 ! A139  A(74,73,75)           107.6303                                         !
 ! A140  A(74,73,76)           107.8122                                         !
 ! A141  A(75,73,76)           107.9221                                         !
 ! A142  A(62,77,78)           115.903                                          !
 ! A143  A(62,77,79)           122.7462                                         !
 ! A144  A(78,77,79)           115.883                                          !
 ! A145  A(77,79,80)           106.8745                                         !
 ! A146  A(77,79,81)           114.4633                                         !
 ! A147  A(77,79,82)           111.2635                                         !
 ! A148  A(80,79,81)           103.7479                                         !
 ! A149  A(80,79,82)           108.7212                                         !
 ! A150  A(81,79,82)           111.2579                                         !
 ! A151  A(79,81,85)           121.5538                                         !
 ! A152  A(79,81,92)           116.1298                                         !
 ! A153  A(85,81,92)           122.0471                                         !
 ! A154  A(79,82,83)           106.4042                                         !
 ! A155  A(79,82,84)           110.6131                                         !
 ! A156  A(79,82,86)           112.5959                                         !
 ! A157  A(83,82,84)           106.3584                                         !
 ! A158  A(83,82,86)           109.9838                                         !
 ! A159  A(84,82,86)           110.6131                                         !
 ! A160  A(82,86,87)           109.0366                                         !
 ! A161  A(82,86,88)           110.2349                                         !
 ! A162  A(82,86,89)           111.587                                          !
 ! A163  A(87,86,88)           107.9708                                         !
 ! A164  A(87,86,89)           110.401                                          !
 ! A165  A(88,86,89)           107.5393                                         !
 ! A166  A(86,89,90)           122.7041                                         !
 ! A167  A(86,89,91)           115.9848                                         !
 ! A168  A(90,89,91)           121.3107                                         !
 ! A169  A(81,92,93)           115.7144                                         !
 ! A170  A(81,92,94)           117.6463                                         !
 ! A171  A(93,92,94)           117.9129                                         !
 ! A172  A(92,94,95)           105.2995                                         !
 ! A173  A(92,94,96)           110.2128                                         !
 ! A174  A(92,94,97)           113.3586                                         !
 ! A175  A(95,94,96)           108.698                                          !
 ! A176  A(95,94,97)           109.9491                                         !
 ! A177  A(96,94,97)           109.1844                                         !
 ! A178  A(94,96,100)          121.7125                                         !
 ! A179  A(94,96,106)          115.2469                                         !
 ! A180  A(100,96,106)         122.9982                                         !
 ! A181  A(94,97,98)           109.5534                                         !
 ! A182  A(94,97,99)           111.0032                                         !
 ! A183  A(94,97,101)          114.2908                                         !
 ! A184  A(98,97,99)           107.8737                                         !
 ! A185  A(98,97,101)          107.6221                                         !
 ! A186  A(99,97,101)          106.2364                                         !
 ! A187  A(97,101,102)         118.8243                                         !
 ! A188  A(97,101,105)         119.6303                                         !
 ! A189  A(102,101,105)        121.395                                          !
 ! A190  A(101,102,103)        116.5674                                         !
 ! A191  A(101,102,104)        122.7319                                         !
 ! A192  A(103,102,104)        113.0559                                         !
 ! A193  A(96,106,107)         119.3272                                         !
 ! A194  A(96,106,108)         119.5879                                         !
 ! A195  A(107,106,108)        120.7231                                         !
 ! A196  A(106,108,109)        108.5921                                         !
 ! A197  A(106,108,110)        107.5673                                         !
 ! A198  A(106,108,111)        110.37                                           !
 ! A199  A(109,108,110)        108.7848                                         !
 ! A200  A(109,108,111)        108.9348                                         !
 ! A201  A(110,108,111)        112.5055                                         !
 ! A202  A(108,110,114)        122.3519                                         !
 ! A203  A(108,110,127)        115.1998                                         !
 ! A204  A(114,110,127)        122.4468                                         !
 ! A205  A(108,111,112)        108.4476                                         !
 ! A206  A(108,111,113)        107.6403                                         !
 ! A207  A(108,111,115)        111.1563                                         !
 ! A208  A(112,111,113)        106.8769                                         !
 ! A209  A(112,111,115)        110.8521                                         !
 ! A210  A(113,111,115)        111.6863                                         !
 ! A211  A(111,115,116)        120.9838                                         !
 ! A212  A(111,115,118)        121.3528                                         !
 ! A213  A(116,115,118)        117.5122                                         !
 ! A214  A(115,116,117)        119.4992                                         !
 ! A215  A(115,116,120)        121.4437                                         !
 ! A216  A(117,116,120)        119.057                                          !
 ! A217  A(115,118,119)        119.605                                          !
 ! A218  A(115,118,122)        121.6559                                         !
 ! A219  A(119,118,122)        118.738                                          !
 ! A220  A(116,120,121)        120.1757                                         !
 ! A221  A(116,120,126)        121.366                                          !
 ! A222  A(121,120,126)        118.4573                                         !
 ! A223  A(118,122,123)        120.194                                          !
 ! A224  A(118,122,126)        121.2028                                         !
 ! A225  A(123,122,126)        118.6028                                         !
 ! A226  A(125,124,126)        113.2641                                         !
 ! A227  A(120,126,122)        116.7581                                         !
 ! A228  A(120,126,124)        121.3638                                         !
 ! A229  A(122,126,124)        121.8772                                         !
 ! A230  A(110,127,128)        119.3244                                         !
 ! A231  A(110,127,129)        121.7926                                         !
 ! A232  A(128,127,129)        118.3714                                         !
 ! A233  A(127,129,130)        106.163                                          !
 ! A234  A(127,129,131)        113.3642                                         !
 ! A235  A(127,129,132)        112.9331                                         !
 ! A236  A(130,129,131)        106.6403                                         !
 ! A237  A(130,129,132)        108.3552                                         !
 ! A238  A(131,129,132)        109.0442                                         !
 ! A239  A(129,131,135)        122.8893                                         !
 ! A240  A(129,131,151)        113.4232                                         !
 ! A241  A(135,131,151)        123.6781                                         !
 ! A242  A(129,132,133)        108.8967                                         !
 ! A243  A(129,132,134)        106.8701                                         !
 ! A244  A(129,132,136)        112.3613                                         !
 ! A245  A(133,132,134)        106.944                                          !
 ! A246  A(133,132,136)        109.5731                                         !
 ! A247  A(134,132,136)        111.9932                                         !
 ! A248  A(132,136,137)        109.642                                          !
 ! A249  A(132,136,138)        110.0924                                         !
 ! A250  A(132,136,139)        114.0966                                         !
 ! A251  A(137,136,138)        106.2066                                         !
 ! A252  A(137,136,139)        109.4278                                         !
 ! A253  A(138,136,139)        107.0544                                         !
 ! A254  A(136,139,140)        110.473                                          !
 ! A255  A(136,139,141)        111.1192                                         !
 ! A256  A(136,139,142)        113.2233                                         !
 ! A257  A(140,139,141)        106.986                                          !
 ! A258  A(140,139,142)        108.4093                                         !
 ! A259  A(141,139,142)        106.3481                                         !
 ! A260  A(139,142,143)        115.9992                                         !
 ! A261  A(139,142,150)        125.7459                                         !
 ! A262  A(143,142,150)        115.9692                                         !
 ! A263  A(145,144,146)        114.7811                                         !
 ! A264  A(145,144,150)        118.6238                                         !
 ! A265  A(146,144,150)        125.3823                                         !
 ! A266  A(148,147,149)        116.1894                                         !
 ! A267  A(148,147,150)        120.4327                                         !
 ! A268  A(149,147,150)        120.449                                          !
 ! A269  A(142,150,144)        122.477                                          !
 ! A270  A(142,150,147)        118.0157                                         !
 ! A271  A(144,150,147)        119.4978                                         !
 ! A272  A(131,151,152)        106.6761                                         !
 ! D1    D(2,1,5,6)             31.6082                                         !
 ! D2    D(2,1,5,7)            -87.428                                          !
 ! D3    D(2,1,5,8)            153.7946                                         !
 ! D4    D(3,1,5,6)            148.0543                                         !
 ! D5    D(3,1,5,7)             29.0182                                         !
 ! D6    D(3,1,5,8)            -89.7593                                         !
 ! D7    D(4,1,5,6)            -91.8847                                         !
 ! D8    D(4,1,5,7)            149.0792                                         !
 ! D9    D(4,1,5,8)             30.3017                                         !
 ! D10   D(1,5,7,10)           -32.7892                                         !
 ! D11   D(1,5,7,19)           148.8344                                         !
 ! D12   D(6,5,7,10)          -151.0564                                         !
 ! D13   D(6,5,7,19)            30.5672                                         !
 ! D14   D(8,5,7,10)            82.9386                                         !
 ! D15   D(8,5,7,19)           -95.4378                                         !
 ! D16   D(1,5,8,9)             41.2474                                         !
 ! D17   D(1,5,8,11)           158.2163                                         !
 ! D18   D(1,5,8,15)           -78.2484                                         !
 ! D19   D(6,5,8,9)            162.8805                                         !
 ! D20   D(6,5,8,11)           -80.1506                                         !
 ! D21   D(6,5,8,15)            43.3847                                         !
 ! D22   D(7,5,8,9)            -71.0106                                         !
 ! D23   D(7,5,8,11)            45.9583                                         !
 ! D24   D(7,5,8,15)           169.4936                                         !
 ! D25   D(5,7,19,20)           -7.348                                          !
 ! D26   D(5,7,19,21)          165.4023                                         !
 ! D27   D(10,7,19,20)         174.4764                                         !
 ! D28   D(10,7,19,21)         -12.7733                                         !
 ! D29   D(5,8,11,12)           56.5439                                         !
 ! D30   D(5,8,11,13)          175.391                                          !
 ! D31   D(5,8,11,14)          -65.8584                                         !
 ! D32   D(9,8,11,12)          173.2862                                         !
 ! D33   D(9,8,11,13)          -67.8667                                         !
 ! D34   D(9,8,11,14)           50.8839                                         !
 ! D35   D(15,8,11,12)         -66.768                                          !
 ! D36   D(15,8,11,13)          52.0791                                         !
 ! D37   D(15,8,11,14)         170.8296                                         !
 ! D38   D(5,8,15,16)          -70.0043                                         !
 ! D39   D(5,8,15,17)           51.3991                                         !
 ! D40   D(5,8,15,18)          171.1408                                         !
 ! D41   D(9,8,15,16)          172.5293                                         !
 ! D42   D(9,8,15,17)          -66.0673                                         !
 ! D43   D(9,8,15,18)           53.6744                                         !
 ! D44   D(11,8,15,16)          54.3586                                         !
 ! D45   D(11,8,15,17)         175.762                                          !
 ! D46   D(11,8,15,18)         -64.4963                                         !
 ! D47   D(7,19,21,22)           0.3345                                         !
 ! D48   D(7,19,21,23)        -117.279                                          !
 ! D49   D(7,19,21,24)         122.3685                                         !
 ! D50   D(20,19,21,22)        172.8327                                         !
 ! D51   D(20,19,21,23)         55.2192                                         !
 ! D52   D(20,19,21,24)        -65.1333                                         !
 ! D53   D(19,21,23,26)        -73.0217                                         !
 ! D54   D(19,21,23,38)        104.1443                                         !
 ! D55   D(22,21,23,26)        171.7009                                         !
 ! D56   D(22,21,23,38)        -11.1331                                         !
 ! D57   D(24,21,23,26)         47.8306                                         !
 ! D58   D(24,21,23,38)       -135.0034                                         !
 ! D59   D(19,21,24,25)         53.4754                                         !
 ! D60   D(19,21,24,27)        -63.6801                                         !
 ! D61   D(19,21,24,30)        169.9275                                         !
 ! D62   D(22,21,24,25)        173.891                                          !
 ! D63   D(22,21,24,27)         56.7354                                         !
 ! D64   D(22,21,24,30)        -69.657                                          !
 ! D65   D(23,21,24,25)        -61.9706                                         !
 ! D66   D(23,21,24,27)       -179.1261                                         !
 ! D67   D(23,21,24,30)         54.4815                                         !
 ! D68   D(21,23,38,39)         -8.0598                                         !
 ! D69   D(21,23,38,40)       -156.6907                                         !
 ! D70   D(26,23,38,39)        169.0468                                         !
 ! D71   D(26,23,38,40)         20.4159                                         !
 ! D72   D(21,24,27,28)        175.8457                                         !
 ! D73   D(21,24,27,29)         61.4688                                         !
 ! D74   D(21,24,27,34)        -61.4158                                         !
 ! D75   D(25,24,27,28)         59.5353                                         !
 ! D76   D(25,24,27,29)        -54.8416                                         !
 ! D77   D(25,24,27,34)       -177.7262                                         !
 ! D78   D(30,24,27,28)        -59.2426                                         !
 ! D79   D(30,24,27,29)       -173.6196                                         !
 ! D80   D(30,24,27,34)         63.4958                                         !
 ! D81   D(21,24,30,31)         51.5841                                         !
 ! D82   D(21,24,30,32)        -70.2779                                         !
 ! D83   D(21,24,30,33)        171.2238                                         !
 ! D84   D(25,24,30,31)        167.2548                                         !
 ! D85   D(25,24,30,32)         45.3928                                         !
 ! D86   D(25,24,30,33)        -73.1055                                         !
 ! D87   D(27,24,30,31)        -73.8881                                         !
 ! D88   D(27,24,30,32)        164.25                                           !
 ! D89   D(27,24,30,33)         45.7516                                         !
 ! D90   D(24,27,34,35)       -174.5014                                         !
 ! D91   D(24,27,34,36)        -55.094                                          !
 ! D92   D(24,27,34,37)         66.3533                                         !
 ! D93   D(28,27,34,35)        -52.8956                                         !
 ! D94   D(28,27,34,36)         66.5118                                         !
 ! D95   D(28,27,34,37)       -172.0409                                         !
 ! D96   D(29,27,34,35)         62.5606                                         !
 ! D97   D(29,27,34,36)       -178.032                                          !
 ! D98   D(29,27,34,37)        -56.5846                                         !
 ! D99   D(23,38,40,41)         59.3758                                         !
 ! D100  D(23,38,40,42)        -56.1908                                         !
 ! D101  D(23,38,40,43)        178.5067                                         !
 ! D102  D(39,38,40,41)        -89.7855                                         !
 ! D103  D(39,38,40,42)        154.6479                                         !
 ! D104  D(39,38,40,43)         29.3455                                         !
 ! D105  D(38,40,42,46)        146.8691                                         !
 ! D106  D(38,40,42,58)        -35.5399                                         !
 ! D107  D(41,40,42,46)         28.2422                                         !
 ! D108  D(41,40,42,58)       -154.1669                                         !
 ! D109  D(43,40,42,46)        -88.4401                                         !
 ! D110  D(43,40,42,58)         89.1509                                         !
 ! D111  D(38,40,43,44)        177.7619                                         !
 ! D112  D(38,40,43,45)         61.6234                                         !
 ! D113  D(38,40,43,47)        -61.1038                                         !
 ! D114  D(41,40,43,44)        -62.649                                          !
 ! D115  D(41,40,43,45)       -178.7875                                         !
 ! D116  D(41,40,43,47)         58.4853                                         !
 ! D117  D(42,40,43,44)         51.2652                                         !
 ! D118  D(42,40,43,45)        -64.8733                                         !
 ! D119  D(42,40,43,47)        172.3995                                         !
 ! D120  D(40,42,58,59)         16.4597                                         !
 ! D121  D(40,42,58,60)        162.9699                                         !
 ! D122  D(46,42,58,59)       -166.0552                                         !
 ! D123  D(46,42,58,60)        -19.545                                          !
 ! D124  D(40,43,47,48)        -77.6831                                         !
 ! D125  D(40,43,47,50)         97.8365                                         !
 ! D126  D(44,43,47,48)         41.1298                                         !
 ! D127  D(44,43,47,50)       -143.3506                                         !
 ! D128  D(45,43,47,48)        160.7049                                         !
 ! D129  D(45,43,47,50)        -23.7755                                         !
 ! D130  D(43,47,48,49)         -4.6444                                         !
 ! D131  D(43,47,48,52)        175.2216                                         !
 ! D132  D(50,47,48,49)        179.7268                                         !
 ! D133  D(50,47,48,52)         -0.4072                                         !
 ! D134  D(43,47,50,51)          6.1369                                         !
 ! D135  D(43,47,50,54)       -174.8116                                         !
 ! D136  D(48,47,50,51)       -178.2791                                         !
 ! D137  D(48,47,50,54)          0.7725                                         !
 ! D138  D(47,48,52,53)        179.3524                                         !
 ! D139  D(47,48,52,56)         -0.3132                                         !
 ! D140  D(49,48,52,53)         -0.7824                                         !
 ! D141  D(49,48,52,56)        179.5521                                         !
 ! D142  D(47,50,54,55)       -179.9079                                         !
 ! D143  D(47,50,54,56)         -0.4173                                         !
 ! D144  D(51,50,54,55)         -0.8581                                         !
 ! D145  D(51,50,54,56)        178.6324                                         !
 ! D146  D(48,52,56,54)          0.6765                                         !
 ! D147  D(48,52,56,57)        179.8196                                         !
 ! D148  D(53,52,56,54)       -178.9878                                         !
 ! D149  D(53,52,56,57)          0.1554                                         !
 ! D150  D(50,54,56,52)         -0.3138                                         !
 ! D151  D(50,54,56,57)       -179.4573                                         !
 ! D152  D(55,54,56,52)        179.1746                                         !
 ! D153  D(55,54,56,57)          0.0311                                         !
 ! D154  D(42,58,60,61)         42.8205                                         !
 ! D155  D(42,58,60,62)        -74.5357                                         !
 ! D156  D(42,58,60,63)        162.8245                                         !
 ! D157  D(59,58,60,61)       -170.5115                                         !
 ! D158  D(59,58,60,62)         72.1323                                         !
 ! D159  D(59,58,60,63)        -50.5075                                         !
 ! D160  D(58,60,62,66)        -92.6334                                         !
 ! D161  D(58,60,62,77)         86.1636                                         !
 ! D162  D(61,60,62,66)        152.5242                                         !
 ! D163  D(61,60,62,77)        -28.6788                                         !
 ! D164  D(63,60,62,66)         29.1032                                         !
 ! D165  D(63,60,62,77)       -152.0997                                         !
 ! D166  D(58,60,63,64)         57.7312                                         !
 ! D167  D(58,60,63,65)        -58.3322                                         !
 ! D168  D(58,60,63,67)        179.2976                                         !
 ! D169  D(61,60,63,64)        174.9649                                         !
 ! D170  D(61,60,63,65)         58.9016                                         !
 ! D171  D(61,60,63,67)        -63.4687                                         !
 ! D172  D(62,60,63,64)        -62.0423                                         !
 ! D173  D(62,60,63,65)       -178.1057                                         !
 ! D174  D(62,60,63,67)         59.5241                                         !
 ! D175  D(60,62,77,78)         -7.9625                                         !
 ! D176  D(60,62,77,79)       -160.7499                                         !
 ! D177  D(66,62,77,78)        170.8019                                         !
 ! D178  D(66,62,77,79)         18.0145                                         !
 ! D179  D(60,63,67,68)        -64.9956                                         !
 ! D180  D(60,63,67,69)         54.093                                          !
 ! D181  D(60,63,67,73)        177.9599                                         !
 ! D182  D(64,63,67,68)         56.5719                                         !
 ! D183  D(64,63,67,69)        175.6605                                         !
 ! D184  D(64,63,67,73)        -60.4727                                         !
 ! D185  D(65,63,67,68)        173.7592                                         !
 ! D186  D(65,63,67,69)        -67.1522                                         !
 ! D187  D(65,63,67,73)         56.7147                                         !
 ! D188  D(63,67,69,70)         56.0355                                         !
 ! D189  D(63,67,69,71)        -64.8468                                         !
 ! D190  D(63,67,69,72)        175.4721                                         !
 ! D191  D(68,67,69,70)        174.53                                           !
 ! D192  D(68,67,69,71)         53.6476                                         !
 ! D193  D(68,67,69,72)        -66.0335                                         !
 ! D194  D(73,67,69,70)        -67.1545                                         !
 ! D195  D(73,67,69,71)        171.9632                                         !
 ! D196  D(73,67,69,72)         52.2821                                         !
 ! D197  D(63,67,73,74)        -64.1626                                         !
 ! D198  D(63,67,73,75)        176.2127                                         !
 ! D199  D(63,67,73,76)         55.909                                          !
 ! D200  D(68,67,73,74)        179.2331                                         !
 ! D201  D(68,67,73,75)         59.6084                                         !
 ! D202  D(68,67,73,76)        -60.6953                                         !
 ! D203  D(69,67,73,74)         60.7255                                         !
 ! D204  D(69,67,73,75)        -58.8992                                         !
 ! D205  D(69,67,73,76)       -179.2029                                         !
 ! D206  D(62,77,79,80)         33.3273                                         !
 ! D207  D(62,77,79,81)        -80.9305                                         !
 ! D208  D(62,77,79,82)        151.8789                                         !
 ! D209  D(78,77,79,80)       -119.4651                                         !
 ! D210  D(78,77,79,81)        126.2771                                         !
 ! D211  D(78,77,79,82)         -0.9135                                         !
 ! D212  D(77,79,81,85)       -147.77                                           !
 ! D213  D(77,79,81,92)         38.0753                                         !
 ! D214  D(80,79,81,85)         96.1503                                         !
 ! D215  D(80,79,81,92)        -78.0044                                         !
 ! D216  D(82,79,81,85)        -20.5765                                         !
 ! D217  D(82,79,81,92)        165.2687                                         !
 ! D218  D(77,79,82,83)        166.3008                                         !
 ! D219  D(77,79,82,84)         51.1873                                         !
 ! D220  D(77,79,82,86)        -73.142                                          !
 ! D221  D(80,79,82,83)        -76.2628                                         !
 ! D222  D(80,79,82,84)        168.6237                                         !
 ! D223  D(80,79,82,86)         44.2944                                         !
 ! D224  D(81,79,82,83)         37.3835                                         !
 ! D225  D(81,79,82,84)        -77.7299                                         !
 ! D226  D(81,79,82,86)        157.9407                                         !
 ! D227  D(79,81,92,93)         15.9567                                         !
 ! D228  D(79,81,92,94)        162.9713                                         !
 ! D229  D(85,81,92,93)       -158.1667                                         !
 ! D230  D(85,81,92,94)        -11.1521                                         !
 ! D231  D(79,82,86,87)        -43.721                                          !
 ! D232  D(79,82,86,88)         74.641                                          !
 ! D233  D(79,82,86,89)       -165.9356                                         !
 ! D234  D(83,82,86,87)         74.7578                                         !
 ! D235  D(83,82,86,88)       -166.8802                                         !
 ! D236  D(83,82,86,89)        -47.4568                                         !
 ! D237  D(84,82,86,87)       -168.0503                                         !
 ! D238  D(84,82,86,88)        -49.6884                                         !
 ! D239  D(84,82,86,89)         69.735                                          !
 ! D240  D(82,86,89,90)        -67.0306                                         !
 ! D241  D(82,86,89,91)        113.1949                                         !
 ! D242  D(87,86,89,90)        171.543                                          !
 ! D243  D(87,86,89,91)         -8.2315                                         !
 ! D244  D(88,86,89,90)         53.9766                                         !
 ! D245  D(88,86,89,91)       -125.7979                                         !
 ! D246  D(81,92,94,95)         34.8915                                         !
 ! D247  D(81,92,94,96)        -82.1663                                         !
 ! D248  D(81,92,94,97)        155.1197                                         !
 ! D249  D(93,92,94,95)       -178.8253                                         !
 ! D250  D(93,92,94,96)         64.1169                                         !
 ! D251  D(93,92,94,97)        -58.5971                                         !
 ! D252  D(92,94,96,100)      -106.8952                                         !
 ! D253  D(92,94,96,106)        75.4068                                         !
 ! D254  D(95,94,96,100)       138.1782                                         !
 ! D255  D(95,94,96,106)       -39.5198                                         !
 ! D256  D(97,94,96,100)        18.2358                                         !
 ! D257  D(97,94,96,106)      -159.4622                                         !
 ! D258  D(92,94,97,98)        -59.4481                                         !
 ! D259  D(92,94,97,99)         59.5802                                         !
 ! D260  D(92,94,97,101)       179.7037                                         !
 ! D261  D(95,94,97,98)         58.1022                                         !
 ! D262  D(95,94,97,99)        177.1304                                         !
 ! D263  D(95,94,97,101)       -62.7461                                         !
 ! D264  D(96,94,97,98)        177.2709                                         !
 ! D265  D(96,94,97,99)        -63.7009                                         !
 ! D266  D(96,94,97,101)        56.4226                                         !
 ! D267  D(94,96,106,107)       -4.8268                                         !
 ! D268  D(94,96,106,108)      168.3193                                         !
 ! D269  D(100,96,106,107)     177.5081                                         !
 ! D270  D(100,96,106,108)      -9.3457                                         !
 ! D271  D(94,97,101,102)       24.6703                                         !
 ! D272  D(94,97,101,105)     -159.7246                                         !
 ! D273  D(98,97,101,102)      -97.2429                                         !
 ! D274  D(98,97,101,105)       78.3622                                         !
 ! D275  D(99,97,101,102)      147.4221                                         !
 ! D276  D(99,97,101,105)      -36.9728                                         !
 ! D277  D(97,101,102,103)    -175.7813                                         !
 ! D278  D(97,101,102,104)     -28.4361                                         !
 ! D279  D(105,101,102,103)      8.6943                                         !
 ! D280  D(105,101,102,104)    156.0395                                         !
 ! D281  D(96,106,108,109)      58.2142                                         !
 ! D282  D(96,106,108,110)     -59.3577                                         !
 ! D283  D(96,106,108,111)     177.561                                          !
 ! D284  D(107,106,108,109)   -128.7374                                         !
 ! D285  D(107,106,108,110)    113.6908                                         !
 ! D286  D(107,106,108,111)     -9.3905                                         !
 ! D287  D(106,108,110,114)    -33.1791                                         !
 ! D288  D(106,108,110,127)    146.385                                          !
 ! D289  D(109,108,110,114)   -150.6258                                         !
 ! D290  D(109,108,110,127)     28.9384                                         !
 ! D291  D(111,108,110,114)     88.5819                                         !
 ! D292  D(111,108,110,127)    -91.854                                          !
 ! D293  D(106,108,111,112)     64.9501                                         !
 ! D294  D(106,108,111,113)   -179.7586                                         !
 ! D295  D(106,108,111,115)    -57.1536                                         !
 ! D296  D(109,108,111,112)   -175.9109                                         !
 ! D297  D(109,108,111,113)    -60.6197                                         !
 ! D298  D(109,108,111,115)     61.9854                                         !
 ! D299  D(110,108,111,112)    -55.2047                                         !
 ! D300  D(110,108,111,113)     60.0865                                         !
 ! D301  D(110,108,111,115)   -177.3084                                         !
 ! D302  D(108,110,127,128)     -2.2408                                         !
 ! D303  D(108,110,127,129)   -173.8998                                         !
 ! D304  D(114,110,127,128)    177.3229                                         !
 ! D305  D(114,110,127,129)      5.6639                                         !
 ! D306  D(108,111,115,116)    -71.9464                                         !
 ! D307  D(108,111,115,118)    103.4726                                         !
 ! D308  D(112,111,115,116)    167.3565                                         !
 ! D309  D(112,111,115,118)    -17.2244                                         !
 ! D310  D(113,111,115,116)     48.2914                                         !
 ! D311  D(113,111,115,118)   -136.2895                                         !
 ! D312  D(111,115,116,117)     -5.3889                                         !
 ! D313  D(111,115,116,120)    174.477                                          !
 ! D314  D(118,115,116,117)    179.0216                                         !
 ! D315  D(118,115,116,120)     -1.1125                                         !
 ! D316  D(111,115,118,119)      4.9135                                         !
 ! D317  D(111,115,118,122)   -174.7202                                         !
 ! D318  D(116,115,118,119)   -179.5143                                         !
 ! D319  D(116,115,118,122)      0.852                                          !
 ! D320  D(115,116,120,121)    179.0514                                         !
 ! D321  D(115,116,120,126)     -0.591                                          !
 ! D322  D(117,116,120,121)     -1.0821                                         !
 ! D323  D(117,116,120,126)    179.2755                                         !
 ! D324  D(115,118,122,123)   -178.6637                                         !
 ! D325  D(115,118,122,126)      1.1209                                         !
 ! D326  D(119,118,122,123)      1.6995                                         !
 ! D327  D(119,118,122,126)   -178.5159                                         !
 ! D328  D(116,120,126,122)      2.4769                                         !
 ! D329  D(116,120,126,124)   -177.1722                                         !
 ! D330  D(121,120,126,122)   -177.1714                                         !
 ! D331  D(121,120,126,124)      3.1794                                         !
 ! D332  D(118,122,126,120)     -2.7327                                         !
 ! D333  D(118,122,126,124)    176.9144                                         !
 ! D334  D(123,122,126,120)    177.0552                                         !
 ! D335  D(123,122,126,124)     -3.2976                                         !
 ! D336  D(125,124,126,120)    176.9302                                         !
 ! D337  D(125,124,126,122)     -2.7008                                         !
 ! D338  D(110,127,129,130)    -25.5394                                         !
 ! D339  D(110,127,129,131)   -142.282                                          !
 ! D340  D(110,127,129,132)     93.0566                                         !
 ! D341  D(128,127,129,130)    162.7249                                         !
 ! D342  D(128,127,129,131)     45.9823                                         !
 ! D343  D(128,127,129,132)    -78.6791                                         !
 ! D344  D(127,129,131,135)   -176.6611                                         !
 ! D345  D(127,129,131,151)      2.26                                           !
 ! D346  D(130,129,131,135)     66.8768                                         !
 ! D347  D(130,129,131,151)   -114.202                                          !
 ! D348  D(132,129,131,135)    -49.9229                                         !
 ! D349  D(132,129,131,151)    128.9983                                         !
 ! D350  D(127,129,132,133)     64.4303                                         !
 ! D351  D(127,129,132,134)    179.6253                                         !
 ! D352  D(127,129,132,136)    -57.1509                                         !
 ! D353  D(130,129,132,133)   -178.2572                                         !
 ! D354  D(130,129,132,134)    -63.0622                                         !
 ! D355  D(130,129,132,136)     60.1616                                         !
 ! D356  D(131,129,132,133)    -62.5538                                         !
 ! D357  D(131,129,132,134)     52.6412                                         !
 ! D358  D(131,129,132,136)    175.865                                          !
 ! D359  D(129,131,151,152)    179.9671                                         !
 ! D360  D(135,131,151,152)     -1.1215                                         !
 ! D361  D(129,132,136,137)    -56.6686                                         !
 ! D362  D(129,132,136,138)     59.8256                                         !
 ! D363  D(129,132,136,139)   -179.7966                                         !
 ! D364  D(133,132,136,137)   -177.863                                          !
 ! D365  D(133,132,136,138)    -61.3688                                         !
 ! D366  D(133,132,136,139)     59.009                                          !
 ! D367  D(134,132,136,137)     63.6349                                         !
 ! D368  D(134,132,136,138)   -179.8709                                         !
 ! D369  D(134,132,136,139)    -59.4931                                         !
 ! D370  D(132,136,139,140)   -168.1368                                         !
 ! D371  D(132,136,139,141)    -49.5496                                         !
 ! D372  D(132,136,139,142)     70.0594                                         !
 ! D373  D(137,136,139,140)     68.619                                          !
 ! D374  D(137,136,139,141)   -172.7938                                         !
 ! D375  D(137,136,139,142)    -53.1848                                         !
 ! D376  D(138,136,139,140)    -46.0745                                         !
 ! D377  D(138,136,139,141)     72.5127                                         !
 ! D378  D(138,136,139,142)   -167.8783                                         !
 ! D379  D(136,139,142,143)    -73.5976                                         !
 ! D380  D(136,139,142,150)     88.4526                                         !
 ! D381  D(140,139,142,143)    163.4497                                         !
 ! D382  D(140,139,142,150)    -34.5001                                         !
 ! D383  D(141,139,142,143)     48.7098                                         !
 ! D384  D(141,139,142,150)   -149.24                                           !
 ! D385  D(139,142,150,144)      2.5384                                         !
 ! D386  D(139,142,150,147)   -176.3323                                         !
 ! D387  D(143,142,150,144)    164.5934                                         !
 ! D388  D(143,142,150,147)    -14.2774                                         !
 ! D389  D(145,144,150,142)    166.3331                                         !
 ! D390  D(145,144,150,147)    -14.8123                                         !
 ! D391  D(146,144,150,142)     -0.3915                                         !
 ! D392  D(146,144,150,147)    178.4631                                         !
 ! D393  D(148,147,150,142)   -179.8949                                         !
 ! D394  D(148,147,150,144)      1.1996                                         !
 ! D395  D(149,147,150,142)    -19.9955                                         !
 ! D396  D(149,147,150,144)    161.099                                          !
 --------------------------------------------------------------------------------
 Symmetry turned off by external request.
 Stoichiometry    C50H77N12O13(1+)
 Framework group  C1[X(C50H77N12O13)]
 Deg. of freedom   450
 Full point group                 C1      NOp   1
                          Input orientation:                          
 ---------------------------------------------------------------------
 Center     Atomic      Atomic             Coordinates (Angstroms)
 Number     Number       Type             X           Y           Z
 ---------------------------------------------------------------------
      1          7           0       -3.332047    4.137340    6.702705
[...]
 Alpha virt. eigenvalues --    1.87876   1.88127   1.88469   1.89038   1.89249
 Alpha virt. eigenvalues --    1.89372   1.89444   1.89867   1.89902   1.90239
 Alpha virt. eigenvalues --    1.90602   1.90953   1.91060   1.91385   1.91632
 Alpha virt. eigenvalues --    1.92007   1.92259   1.92580   1.92930   1.93198
 Alpha virt. eigenvalues --    1.93323   1.93536   1.93898   1.94019   1.94293
 Alpha virt. eigenvalues --    1.94551   1.94953   1.94986   1.95307   1.95430
 Alpha virt. eigenvalues --    1.95881   1.96040   1.96337   1.96717   1.96811
 Alpha virt. eigenvalues --    1.97117   1.97628   1.98090   1.98350   1.98498
 Alpha virt. eigenvalues --    1.99060   1.99511   1.99689   1.99744   2.00146
 Alpha virt. eigenvalues --    2.00250   2.00648   2.00743   2.01105   2.01628
 Alpha virt. eigenvalues --    2.01840   2.02549   2.02620   2.02950   2.03270
 Alpha virt. eigenvalues --    2.03414   2.03866   2.04237   2.04303   2.04627
 Alpha virt. eigenvalues --    2.04935   2.05148   2.05490   2.06229   2.06787
 Alpha virt. eigenvalues --    2.07196   2.07325   2.08003   2.08183   2.08718
 Alpha virt. eigenvalues --    2.08827   2.09375   2.09466   2.10069   2.10640
 Alpha virt. eigenvalues --    2.10690   2.10840   2.11619   2.11844   2.12015
 Alpha virt. eigenvalues --    2.12797   2.13017   2.13061   2.14579   2.14933
 Alpha virt. eigenvalues --    2.15286   2.15763   2.15807   2.16157   2.16477
 Alpha virt. eigenvalues --    2.16851   2.17318   2.17693   2.17985   2.18824
 Alpha virt. eigenvalues --    2.19079   2.19430   2.19604   2.19749   2.19875
 Alpha virt. eigenvalues --    2.20575   2.21054   2.21474   2.22316   2.22335
 Alpha virt. eigenvalues --    2.23245   2.24097   2.24222   2.24283   2.24693
 Alpha virt. eigenvalues --    2.25341   2.25572   2.25948   2.26440   2.27081
 Alpha virt. eigenvalues --    2.27193   2.27351   2.27893   2.28681   2.28994
 Alpha virt. eigenvalues --    2.29402   2.29608   2.29803   2.30870   2.31045
 Alpha virt. eigenvalues --    2.31317   2.31686   2.32360   2.32651   2.32829
 Alpha virt. eigenvalues --    2.33280   2.33585   2.33954   2.34327   2.34903
 Alpha virt. eigenvalues --    2.35711   2.36626   2.36855   2.37144   2.37383
 Alpha virt. eigenvalues --    2.37807   2.38509   2.38838   2.39243   2.39608
 Alpha virt. eigenvalues --    2.39935   2.40872   2.41410   2.41531   2.42290
 Alpha virt. eigenvalues --    2.42735   2.43110   2.43623   2.43889   2.44371
 Alpha virt. eigenvalues --    2.44987   2.45509   2.46044   2.46343   2.46689
 Alpha virt. eigenvalues --    2.47348   2.47823   2.48179   2.48817   2.49266
 Alpha virt. eigenvalues --    2.50327   2.50649   2.50779   2.51624   2.52453
 Alpha virt. eigenvalues --    2.52694   2.53008   2.53192   2.53455   2.53705
 Alpha virt. eigenvalues --    2.53989   2.54791   2.54934   2.55669   2.56403
 Alpha virt. eigenvalues --    2.56555   2.57022   2.57954   2.58226   2.58936
 Alpha virt. eigenvalues --    2.59146   2.59324   2.60249   2.60670   2.60803
 Alpha virt. eigenvalues --    2.61443   2.61816   2.62337   2.62602   2.63158
 Alpha virt. eigenvalues --    2.64118   2.64246   2.64717   2.65072   2.65386
 Alpha virt. eigenvalues --    2.65571   2.65850   2.66101   2.66375   2.66851
 Alpha virt. eigenvalues --    2.67493   2.67985   2.68291   2.68813   2.69269
 Alpha virt. eigenvalues --    2.69954   2.70499   2.70658   2.71155   2.71560
 Alpha virt. eigenvalues --    2.72437   2.72899   2.73258   2.74380   2.75772
 Alpha virt. eigenvalues --    2.75958   2.77257   2.77345   2.78072   2.78376
 Alpha virt. eigenvalues --    2.79491   2.80343   2.80934   2.82027   2.82319
 Alpha virt. eigenvalues --    2.85103   2.85844   2.87366   2.88465   2.88542
 Alpha virt. eigenvalues --    2.89355   2.90348   2.91412   2.91707   2.92213
 Alpha virt. eigenvalues --    2.93038   2.93957   2.94982   2.95724   2.96344
 Alpha virt. eigenvalues --    2.97114   2.98054   2.98216   2.98971   2.99320
 Alpha virt. eigenvalues --    3.00010   3.00511   3.02323   3.03064   3.05181
 Alpha virt. eigenvalues --    3.05408   3.08662   3.08920   3.09321   3.10154
 Alpha virt. eigenvalues --    3.11270   3.11776   3.11964   3.14204   3.16397
 Alpha virt. eigenvalues --    3.34214   3.38131   3.66652   3.68502   3.75594
 Alpha virt. eigenvalues --    3.76011   3.81975   3.88674   3.93798   3.94300
 Alpha virt. eigenvalues --    3.95723   3.99151   4.01032   4.03287   4.03610
 Alpha virt. eigenvalues --    4.05431   4.05811   4.06671   4.07170   4.07871
 Alpha virt. eigenvalues --    4.08382   4.09467   4.09967   4.10847   4.11157
 Alpha virt. eigenvalues --    4.11635   4.12681   4.13097   4.13416   4.14692
 Alpha virt. eigenvalues --    4.15012   4.16397   4.17718   4.18846   4.20407
 Alpha virt. eigenvalues --    4.21739   4.22608   4.23493   4.24112   4.24199
 Alpha virt. eigenvalues --    4.24807   4.26590   4.28036   4.28539   4.29146
 Alpha virt. eigenvalues --    4.31022   4.31986   4.32461   4.33178   4.34253
 Alpha virt. eigenvalues --    4.35075   4.37152   4.38681   4.39803   4.40843
 Alpha virt. eigenvalues --    4.42074   4.42852   4.43533   4.45288   4.46220
 Alpha virt. eigenvalues --    4.48062   4.49364   4.51979   4.55939   4.56889
 Alpha virt. eigenvalues --    4.58643   4.59053   4.60231   4.60960   4.63786
 Alpha virt. eigenvalues --    4.64691   4.64805   4.65896   4.67707   4.69743
 Alpha virt. eigenvalues --    4.71718   4.78631
          Condensed to atoms (all electrons):
 Mulliken charges:
               1
     1  N   -0.751786
     2  H    0.410525
     3  H    0.414868
     4  H    0.404903
     5  C   -0.127865
     6  H    0.249721
     7  C    0.611804
     8  C   -0.101163
     9  H    0.137476
    10  O   -0.572682
    11  C   -0.478302
    12  H    0.190774
    13  H    0.167986
    14  H    0.155175
    15  C   -0.473207
    16  H    0.223134
    17  H    0.110557
    18  H    0.175119
    19  N   -0.632329
    20  H    0.446326
    21  C   -0.068570
    22  H    0.169745
    23  C    0.625968
    24  C   -0.079277
    25  H    0.170095
    26  O   -0.507842
    27  C   -0.263111
    28  H    0.137812
    29  H    0.135717
    30  C   -0.492364
    31  H    0.136634
    32  H    0.183678
    33  H    0.154234
    34  C   -0.471756
    35  H    0.147284
    36  H    0.149247
    37  H    0.165395
    38  N   -0.652250
    39  H    0.348366
    40  C   -0.031816
    41  H    0.196022
    42  C    0.648407
    43  C   -0.387688
    44  H    0.192375
    45  H    0.164183
    46  O   -0.544532
    47  C    0.155925
    48  C   -0.179577
    49  H    0.149344
    50  C   -0.211799
    51  H    0.135964
    52  C   -0.130278
    53  H    0.143641
    54  C   -0.120647
    55  H    0.145164
    56  C   -0.132602
    57  H    0.140544
    58  N   -0.590271
    59  H    0.340375
    60  C   -0.076391
    61  H    0.185534
    62  C    0.659039
    63  C   -0.263228
    64  H    0.143638
    65  H    0.143992
    66  O   -0.574023
    67  C   -0.080465
    68  H    0.139109
    69  C   -0.454231
    70  H    0.147317
    71  H    0.146140
    72  H    0.146282
    73  C   -0.445129
    74  H    0.144467
    75  H    0.142586
    76  H    0.142782
    77  N   -0.612002
    78  H    0.375141
    79  C   -0.063396
    80  H    0.220475
    81  C    0.623145
    82  C   -0.314932
    83  H    0.192474
    84  H    0.165889
    85  O   -0.538616
    86  C   -0.407127
    87  H    0.178430
    88  H    0.180318
    89  C    0.575680
    90  O   -0.467288
    91  O   -0.645284
    92  N   -0.629667
    93  H    0.385478
    94  C   -0.081769
    95  H    0.188313
    96  C    0.619994
    97  C   -0.348018
    98  H    0.196073
    99  H    0.197725
   100  O   -0.554007
   101  C    0.627341
   102  N   -0.733553
   103  H    0.340522
   104  H    0.387029
   105  O   -0.573013
   106  N   -0.609243
   107  H    0.385911
   108  C   -0.027817
   109  H    0.161695
   110  C    0.651748
   111  C   -0.397876
   112  H    0.167314
   113  H    0.154803
   114  O   -0.559777
   115  C    0.166948
   116  C   -0.190659
   117  H    0.098197
   118  C   -0.199752
   119  H    0.129968
   120  C   -0.203024
   121  H    0.101637
   122  C   -0.216287
   123  H    0.140281
   124  O   -0.767805
   125  H    0.471340
   126  C    0.426781
   127  N   -0.602145
   128  H    0.342327
   129  C   -0.059107
   130  H    0.214004
   131  C    0.595473
   132  C   -0.273194
   133  H    0.144685
   134  H    0.152295
   135  O   -0.457599
   136  C   -0.298801
   137  H    0.135107
   138  H    0.239156
   139  C   -0.197990
   140  H    0.216286
   141  H    0.180360
   142  N   -0.591218
   143  H    0.356953
   144  N   -0.798114
   145  H    0.361995
   146  H    0.440290
   147  N   -0.766273
   148  H    0.374437
   149  H    0.374771
   150  C    0.808157
   151  O   -0.566614
   152  H    0.424826
 Sum of Mulliken charges =   1.00000
 Mulliken charges with hydrogens summed into heavy atoms:
               1
     1  N    0.478510
     5  C    0.121856
     7  C    0.611804
     8  C    0.036313
    10  O   -0.572682
    11  C    0.035633
    15  C    0.035603
    19  N   -0.186003
    21  C    0.101176
    23  C    0.625968
    24  C    0.090818
    26  O   -0.507842
    27  C    0.010418
    30  C   -0.017817
    34  C   -0.009829
    38  N   -0.303883
    40  C    0.164206
    42  C    0.648407
    43  C   -0.031130
    46  O   -0.544532
    47  C    0.155925
    48  C   -0.030233
    50  C   -0.075835
    52  C    0.013363
    54  C    0.024517
    56  C    0.007941
    58  N   -0.249895
    60  C    0.109143
    62  C    0.659039
    63  C    0.024402
    66  O   -0.574023
    67  C    0.058643
    69  C   -0.014491
    73  C   -0.015294
    77  N   -0.236861
    79  C    0.157079
    81  C    0.623145
    82  C    0.043431
    85  O   -0.538616
    86  C   -0.048380
    89  C    0.575680
    90  O   -0.467288
    91  O   -0.173945
    92  N   -0.244189
    94  C    0.106545
    96  C    0.619994
    97  C    0.045780
   100  O   -0.554007
   101  C    0.627341
   102  N   -0.006002
   105  O   -0.573013
   106  N   -0.223332
   108  C    0.133878
   110  C    0.651748
   111  C   -0.075759
   114  O   -0.559777
   115  C    0.166948
   116  C   -0.092462
   118  C   -0.069784
   120  C   -0.101387
   122  C   -0.076006
   124  O   -0.767805
   126  C    0.426781
   127  N   -0.259818
   129  C    0.154898
   131  C    0.595473
   132  C    0.023786
   135  O   -0.457599
   136  C    0.075462
   139  C    0.198656
   142  N   -0.234265
   144  N    0.004172
   147  N   -0.017065
   150  C    0.808157
   151  O   -0.141788
 Electronic spatial extent (au):  <R**2>=          86485.9553
 Charge=              1.0000 electrons
 Dipole moment (field-independent basis, Debye):
    X=             -4.1462    Y=             25.3762    Z=            -16.3034  Tot=             30.4458
 Quadrupole moment (field-independent basis, Debye-Ang):
   XX=           -352.0398   YY=           -291.5215   ZZ=            -91.7524
   XY=             26.2028   XZ=           -190.0663   YZ=            -63.7588
 Traceless Quadrupole moment (field-independent basis, Debye-Ang):
   XX=           -106.9352   YY=            -46.4169   ZZ=            153.3522
   XY=             26.2028   XZ=           -190.0663   YZ=            -63.7588
 Octapole moment (field-independent basis, Debye-Ang**2):
  XXX=            570.7843  YYY=          -1692.7615  ZZZ=          -1721.2755  XYY=            287.4358
  XXY=           -675.6076  XXZ=           -286.3827  XZZ=            654.0937  YZZ=            783.6289
  YYZ=           -473.1328  XYZ=           -637.1816
 Hexadecapole moment (field-independent basis, Debye-Ang**3):
 XXXX=         -25307.0475 YYYY=         -29555.8529 ZZZZ=         -17029.7811 XXXY=          -5178.6176
 XXXZ=           8693.6597 YYYX=          -5159.9894 YYYZ=           4006.8389 ZZZX=          -2708.5674
 ZZZY=          -2105.8112 XXYY=          -9939.5980 XXZZ=          -6471.3871 YYZZ=          -6146.7815
 XXYZ=           1036.0174 YYXZ=           1154.1496 ZZXY=            993.4619
 N-N= 1.405968939981D+04 E-N=-3.643802640512D+04  KE= 3.553606143393D+03
 Unable to Open any file for archive entry.
 1\1\GINC-VIM-002\SP\RB3LYP\6-31G(d)\C50H77N12O13(1+)\KENGMITH\14-Aug-2
 022\0\\# B3LYP/6-31G* empiricaldispersion=gd3 guess=read geom=check no
 symm integral(ultrafinegrid)\\Candidate Structure: Conf:49 Charge calc
  in gas phase\\1,1\N,0,-3.3320467047,4.1373403002,6.702705481\H,0,-3.0
 203599241,5.0853459358,6.4728224218\H,0,-4.3458996548,4.0450447926,6.4
 464827827\H,0,-3.1784644504,3.9724244952,7.7008958361\C,0,-2.678041191
 6,3.0813272614,5.8246368886\H,0,-1.6686323237,3.3927552197,5.53668164\
 C,0,-3.6222593619,3.0284678326,4.6120645366\C,0,-2.6557531141,1.746324
 1566,6.6131117219\H,0,-3.6284547682,1.66311768,7.1245839577\O,0,-4.834
 3237025,3.2364373181,4.8114414901\C,0,-2.5282323397,0.531552609,5.6837
 68096\H,0,-1.638776246,0.6114596789,5.0572681395\H,0,-2.4342921067,-0.
 3749854507,6.2879974953\H,0,-3.4107267688,0.4150273069,5.0505432948\C,
 0,-1.5162966445,1.7589516794,7.6455001192\H,0,-0.546988054,1.707662830
 4,7.1384708921\H,0,-1.5223280879,2.6520318161,8.2882678729\H,0,-1.5963
 183343,0.8897005408,8.3053826067\N,0,-3.0217556221,2.726046132,3.46733
 86915\H,0,-1.9645962312,2.6773755081,3.4960448614\C,0,-3.7338451574,2.
 3188291827,2.2554684721\H,0,-4.8038810548,2.3230060633,2.4800346928\C,
 0,-3.2279288894,0.8929058579,2.0113587443\C,0,-3.4277035012,3.24094082
 97,1.0596513186\H,0,-2.3351246837,3.2724730046,0.9652995885\O,0,-2.091
 6489373,0.7000289685,1.5982749678\C,0,-3.9191326827,4.6796610305,1.318
 5404163\H,0,-3.6032155708,5.2932303456,0.464731082\H,0,-3.3920755746,5
 .0829458983,2.1927555566\C,0,-3.98990389,2.6377108511,-0.2387059172\H,
 0,-5.048256579,2.3645978197,-0.141123928\H,0,-3.4200942076,1.750380212
 5,-0.5341230053\H,0,-3.9110722728,3.3603132378,-1.0580617419\C,0,-5.43
 00030821,4.8405855162,1.5351347837\H,0,-5.6935345684,5.9012417032,1.61
 3139064\H,0,-6.0075829177,4.4210446728,0.7037112945\H,0,-5.7575879067,
 4.355125543,2.4613237917\N,0,-4.0752046111,-0.1322411406,2.3308281585\
 H,0,-4.929233689,0.1083135831,2.8229209501\C,0,-3.5367328496,-1.466345
 6278,2.6191534204\H,0,-2.8483522433,-1.4029466931,3.4696434195\C,0,-2.
 6762923245,-2.0316131721,1.4850341996\C,0,-4.684254487,-2.4341086058,2
 .9868099631\H,0,-4.232864072,-3.417967302,3.1514100519\H,0,-5.36750287
 61,-2.521588966,2.1342152864\O,0,-1.7215529127,-2.7556630988,1.7589736
 483\C,0,-5.4167145609,-1.9624403209,4.2242122274\C,0,-4.8554441512,-2.
 1631658368,5.493235554\H,0,-3.9293288732,-2.726297463,5.5839878277\C,0
 ,-6.6137172527,-1.2393661605,4.1255778226\H,0,-7.0767361378,-1.0992156
 057,3.1502791759\C,0,-5.4701081324,-1.6471187189,6.6334001813\H,0,-5.0
 267000857,-1.8213419433,7.610128693\C,0,-7.2284004325,-0.7142674069,5.
 2657580345\H,0,-8.1565517916,-0.157786151,5.1707093482\C,0,-6.65556758
 59,-0.9145704294,6.5218616073\H,0,-7.1361390133,-0.5149329982,7.410463
 9343\N,0,-3.0500519434,-1.7376097175,0.2086096217\H,0,-3.701758528,-0.
 9697737446,0.0959085215\C,0,-2.0816617948,-1.9216591608,-0.8800084306\
 H,0,-1.58481088,-2.8737061897,-0.6841060596\C,0,-1.0607630884,-0.76882
 24598,-0.7853776421\C,0,-2.7905533623,-1.9533875136,-2.2334786899\H,0,
 -3.3512701902,-1.017910181,-2.3554348773\H,0,-3.5191949241,-2.77445047
 22,-2.2076728006\O,0,-1.2246750557,0.2791508257,-1.4260748703\C,0,-1.8
 5640064,-2.1263203746,-3.4476049988\H,0,-1.2217800166,-1.2324358072,-3
 .5011361596\C,0,-0.9465372717,-3.3575561816,-3.3214245907\H,0,-1.53685
 51035,-4.270178907,-3.1670603492\H,0,-0.2412732245,-3.2663390113,-2.48
 74306449\H,0,-0.3545820515,-3.4961877406,-4.2333092505\C,0,-2.69065649
 45,-2.1935470346,-4.7342654022\H,0,-3.335938164,-3.0815459112,-4.73671
 68672\H,0,-2.0458837337,-2.2492655189,-5.6189086525\H,0,-3.3334658258,
 -1.3114972669,-4.840238556\N,0,-0.0142635298,-0.9740215594,0.048537838
 2\H,0,-0.0637324729,-1.8084961299,0.6256697244\C,0,0.8098233394,0.1249
 31648,0.5772532935\H,0,0.1435750384,0.9899610511,0.7061555775\C,0,1.89
 02123939,0.6365389812,-0.394287953\C,0,1.4144883325,-0.2387805331,1.94
 06466207\H,0,2.1897673249,0.5018943699,2.1412778206\H,0,1.9207502957,-
 1.2102853813,1.8916557135\O,0,2.9686301479,1.0728732747,0.0122444144\C
 ,0,0.3709403839,-0.2278905484,3.0724009322\H,0,-0.2578033892,0.6544685
 177,2.9671366192\H,0,-0.2722427003,-1.1112466505,3.0029686139\C,0,1.03
 28312201,-0.2481758327,4.4460704056\O,0,1.658932132,-1.2003957394,4.85
 69414575\O,0,0.8783975253,0.8655189979,5.1936448092\N,0,1.5348936966,0
 .6932224893,-1.7162393637\H,0,0.5301550053,0.6388244265,-1.9092241527\
 C,0,2.3562685948,1.5060235733,-2.6024657926\H,0,3.3780819447,1.4013698
 184,-2.2257767877\C,0,1.942644044,2.9856557603,-2.5028681907\C,0,2.291
 482876,1.0640500473,-4.0628070008\H,0,2.631599186,0.0251667183,-4.1472
 077516\H,0,1.2682987056,1.113656188,-4.4418182378\O,0,1.3165628904,3.5
 472322916,-3.4077269443\C,0,3.137845516,1.904811836,-5.010138216\N,0,4
 .2054312095,2.5729249555,-4.5130820119\H,0,4.7040444089,3.1722001829,-
 5.1573868922\H,0,4.251361315,2.8966141935,-3.5529633412\O,0,2.88692297
 97,1.8987854107,-6.2291234219\N,0,2.3536898143,3.6235315603,-1.3896851
 372\H,0,2.8320549186,3.0981270778,-0.6626411278\C,0,2.2434567032,5.063
 4232433,-1.3097939613\H,0,1.191578202,5.3418569143,-1.4482903219\C,0,3
 .0719473697,5.6590814348,-2.4679993633\C,0,2.7167723683,5.5634941761,0
 .0748142858\H,0,3.7872801378,5.3463981106,0.1749199285\H,0,2.610577003
 1,6.6557058949,0.0880701122\O,0,4.1011741333,5.1273927402,-2.882734958
 9\C,0,1.9287238706,4.9117486911,1.1892586189\C,0,0.5901597881,5.257580
 2656,1.4248504616\H,0,0.1369153353,6.068582082,0.8545822677\C,0,2.4754
 73943,3.8769573848,1.9604917778\H,0,3.5137929284,3.586063389,1.8114131
 603\C,0,-0.1769948292,4.586005095,2.3706940262\H,0,-1.2073922234,4.881
 1019784,2.5473433422\C,0,1.7212019323,3.1998663671,2.9140941452\H,0,2.
 1745115984,2.416976515,3.5131310123\O,0,-0.3894629002,2.8370783144,3.9
 918645848\H,0,0.3982289503,1.6041214279,4.6930284103\C,0,0.3583387061,
 3.5140231381,3.1290092548\N,0,2.5771246402,6.8090378175,-3.0030982568\
 H,0,1.7061061284,7.1830972549,-2.6529795602\C,0,3.1664395468,7.4200879
 804,-4.1793096095\H,0,4.2125368436,7.0955055888,-4.1998927864\C,0,3.18
 3033796,8.9441450639,-4.1251344532\C,0,2.4892212769,6.9682929351,-5.49
 80758038\H,0,1.4463534958,7.3170416344,-5.5005397989\H,0,3.0027245589,
 7.4902285906,-6.314620396\O,0,3.5811123745,9.6298024108,-5.0391842366\
 C,0,2.5221840097,5.4482425618,-5.6788047225\H,0,3.558473283,5.09494940
 15,-5.6383778346\H,0,2.0011514052,4.960430595,-4.851349975\C,0,1.86785
 86338,4.9587500834,-6.9718209868\H,0,1.7350323712,3.8755331913,-6.9462
 071528\H,0,0.8745324149,5.3997373402,-7.1026771314\N,0,2.6392044538,5.
 3054470701,-8.182127012\H,0,2.6105500893,6.2771972597,-8.4632058874\N,
 0,3.9634892487,3.3775429829,-8.2432217973\H,0,4.5492534224,2.777996249
 1,-8.8084550329\H,0,3.5349272065,2.9122894242,-7.4089526029\N,0,4.2710
 259448,5.0709182675,-9.7998629707\H,0,5.0102471529,4.5435523511,-10.24
 07167532\H,0,3.858690032,5.808321949,-10.3529493122\C,0,3.6124779654,4
 .5659984363,-8.7275669402\O,0,2.690628881,9.4457435923,-2.9719453284\H
 ,0,2.747812462,10.4182539652,-3.0422935304\\Version=ES64L-G16RevC.01\H
 F=-3586.8800965\RMSD=6.570e-10\Dipole=-0.882458,6.0176785,-6.5056463\Q
 uadrupole=-79.5037296,-34.5098525,114.0135821,19.4811122,-141.3096718,
 -47.403122\PG=C01 [X(C50H77N12O13)]\\@
 The archive entry for this job was punched.


 The mind is not a vessel to be filled but a fire to be kindled.
                                  -- Plutarch
 Job cpu time:       0 days  0 hours 20 minutes 56.3 seconds.
 Elapsed time:       0 days  0 hours  5 minutes 15.6 seconds.
 File lengths (MBytes):  RWF=   1088 Int=      0 D2E=      0 Chk=    160 Scr=     32
 Normal termination of Gaussian 16 at Sun Aug 14 21:14:11 2022.
