 Entering Gaussian System, Link 0=/opt/software/Gaussian/g16-AVX2-C.01/g16/g16
 Input=charge-conf-883.com
 Output=charge-conf-883.log
 Initial command:
 /opt/software/Gaussian/g16-AVX2-C.01/g16/l1.exe "/mnt/gs18/scratch/users/kengmith/Gau-36829.inp" -scrdir="/mnt/gs18/scratch/users/kengmith/"
 Entering Link 1 = /opt/software/Gaussian/g16-AVX2-C.01/g16/l1.exe PID=     36839.
  
 Copyright (c) 1988-2019, Gaussian, Inc.  All Rights Reserved.
  
 This is part of the Gaussian(R) 16 program.  It is based on
 the Gaussian(R) 09 system (copyright 2009, Gaussian, Inc.),
 the Gaussian(R) 03 system (copyright 2003, Gaussian, Inc.),
 the Gaussian(R) 98 system (copyright 1998, Gaussian, Inc.),
 the Gaussian(R) 94 system (copyright 1995, Gaussian, Inc.),
 the Gaussian 92(TM) system (copyright 1992, Gaussian, Inc.),
 the Gaussian 90(TM) system (copyright 1990, Gaussian, Inc.),
 the Gaussian 88(TM) system (copyright 1988, Gaussian, Inc.),
 the Gaussian 86(TM) system (copyright 1986, Carnegie Mellon
 University), and the Gaussian 82(TM) system (copyright 1983,
 Carnegie Mellon University). Gaussian is a federally registered
 trademark of Gaussian, Inc.
  
 This software contains proprietary and confidential information,
 including trade secrets, belonging to Gaussian, Inc.
  
 This software is provided under written license and may be
 used, copied, transmitted, or stored only in accord with that
 written license.
  
 The following legend is applicable only to US Government
 contracts under FAR:
  
                    RESTRICTED RIGHTS LEGEND
  
 Use, reproduction and disclosure by the US Government is
 subject to restrictions as set forth in subparagraphs (a)
 and (c) of the Commercial Computer Software - Restricted
 Rights clause in FAR 52.227-19.
  
 Gaussian, Inc.
 340 Quinnipiac St., Bldg. 40, Wallingford CT 06492
  
  
 ---------------------------------------------------------------
 Warning -- This program may not be used in any manner that
 competes with the business of Gaussian, Inc. or will provide
 assistance to any competitor of Gaussian, Inc.  The licensee
 of this program is prohibited from giving any competitor of
 Gaussian, Inc. access to this program.  By using this program,
 the user acknowledges that Gaussian, Inc. is engaged in the
 business of creating and licensing software in the field of
 computational chemistry and represents and warrants to the
 licensee that it is not a competitor of Gaussian, Inc. and that
 it will not use this program in any manner prohibited above.
 ---------------------------------------------------------------
  

 Cite this work as:
 Gaussian 16, Revision C.01,
 M. J. Frisch, G. W. Trucks, H. B. Schlegel, G. E. Scuseria, 
 M. A. Robb, J. R. Cheeseman, G. Scalmani, V. Barone, 
 G. A. Petersson, H. Nakatsuji, X. Li, M. Caricato, A. V. Marenich, 
 J. Bloino, B. G. Janesko, R. Gomperts, B. Mennucci, H. P. Hratchian, 
 J. V. Ortiz, A. F. Izmaylov, J. L. Sonnenberg, D. Williams-Young, 
 F. Ding, F. Lipparini, F. Egidi, J. Goings, B. Peng, A. Petrone, 
 T. Henderson, D. Ranasinghe, V. G. Zakrzewski, J. Gao, N. Rega, 
 G. Zheng, W. Liang, M. Hada, M. Ehara, K. Toyota, R. Fukuda, 
 J. Hasegawa, M. Ishida, T. Nakajima, Y. Honda, O. Kitao, H. Nakai, 
 T. Vreven, K. Throssell, J. A. Montgomery, Jr., J. E. Peralta, 
 F. Ogliaro, M. J. Bearpark, J. J. Heyd, E. N. Brothers, K. N. Kudin, 
 V. N. Staroverov, T. A. Keith, R. Kobayashi, J. Normand, 
 K. Raghavachari, A. P. Rendell, J. C. Burant, S. S. Iyengar, 
 J. Tomasi, M. Cossi, J. M. Millam, M. Klene, C. Adamo, R. Cammi, 
 J. W. Ochterski, R. L. Martin, K. Morokuma, O. Farkas, 
 J. B. Foresman, and D. J. Fox, Gaussian, Inc., Wallingford CT, 2019.
 
 ******************************************
 Gaussian 16:  ES64L-G16RevC.01  3-Jul-2019
                24-May-2022 
 ******************************************
 %mem=8gb
 %nproc=4
 Will use up to    4 processors via shared memory.
 %chk=conf-883.chk
 -------------------------------------------------------------------
 # B3LYP/6-31G* guess=read geom=check nosymm integral(ultrafinegrid)
 -------------------------------------------------------------------
 1/29=2,38=1,172=1/1;
 2/12=2,15=1,40=1/2;
 3/5=1,6=6,7=1,11=2,14=-4,25=1,30=1,74=-5,75=-5,116=-2/1,2,3;
 4/5=1/1;
 5/5=2,38=6/2;
 6/7=2,8=2,9=2,10=2,28=1/1;
 99/5=1,9=1/99;
 ------------------------------------------------------
 Candidate Structure: Conf:883 Charge calc in gas phase
 ------------------------------------------------------
 Structure from the checkpoint file:  "conf-883.chk"
 Charge =  1 Multiplicity = 1
 Redundant internal coordinates found in file.  (old form).
 N,0,-0.2149020464,-3.2073007865,3.1856382142
 H,0,0.6448783188,-2.8458837254,3.5971039768
 H,0,-1.4480006366,-3.63700497,4.596813243
 H,0,0.0828806432,-3.7917002988,2.4039185291
 C,0,-1.0358796578,-2.1023127022,2.6876795845
 H,0,-1.3119289539,-1.4918068624,3.5565655282
 C,0,-0.2847907887,-1.2154757236,1.6836441759
 C,0,-2.333730835,-2.6430172598,2.0350641768
 H,0,-2.0918623303,-3.0642822694,1.0504803064
 H,0,-3.016159529,-1.8025691281,1.8602049234
 O,0,0.7073732393,-1.5970844252,1.0757357825
 C,0,-3.0643890952,-3.7212538069,2.866034632
 H,0,-2.488010034,-4.6521974415,2.8524300275
 H,0,-4.0359414281,-3.9192849096,2.4076936418
 C,0,-3.3154837627,-3.2910276022,4.313076841
 O,0,-2.2407632041,-3.3734975368,5.1280030815
 O,0,-4.3782777188,-2.8756842016,4.70759078
 N,0,-0.7801680774,0.06032102,1.5178169285
 H,0,-1.6789284464,0.2801303475,1.929963222
 C,0,-0.3316372081,0.9003126488,0.406234604
 H,0,-0.7436638057,1.8977715848,0.6047209918
 C,0,1.2039359767,1.0669163094,0.4395255504
 C,0,-0.8395116298,0.4217219964,-0.9753630396
 H,0,-0.3332289943,-0.5136491033,-1.2257056258
 H,0,-1.9055359589,0.191079391,-0.8529337508
 O,0,1.8751798195,1.0153540118,-0.6024816958
 C,0,-0.6661497294,1.4299857072,-2.0967037727
 C,0,0.0971131641,1.1237458161,-3.2325400954
 H,0,0.5735111196,0.1496998877,-3.3045157594
 C,0,-1.2838385785,2.6879514892,-2.0527930369
 H,0,-1.9134455554,2.9553076033,-1.2064665005
 C,0,0.2596283974,2.0378229415,-4.2765837124
 H,0,0.8071028486,1.773355216,-5.1771417482
 C,0,-1.1313772601,3.619584982,-3.0815919249
 H,0,-1.6346743805,4.5824450695,-3.0234025629
 O,0,-0.1684321381,4.1451848595,-5.2517410609
 H,0,-0.7433468304,4.9221101279,-5.160938931
 C,0,-0.361107987,3.2963979263,-4.2062563898
 N,0,1.7214943405,1.3908047433,1.6390631333
 H,0,1.1189130675,1.2774708475,2.4465738221
 C,0,3.1559506741,1.5371984195,1.9200677495
 H,0,3.6246137602,0.5423261091,1.8649395938
 C,0,3.345942901,2.0019633907,3.3691686907
 C,0,3.9135436685,2.4641475327,0.9481458775
 H,0,4.9212740318,2.5863515631,1.356045211
 H,0,4.0166244627,1.9266816708,0.0045258951
 O,0,4.2903862302,2.6427480473,3.7574718541
 C,0,3.2713632996,3.8499421437,0.7454710891
 H,0,3.5400415589,4.4826536608,1.5973499997
 H,0,2.1762745282,3.7700744805,0.7663746045
 C,0,3.6962061207,4.5626717149,-0.5580305485
 H,0,3.6879835683,5.6472806944,-0.3988377425
 H,0,4.7341371833,4.31310432,-0.8186673587
 C,0,2.7830493914,4.3352080718,-1.7655080315
 H,0,1.7396267266,4.5522211889,-1.5216348309
 H,0,3.0763532735,4.9683174294,-2.6068023752
 N,0,2.787752247,2.913086798,-2.2789716042
 H,0,2.1148353279,2.7922553613,-3.0558674372
 H,0,2.48538699,2.2107631476,-1.5492415917
 H,0,3.7155825526,2.6394407804,-2.616738311
 O,0,2.3500428238,1.567899929,4.1774366104
 H,0,2.556182365,1.8717604827,5.0829858063
 Recover connectivity data from disk.
                           ----------------------------
                           !    Current Parameters    !
                           ! (Angstroms and Degrees)  !
 --------------------------                            --------------------------
 ! Name  Definition              Value                                          !
 --------------------------------------------------------------------------------
 ! R1    R(1,2)                  1.0194                                         !
 ! R2    R(1,3)                  1.9227                                         !
 ! R3    R(1,4)                  1.0204                                         !
 ! R4    R(1,5)                  1.4639                                         !
 ! R5    R(5,6)                  1.0972                                         !
 ! R6    R(5,7)                  1.5358                                         !
 ! R7    R(5,8)                  1.5501                                         !
 ! R8    R(7,11)                 1.2246                                         !
 ! R9    R(7,18)                 1.3786                                         !
 ! R10   R(8,9)                  1.0979                                         !
 ! R11   R(8,10)                 1.0966                                         !
 ! R12   R(8,12)                 1.545                                          !
 ! R13   R(12,13)                1.095                                          !
 ! R14   R(12,14)                1.0923                                         !
 ! R15   R(12,15)                1.5304                                         !
 ! R16   R(15,16)                1.3513                                         !
 ! R17   R(15,17)                1.2073                                         !
 ! R18   R(18,19)                1.0129                                         !
 ! R19   R(18,20)                1.4637                                         !
 ! R20   R(20,21)                1.0973                                         !
 ! R21   R(20,22)                1.5449                                         !
 ! R22   R(20,23)                1.5478                                         !
 ! R23   R(22,26)                1.2406                                         !
 ! R24   R(22,39)                1.346                                          !
 ! R25   R(23,24)                1.0927                                         !
 ! R26   R(23,25)                1.0975                                         !
 ! R27   R(23,27)                1.5179                                         !
 ! R28   R(27,28)                1.4023                                         !
 ! R29   R(27,30)                1.4021                                         !
 ! R30   R(28,29)                1.0867                                         !
 ! R31   R(28,32)                1.3971                                         !
 ! R32   R(30,31)                1.0882                                         !
 ! R33   R(30,34)                1.3963                                         !
 ! R34   R(32,33)                1.0866                                         !
 ! R35   R(32,38)                1.4051                                         !
 ! R36   R(34,35)                1.088                                          !
 ! R37   R(34,38)                1.4009                                         !
 ! R38   R(36,37)                0.9708                                         !
 ! R39   R(36,38)                1.3604                                         !
 ! R40   R(39,40)                1.0139                                         !
 ! R41   R(39,41)                1.469                                          !
 ! R42   R(41,42)                1.1011                                         !
 ! R43   R(41,43)                1.5336                                         !
 ! R44   R(41,44)                1.542                                          !
 ! R45   R(43,47)                1.2056                                         !
 ! R46   R(43,61)                1.3541                                         !
 ! R47   R(44,45)                1.094                                          !
 ! R48   R(44,46)                1.0908                                         !
 ! R49   R(44,48)                1.5407                                         !
 ! R50   R(48,49)                1.0946                                         !
 ! R51   R(48,50)                1.0982                                         !
 ! R52   R(48,51)                1.5452                                         !
 ! R53   R(51,52)                1.0963                                         !
 ! R54   R(51,53)                1.0989                                         !
 ! R55   R(51,54)                1.5309                                         !
 ! R56   R(54,55)                1.0933                                         !
 ! R57   R(54,56)                1.093                                          !
 ! R58   R(54,57)                1.512                                          !
 ! R59   R(57,58)                1.0349                                         !
 ! R60   R(57,59)                1.057                                          !
 ! R61   R(57,60)                1.0246                                         !
 ! R62   R(61,62)                0.9772                                         !
 ! A1    A(2,1,3)              108.8998                                         !
 ! A2    A(2,1,4)              105.4343                                         !
 ! A3    A(2,1,5)              110.0411                                         !
 ! A4    A(3,1,4)              128.4211                                         !
 ! A5    A(3,1,5)               93.3645                                         !
 ! A6    A(4,1,5)              109.5946                                         !
 ! A7    A(1,5,6)              106.961                                          !
 ! A8    A(1,5,7)              112.5805                                         !
 ! A9    A(1,5,8)              110.4555                                         !
 ! A10   A(6,5,7)              108.6297                                         !
 ! A11   A(6,5,8)              108.4725                                         !
 ! A12   A(7,5,8)              109.6127                                         !
 ! A13   A(5,7,11)             122.7402                                         !
 ! A14   A(5,7,18)             115.9307                                         !
 ! A15   A(11,7,18)            121.3196                                         !
 ! A16   A(5,8,9)              109.0845                                         !
 ! A17   A(5,8,10)             108.7132                                         !
 ! A18   A(5,8,12)             114.3916                                         !
 ! A19   A(9,8,10)             106.7478                                         !
 ! A20   A(9,8,12)             108.5869                                         !
 ! A21   A(10,8,12)            109.0455                                         !
 ! A22   A(8,12,13)            109.7377                                         !
 ! A23   A(8,12,14)            108.7519                                         !
 ! A24   A(8,12,15)            112.952                                          !
 ! A25   A(13,12,14)           107.9883                                         !
 ! A26   A(13,12,15)           109.701                                          !
 ! A27   A(14,12,15)           107.5645                                         !
 ! A28   A(12,15,16)           114.9981                                         !
 ! A29   A(12,15,17)           123.3743                                         !
 ! A30   A(16,15,17)           121.6043                                         !
 ! A31   A(7,18,19)            118.0814                                         !
 ! A32   A(7,18,20)            120.8189                                         !
 ! A33   A(19,18,20)           117.1541                                         !
 ! A34   A(18,20,21)           105.6185                                         !
 ! A35   A(18,20,22)           110.4936                                         !
 ! A36   A(18,20,23)           113.5707                                         !
 ! A37   A(21,20,22)           105.7409                                         !
 ! A38   A(21,20,23)           108.6216                                         !
 ! A39   A(22,20,23)           112.2536                                         !
 ! A40   A(20,22,26)           121.0118                                         !
 ! A41   A(20,22,39)           115.2991                                         !
 ! A42   A(26,22,39)           123.4016                                         !
 ! A43   A(20,23,24)           108.4914                                         !
 ! A44   A(20,23,25)           106.5054                                         !
 ! A45   A(20,23,27)           114.6163                                         !
 ! A46   A(24,23,25)           107.1999                                         !
 ! A47   A(24,23,27)           110.2704                                         !
 ! A48   A(25,23,27)           109.4464                                         !
 ! A49   A(23,27,28)           121.0285                                         !
 ! A50   A(23,27,30)           121.5002                                         !
 ! A51   A(28,27,30)           117.4566                                         !
 ! A52   A(27,28,29)           119.2095                                         !
 ! A53   A(27,28,32)           121.716                                          !
 ! A54   A(29,28,32)           119.0743                                         !
 ! A55   A(27,30,31)           119.9784                                         !
 ! A56   A(27,30,34)           121.8331                                         !
 ! A57   A(31,30,34)           118.1833                                         !
 ! A58   A(28,32,33)           121.2455                                         !
 ! A59   A(28,32,38)           119.8177                                         !
 ! A60   A(33,32,38)           118.8216                                         !
 ! A61   A(30,34,35)           120.0366                                         !
 ! A62   A(30,34,38)           119.8426                                         !
 ! A63   A(35,34,38)           120.0944                                         !
 ! A64   A(37,36,38)           110.0955                                         !
 ! A65   A(32,38,34)           119.3221                                         !
 ! A66   A(32,38,36)           117.2479                                         !
 ! A67   A(34,38,36)           123.4292                                         !
 ! A68   A(22,39,40)           117.0234                                         !
 ! A69   A(22,39,41)           124.745                                          !
 ! A70   A(40,39,41)           116.0476                                         !
 ! A71   A(39,41,42)           108.4208                                         !
 ! A72   A(39,41,43)           109.3849                                         !
 ! A73   A(39,41,44)           114.7762                                         !
 ! A74   A(42,41,43)           105.5684                                         !
 ! A75   A(42,41,44)           107.6055                                         !
 ! A76   A(43,41,44)           110.6415                                         !
 ! A77   A(41,43,47)           124.2272                                         !
 ! A78   A(41,43,61)           112.071                                          !
 ! A79   A(47,43,61)           123.6631                                         !
 ! A80   A(41,44,45)           106.5409                                         !
 ! A81   A(41,44,46)           107.1861                                         !
 ! A82   A(41,44,48)           114.7595                                         !
 ! A83   A(45,44,46)           106.8894                                         !
 ! A84   A(45,44,48)           109.421                                          !
 ! A85   A(46,44,48)           111.6389                                         !
 ! A86   A(44,48,49)           108.3734                                         !
 ! A87   A(44,48,50)           110.3469                                         !
 ! A88   A(44,48,51)           114.2829                                         !
 ! A89   A(49,48,50)           105.7822                                         !
 ! A90   A(49,48,51)           108.8088                                         !
 ! A91   A(50,48,51)           108.8912                                         !
 ! A92   A(48,51,52)           109.3776                                         !
 ! A93   A(48,51,53)           110.7952                                         !
 ! A94   A(48,51,54)           115.648                                          !
 ! A95   A(52,51,53)           105.4398                                         !
 ! A96   A(52,51,54)           104.8961                                         !
 ! A97   A(53,51,54)           110.0346                                         !
 ! A98   A(51,54,55)           111.3367                                         !
 ! A99   A(51,54,56)           111.1602                                         !
 ! A100  A(51,54,57)           113.9383                                         !
 ! A101  A(55,54,56)           108.2296                                         !
 ! A102  A(55,54,57)           105.3917                                         !
 ! A103  A(56,54,57)           106.4149                                         !
 ! A104  A(54,57,58)           111.2682                                         !
 ! A105  A(54,57,59)           112.9315                                         !
 ! A106  A(54,57,60)           111.4669                                         !
 ! A107  A(58,57,59)           104.7554                                         !
 ! A108  A(58,57,60)           108.0687                                         !
 ! A109  A(59,57,60)           108.0096                                         !
 ! A110  A(43,61,62)           107.3574                                         !
 ! D1    D(2,1,5,6)            -63.2331                                         !
 ! D2    D(2,1,5,7)             56.0115                                         !
 ! D3    D(2,1,5,8)            178.907                                          !
 ! D4    D(3,1,5,6)             48.2873                                         !
 ! D5    D(3,1,5,7)            167.5319                                         !
 ! D6    D(3,1,5,8)            -69.5726                                         !
 ! D7    D(4,1,5,6)           -178.7358                                         !
 ! D8    D(4,1,5,7)            -59.4913                                         !
 ! D9    D(4,1,5,8)             63.4043                                         !
 ! D10   D(1,5,7,11)            20.2995                                         !
 ! D11   D(1,5,7,18)          -158.588                                          !
 ! D12   D(6,5,7,11)           138.568                                          !
 ! D13   D(6,5,7,18)           -40.3195                                         !
 ! D14   D(8,5,7,11)          -103.067                                          !
 ! D15   D(8,5,7,18)            78.0455                                         !
 ! D16   D(1,5,8,9)            -75.4535                                         !
 ! D17   D(1,5,8,10)           168.4978                                         !
 ! D18   D(1,5,8,12)            46.3641                                         !
 ! D19   D(6,5,8,9)            167.6183                                         !
 ! D20   D(6,5,8,10)            51.5696                                         !
 ! D21   D(6,5,8,12)           -70.564                                          !
 ! D22   D(7,5,8,9)             49.1557                                         !
 ! D23   D(7,5,8,10)           -66.893                                          !
 ! D24   D(7,5,8,12)           170.9733                                         !
 ! D25   D(5,7,18,19)          -10.373                                          !
 ! D26   D(5,7,18,20)         -167.3906                                         !
 ! D27   D(11,7,18,19)         170.7224                                         !
 ! D28   D(11,7,18,20)          13.7048                                         !
 ! D29   D(5,8,12,13)          -71.049                                          !
 ! D30   D(5,8,12,14)          171.0271                                         !
 ! D31   D(5,8,12,15)           51.6953                                         !
 ! D32   D(9,8,12,13)           51.0408                                         !
 ! D33   D(9,8,12,14)          -66.8831                                         !
 ! D34   D(9,8,12,15)          173.785                                          !
 ! D35   D(10,8,12,13)         166.9989                                         !
 ! D36   D(10,8,12,14)          49.075                                          !
 ! D37   D(10,8,12,15)         -70.2569                                         !
 ! D38   D(8,12,15,16)         -77.9685                                         !
 ! D39   D(8,12,15,17)         100.2962                                         !
 ! D40   D(13,12,15,16)         44.7962                                         !
 ! D41   D(13,12,15,17)       -136.9391                                         !
 ! D42   D(14,12,15,16)        162.0162                                         !
 ! D43   D(14,12,15,17)        -19.7191                                         !
 ! D44   D(7,18,20,21)        -170.8032                                         !
 ! D45   D(7,18,20,22)         -56.8992                                         !
 ! D46   D(7,18,20,23)          70.2691                                         !
 ! D47   D(19,18,20,21)         31.9744                                         !
 ! D48   D(19,18,20,22)        145.8785                                         !
 ! D49   D(19,18,20,23)        -86.9532                                         !
 ! D50   D(18,20,22,26)        138.3052                                         !
 ! D51   D(18,20,22,39)        -47.6503                                         !
 ! D52   D(21,20,22,26)       -107.8684                                         !
 ! D53   D(21,20,22,39)         66.1761                                         !
 ! D54   D(23,20,22,26)         10.4121                                         !
 ! D55   D(23,20,22,39)       -175.5434                                         !
 ! D56   D(18,20,23,24)        -69.6617                                         !
 ! D57   D(18,20,23,25)         45.4447                                         !
 ! D58   D(18,20,23,27)        166.6235                                         !
 ! D59   D(21,20,23,24)        173.1463                                         !
 ! D60   D(21,20,23,25)        -71.7473                                         !
 ! D61   D(21,20,23,27)         49.4315                                         !
 ! D62   D(22,20,23,24)         56.5827                                         !
 ! D63   D(22,20,23,25)        171.6891                                         !
 ! D64   D(22,20,23,27)        -67.1321                                         !
 ! D65   D(20,22,39,40)         14.4898                                         !
 ! D66   D(20,22,39,41)        176.979                                          !
 ! D67   D(26,22,39,40)       -171.6249                                         !
 ! D68   D(26,22,39,41)         -9.1358                                         !
 ! D69   D(20,23,27,28)        120.655                                          !
 ! D70   D(20,23,27,30)        -60.7751                                         !
 ! D71   D(24,23,27,28)         -2.1047                                         !
 ! D72   D(24,23,27,30)        176.4652                                         !
 ! D73   D(25,23,27,28)       -119.7952                                         !
 ! D74   D(25,23,27,30)         58.7747                                         !
 ! D75   D(23,27,28,29)         -0.2683                                         !
 ! D76   D(23,27,28,32)        179.6135                                         !
 ! D77   D(30,27,28,29)       -178.8941                                         !
 ! D78   D(30,27,28,32)          0.9877                                         !
 ! D79   D(23,27,30,31)         -0.7102                                         !
 ! D80   D(23,27,30,34)       -179.8646                                         !
 ! D81   D(28,27,30,31)        177.9088                                         !
 ! D82   D(28,27,30,34)         -1.2457                                         !
 ! D83   D(27,28,32,33)       -176.6083                                         !
 ! D84   D(27,28,32,38)         -0.5573                                         !
 ! D85   D(29,28,32,33)          3.2736                                         !
 ! D86   D(29,28,32,38)        179.3246                                         !
 ! D87   D(27,30,34,35)        179.1999                                         !
 ! D88   D(27,30,34,38)          1.0695                                         !
 ! D89   D(31,30,34,35)          0.0308                                         !
 ! D90   D(31,30,34,38)       -178.0996                                         !
 ! D91   D(28,32,38,34)          0.338                                          !
 ! D92   D(28,32,38,36)       -179.9692                                         !
 ! D93   D(33,32,38,34)        176.4845                                         !
 ! D94   D(33,32,38,36)         -3.8226                                         !
 ! D95   D(30,34,38,32)         -0.587                                          !
 ! D96   D(30,34,38,36)        179.7402                                         !
 ! D97   D(35,34,38,32)       -178.7163                                         !
 ! D98   D(35,34,38,36)          1.6109                                         !
 ! D99   D(37,36,38,32)        171.5643                                         !
 ! D100  D(37,36,38,34)         -8.7565                                         !
 ! D101  D(22,39,41,42)        -69.0722                                         !
 ! D102  D(22,39,41,43)        176.2779                                         !
 ! D103  D(22,39,41,44)         51.2487                                         !
 ! D104  D(40,39,41,42)         93.57                                           !
 ! D105  D(40,39,41,43)        -21.0799                                         !
 ! D106  D(40,39,41,44)       -146.1092                                         !
 ! D107  D(39,41,43,47)       -152.6664                                         !
 ! D108  D(39,41,43,61)         29.5263                                         !
 ! D109  D(42,41,43,47)         90.8608                                         !
 ! D110  D(42,41,43,61)        -86.9465                                         !
 ! D111  D(44,41,43,47)        -25.2732                                         !
 ! D112  D(44,41,43,61)        156.9195                                         !
 ! D113  D(39,41,44,45)        172.3364                                         !
 ! D114  D(39,41,44,46)        -73.5161                                         !
 ! D115  D(39,41,44,48)         51.0746                                         !
 ! D116  D(42,41,44,45)        -66.8935                                         !
 ! D117  D(42,41,44,46)         47.254                                          !
 ! D118  D(42,41,44,48)        171.8447                                         !
 ! D119  D(43,41,44,45)         47.9682                                         !
 ! D120  D(43,41,44,46)        162.1157                                         !
 ! D121  D(43,41,44,48)        -73.2936                                         !
 ! D122  D(41,43,61,62)        177.8805                                         !
 ! D123  D(47,43,61,62)          0.0587                                         !
 ! D124  D(41,44,48,49)         79.6737                                         !
 ! D125  D(41,44,48,50)        -35.7199                                         !
 ! D126  D(41,44,48,51)       -158.8227                                         !
 ! D127  D(45,44,48,49)        -39.999                                          !
 ! D128  D(45,44,48,50)       -155.3926                                         !
 ! D129  D(45,44,48,51)         81.5047                                         !
 ! D130  D(46,44,48,49)       -158.1162                                         !
 ! D131  D(46,44,48,50)         86.4902                                         !
 ! D132  D(46,44,48,51)        -36.6126                                         !
 ! D133  D(44,48,51,52)       -149.049                                          !
 ! D134  D(44,48,51,53)        -33.2351                                         !
 ! D135  D(44,48,51,54)         92.841                                          !
 ! D136  D(49,48,51,52)        -27.7854                                         !
 ! D137  D(49,48,51,53)         88.0285                                         !
 ! D138  D(49,48,51,54)       -145.8954                                         !
 ! D139  D(50,48,51,52)         87.0641                                         !
 ! D140  D(50,48,51,53)       -157.122                                          !
 ! D141  D(50,48,51,54)        -31.0459                                         !
 ! D142  D(48,51,54,55)         52.0392                                         !
 ! D143  D(48,51,54,56)        172.7915                                         !
 ! D144  D(48,51,54,57)        -66.9848                                         !
 ! D145  D(52,51,54,55)        -68.5301                                         !
 ! D146  D(52,51,54,56)         52.2222                                         !
 ! D147  D(52,51,54,57)        172.4459                                         !
 ! D148  D(53,51,54,55)        178.5011                                         !
 ! D149  D(53,51,54,56)        -60.7466                                         !
 ! D150  D(53,51,54,57)         59.4771                                         !
 ! D151  D(51,54,57,58)        176.5003                                         !
 ! D152  D(51,54,57,59)         59.0205                                         !
 ! D153  D(51,54,57,60)        -62.7891                                         !
 ! D154  D(55,54,57,58)         54.1489                                         !
 ! D155  D(55,54,57,59)        -63.3309                                         !
 ! D156  D(55,54,57,60)        174.8595                                         !
 ! D157  D(56,54,57,58)        -60.6447                                         !
 ! D158  D(56,54,57,59)       -178.1245                                         !
 ! D159  D(56,54,57,60)         60.066                                          !
 --------------------------------------------------------------------------------
 Symmetry turned off by external request.
 Stoichiometry    C20H31N4O7(1+)
 Framework group  C1[X(C20H31N4O7)]
 Deg. of freedom   180
 Full point group                 C1      NOp   1
                          Input orientation:                          
 ---------------------------------------------------------------------
 Center     Atomic      Atomic             Coordinates (Angstroms)
 Number     Number       Type             X           Y           Z
 ---------------------------------------------------------------------
      1          7           0       -0.214902   -3.207301    3.185638
      2          1           0        0.644878   -2.845884    3.597104
      3          1           0       -1.448001   -3.637005    4.596813
      4          1           0        0.082881   -3.791700    2.403919
      5          6           0       -1.035880   -2.102313    2.687680
      6          1           0       -1.311929   -1.491807    3.556566
      7          6           0       -0.284791   -1.215476    1.683644
      8          6           0       -2.333731   -2.643017    2.035064
      9          1           0       -2.091862   -3.064282    1.050480
     10          1           0       -3.016160   -1.802569    1.860205
     11          8           0        0.707373   -1.597084    1.075736
     12          6           0       -3.064389   -3.721254    2.866035
     13          1           0       -2.488010   -4.652197    2.852430
     14          1           0       -4.035941   -3.919285    2.407694
     15          6           0       -3.315484   -3.291028    4.313077
     16          8           0       -2.240763   -3.373498    5.128003
     17          8           0       -4.378278   -2.875684    4.707591
     18          7           0       -0.780168    0.060321    1.517817
     19          1           0       -1.678928    0.280130    1.929963
     20          6           0       -0.331637    0.900313    0.406235
     21          1           0       -0.743664    1.897772    0.604721
     22          6           0        1.203936    1.066916    0.439526
     23          6           0       -0.839512    0.421722   -0.975363
     24          1           0       -0.333229   -0.513649   -1.225706
     25          1           0       -1.905536    0.191079   -0.852934
     26          8           0        1.875180    1.015354   -0.602482
     27          6           0       -0.666150    1.429986   -2.096704
     28          6           0        0.097113    1.123746   -3.232540
     29          1           0        0.573511    0.149700   -3.304516
     30          6           0       -1.283839    2.687951   -2.052793
     31          1           0       -1.913446    2.955308   -1.206467
     32          6           0        0.259628    2.037823   -4.276584
     33          1           0        0.807103    1.773355   -5.177142
     34          6           0       -1.131377    3.619585   -3.081592
     35          1           0       -1.634674    4.582445   -3.023403
     36          8           0       -0.168432    4.145185   -5.251741
     37          1           0       -0.743347    4.922110   -5.160939
     38          6           0       -0.361108    3.296398   -4.206256
     39          7           0        1.721494    1.390805    1.639063
     40          1           0        1.118913    1.277471    2.446574
     41          6           0        3.155951    1.537198    1.920068
     42          1           0        3.624614    0.542326    1.864940
     43          6           0        3.345943    2.001963    3.369169
     44          6           0        3.913544    2.464148    0.948146
     45          1           0        4.921274    2.586352    1.356045
     46          1           0        4.016624    1.926682    0.004526
     47          8           0        4.290386    2.642748    3.757472
     48          6           0        3.271363    3.849942    0.745471
     49          1           0        3.540042    4.482654    1.597350
     50          1           0        2.176275    3.770074    0.766375
     51          6           0        3.696206    4.562672   -0.558031
     52          1           0        3.687984    5.647281   -0.398838
     53          1           0        4.734137    4.313104   -0.818667
     54          6           0        2.783049    4.335208   -1.765508
     55          1           0        1.739627    4.552221   -1.521635
     56          1           0        3.076353    4.968317   -2.606802
     57          7           0        2.787752    2.913087   -2.278972
     58          1           0        2.114835    2.792255   -3.055867
     59          1           0        2.485387    2.210763   -1.549242
     60          1           0        3.715583    2.639441   -2.616738
     61          8           0        2.350043    1.567900    4.177437
     62          1           0        2.556182    1.871760    5.082986
 ---------------------------------------------------------------------
 Rotational constants (GHZ):           0.1773862           0.0798768           0.0595687
 Standard basis: 6-31G(d) (6D, 7F)
   527 basis functions,   992 primitive gaussians,   527 cartesian basis functions
   117 alpha electrons      117 beta electrons
       nuclear repulsion energy      3281.3794155485 Hartrees.
 NAtoms=   62 NActive=   62 NUniq=   62 SFac= 1.00D+00 NAtFMM=   60 NAOKFM=T Big=T
 Integral buffers will be    131072 words long.
 Raffenetti 2 integral format.
 Two-electron integral symmetry is turned off.
 One-electron integrals computed using PRISM.
 NBasis=   527 RedAO= T EigKep=  4.37D-04  NBF=   527
 NBsUse=   527 1.00D-06 EigRej= -1.00D+00 NBFU=   527
 Initial guess from the checkpoint file:  "conf-883.chk"
 B after Tr=     0.000000    0.000000    0.000000
         Rot=    1.000000    0.000000    0.000000    0.000000 Ang=   0.00 deg.
 Requested convergence on RMS density matrix=1.00D-08 within 128 cycles.
 Requested convergence on MAX density matrix=1.00D-06.
 Requested convergence on             energy=1.00D-06.
 No special actions if energy rises.
 SCF Done:  E(RB3LYP) =  -1526.21759390     A.U. after    2 cycles
            NFock=  2  Conv=0.87D-08     -V/T= 2.0093

 **********************************************************************

            Population analysis using the SCF Density.

 **********************************************************************

 Alpha  occ. eigenvalues --  -19.31930 -19.29081 -19.25897 -19.25665 -19.23628
 Alpha  occ. eigenvalues --  -19.23299 -19.18195 -14.57777 -14.49297 -14.48569
 Alpha  occ. eigenvalues --  -14.43351 -10.44235 -10.42830 -10.40137 -10.38717
 Alpha  occ. eigenvalues --  -10.36941 -10.36883 -10.36810 -10.36638 -10.33382
 Alpha  occ. eigenvalues --  -10.33001 -10.31221 -10.31115 -10.31004 -10.30962
 Alpha  occ. eigenvalues --  -10.30792 -10.30779 -10.30642 -10.30386 -10.29663
 Alpha  occ. eigenvalues --  -10.27335  -1.22676  -1.17426  -1.17290  -1.15439
 Alpha  occ. eigenvalues --   -1.14248  -1.13758  -1.12692  -1.06273  -1.06231
 Alpha  occ. eigenvalues --   -1.04294  -1.00189  -0.97108  -0.93811  -0.91243
 Alpha  occ. eigenvalues --   -0.89780  -0.87761  -0.86535  -0.85478  -0.84104
 Alpha  occ. eigenvalues --   -0.80128  -0.79027  -0.77231  -0.74246  -0.73837
 Alpha  occ. eigenvalues --   -0.73387  -0.71681  -0.71336  -0.70689  -0.70127
 Alpha  occ. eigenvalues --   -0.69462  -0.69116  -0.65946  -0.65647  -0.65212
 Alpha  occ. eigenvalues --   -0.64398  -0.63660  -0.61780  -0.61449  -0.60925
 Alpha  occ. eigenvalues --   -0.60224  -0.59603  -0.58757  -0.58370  -0.57832
 Alpha  occ. eigenvalues --   -0.57230  -0.56535  -0.56170  -0.55447  -0.54978
 Alpha  occ. eigenvalues --   -0.54317  -0.53869  -0.53794  -0.53335  -0.53103
 Alpha  occ. eigenvalues --   -0.52998  -0.52258  -0.52081  -0.51935  -0.50629
 Alpha  occ. eigenvalues --   -0.50333  -0.50108  -0.49709  -0.49391  -0.48579
 Alpha  occ. eigenvalues --   -0.48128  -0.47028  -0.46807  -0.46526  -0.46342
 Alpha  occ. eigenvalues --   -0.45827  -0.45309  -0.44643  -0.44220  -0.43871
 Alpha  occ. eigenvalues --   -0.43828  -0.41815  -0.40124  -0.40039  -0.38707
 Alpha  occ. eigenvalues --   -0.38146  -0.37523  -0.37217  -0.35959  -0.35619
 Alpha  occ. eigenvalues --   -0.33309  -0.31805
 Alpha virt. eigenvalues --   -0.12759  -0.12338  -0.11181  -0.10660  -0.09491
 Alpha virt. eigenvalues --   -0.08963  -0.05365  -0.04450  -0.03893  -0.03557
 Alpha virt. eigenvalues --   -0.03271  -0.02298  -0.01949  -0.01444  -0.00984
 Alpha virt. eigenvalues --   -0.00417   0.00310   0.01240   0.01511   0.01881
 Alpha virt. eigenvalues --    0.02304   0.02897   0.03089   0.03423   0.03853
 Alpha virt. eigenvalues --    0.04146   0.04313   0.04997   0.05525   0.05780
 Alpha virt. eigenvalues --    0.05915   0.06739   0.07111   0.07467   0.07883
 Alpha virt. eigenvalues --    0.08470   0.08635   0.08930   0.09859   0.10204
 Alpha virt. eigenvalues --    0.11046   0.11324   0.11722   0.11855   0.12206
 Alpha virt. eigenvalues --    0.12375   0.13197   0.13678   0.13904   0.15000
 Alpha virt. eigenvalues --    0.15875   0.16459   0.16543   0.17556   0.18593
 Alpha virt. eigenvalues --    0.19359   0.20853   0.22758   0.22976   0.23156
 Alpha virt. eigenvalues --    0.24379   0.25994   0.26820   0.28390   0.29042
 Alpha virt. eigenvalues --    0.30420   0.30676   0.33886   0.34492   0.36521
 Alpha virt. eigenvalues --    0.37444   0.38242   0.38343   0.40230   0.40340
 Alpha virt. eigenvalues --    0.41226   0.41845   0.41984   0.43112   0.43622
 Alpha virt. eigenvalues --    0.44003   0.44507   0.45366   0.45839   0.46044
 Alpha virt. eigenvalues --    0.47052   0.47592   0.47876   0.48346   0.48566
 Alpha virt. eigenvalues --    0.49075   0.49841   0.49893   0.51029   0.51351
 Alpha virt. eigenvalues --    0.51905   0.51985   0.52702   0.53548   0.53714
 Alpha virt. eigenvalues --    0.54005   0.54526   0.54827   0.55200   0.55438
 Alpha virt. eigenvalues --    0.56673   0.57169   0.57527   0.58517   0.58715
 Alpha virt. eigenvalues --    0.59441   0.59995   0.60664   0.61817   0.63126
 Alpha virt. eigenvalues --    0.63749   0.64214   0.64488   0.65396   0.65582
 Alpha virt. eigenvalues --    0.65760   0.66795   0.67278   0.67966   0.68535
 Alpha virt. eigenvalues --    0.68883   0.70140   0.70630   0.71114   0.71811
 Alpha virt. eigenvalues --    0.72211   0.72606   0.72906   0.73490   0.73964
 Alpha virt. eigenvalues --    0.74410   0.74651   0.75179   0.75738   0.75851
 Alpha virt. eigenvalues --    0.76358   0.76506   0.77599   0.77749   0.78226
 Alpha virt. eigenvalues --    0.78593   0.79030   0.79513   0.79712   0.80045
 Alpha virt. eigenvalues --    0.80737   0.81214   0.81786   0.82226   0.82519
 Alpha virt. eigenvalues --    0.82825   0.83341   0.83994   0.84536   0.85022
 Alpha virt. eigenvalues --    0.85579   0.86316   0.86564   0.87362   0.87867
 Alpha virt. eigenvalues --    0.88394   0.88480   0.88913   0.89427   0.90749
 Alpha virt. eigenvalues --    0.91523   0.92610   0.92993   0.94064   0.94418
 Alpha virt. eigenvalues --    0.95259   0.96807   0.98399   0.98667   0.99920
 Alpha virt. eigenvalues --    1.00678   1.01731   1.02764   1.03210   1.03987
 Alpha virt. eigenvalues --    1.04612   1.05026   1.06595   1.07004   1.08062
 Alpha virt. eigenvalues --    1.08701   1.09539   1.09961   1.10539   1.12553
 Alpha virt. eigenvalues --    1.14685   1.15744   1.16542   1.17845   1.18520
 Alpha virt. eigenvalues --    1.20445   1.20990   1.21937   1.23275   1.24272
 Alpha virt. eigenvalues --    1.25451   1.25794   1.27297   1.27473   1.29090
 Alpha virt. eigenvalues --    1.29241   1.31291   1.32415   1.32935   1.34103
 Alpha virt. eigenvalues --    1.34917   1.35647   1.36412   1.36673   1.38024
 Alpha virt. eigenvalues --    1.39126   1.39940   1.40329   1.40568   1.41813
 Alpha virt. eigenvalues --    1.44361   1.45038   1.46211   1.48366   1.49073
 Alpha virt. eigenvalues --    1.50657   1.51286   1.52722   1.53345   1.55607
 Alpha virt. eigenvalues --    1.55847   1.56873   1.58094   1.58679   1.60157
 Alpha virt. eigenvalues --    1.60844   1.60944   1.63279   1.63640   1.64570
 Alpha virt. eigenvalues --    1.65098   1.66480   1.67298   1.67699   1.67991
 Alpha virt. eigenvalues --    1.68662   1.69160   1.69883   1.70266   1.70882
 Alpha virt. eigenvalues --    1.71459   1.72831   1.73323   1.73863   1.74428
 Alpha virt. eigenvalues --    1.75157   1.75821   1.76311   1.76375   1.77317
 Alpha virt. eigenvalues --    1.77658   1.78310   1.78657   1.79211   1.80358
 Alpha virt. eigenvalues --    1.81306   1.81910   1.82173   1.83391   1.83944
 Alpha virt. eigenvalues --    1.84754   1.84820   1.85289   1.86115   1.86332
 Alpha virt. eigenvalues --    1.86963   1.87691   1.88744   1.89672   1.90219
 Alpha virt. eigenvalues --    1.91146   1.92244   1.92883   1.94357   1.94701
 Alpha virt. eigenvalues --    1.95256   1.96357   1.97692   1.97836   1.99767
 Alpha virt. eigenvalues --    2.00444   2.01896   2.03171   2.03724   2.04198
 Alpha virt. eigenvalues --    2.04765   2.05335   2.06361   2.06443   2.09514
 Alpha virt. eigenvalues --    2.11385   2.12475   2.14615   2.15384   2.16413
 Alpha virt. eigenvalues --    2.18411   2.18989   2.19443   2.20044   2.21629
 Alpha virt. eigenvalues --    2.22568   2.23345   2.24192   2.24562   2.25341
 Alpha virt. eigenvalues --    2.26164   2.26401   2.28258   2.28914   2.29834
 Alpha virt. eigenvalues --    2.30828   2.31399   2.32380   2.33561   2.34380
 Alpha virt. eigenvalues --    2.36081   2.36771   2.37826   2.38608   2.40537
 Alpha virt. eigenvalues --    2.40754   2.43306   2.45200   2.46236   2.46879
 Alpha virt. eigenvalues --    2.47299   2.48844   2.49024   2.49946   2.51183
 Alpha virt. eigenvalues --    2.52735   2.53092   2.53307   2.54484   2.55614
 Alpha virt. eigenvalues --    2.56353   2.57627   2.60276   2.61193   2.61349
 Alpha virt. eigenvalues --    2.62772   2.63277   2.66445   2.67340   2.68299
 Alpha virt. eigenvalues --    2.71001   2.73195   2.75214   2.78002   2.79183
 Alpha virt. eigenvalues --    2.79723   2.80310   2.84209   2.87685   2.88323
 Alpha virt. eigenvalues --    2.90712   2.92933   2.95026   2.98963   3.00606
 Alpha virt. eigenvalues --    3.01809   3.04670   3.08235   3.29174   3.75033
 Alpha virt. eigenvalues --    3.76738   3.77460   3.86708   3.87827   3.87923
 Alpha virt. eigenvalues --    3.90000   3.97785   4.00353   4.00915   4.04798
 Alpha virt. eigenvalues --    4.08267   4.09135   4.10742   4.12142   4.15976
 Alpha virt. eigenvalues --    4.19776   4.22328   4.23360   4.26802   4.27766
 Alpha virt. eigenvalues --    4.33636   4.35677   4.37524   4.39318   4.42692
 Alpha virt. eigenvalues --    4.47477   4.49233   4.54652   4.61894   4.64896
          Condensed to atoms (all electrons):
 Mulliken charges:
               1
     1  N   -0.737015
     2  H    0.329922
     3  H    0.443050
     4  H    0.334535
     5  C   -0.098435
     6  H    0.179077
     7  C    0.598179
     8  C   -0.285248
     9  H    0.164636
    10  H    0.155452
    11  O   -0.506355
    12  C   -0.362268
    13  H    0.171063
    14  H    0.188929
    15  C    0.577222
    16  O   -0.590199
    17  O   -0.442186
    18  N   -0.625963
    19  H    0.348434
    20  C   -0.065664
    21  H    0.173267
    22  C    0.672716
    23  C   -0.348749
    24  H    0.195717
    25  H    0.167256
    26  O   -0.583953
    27  C    0.174016
    28  C   -0.192261
    29  H    0.160859
    30  C   -0.197989
    31  H    0.143837
    32  C   -0.242701
    33  H    0.171658
    34  C   -0.202845
    35  H    0.149647
    36  O   -0.626960
    37  H    0.423634
    38  C    0.355630
    39  N   -0.614604
    40  H    0.374021
    41  C   -0.030827
    42  H    0.218302
    43  C    0.593285
    44  C   -0.288560
    45  H    0.197501
    46  H    0.140861
    47  O   -0.432885
    48  C   -0.288779
    49  H    0.190328
    50  H    0.142732
    51  C   -0.288748
    52  H    0.193022
    53  H    0.168972
    54  C   -0.198158
    55  H    0.205797
    56  H    0.208709
    57  N   -0.788996
    58  H    0.407685
    59  H    0.469318
    60  H    0.396087
    61  O   -0.583714
    62  H    0.438706
 Sum of Mulliken charges =   1.00000
 Mulliken charges with hydrogens summed into heavy atoms:
               1
     1  N   -0.072558
     5  C    0.080642
     7  C    0.598179
     8  C    0.034840
    11  O   -0.506355
    12  C   -0.002276
    15  C    0.577222
    16  O   -0.147149
    17  O   -0.442186
    18  N   -0.277528
    20  C    0.107603
    22  C    0.672716
    23  C    0.014224
    26  O   -0.583953
    27  C    0.174016
    28  C   -0.031402
    30  C   -0.054153
    32  C   -0.071043
    34  C   -0.053199
    36  O   -0.203327
    38  C    0.355630
    39  N   -0.240583
    41  C    0.187475
    43  C    0.593285
    44  C    0.049802
    47  O   -0.432885
    48  C    0.044281
    51  C    0.073245
    54  C    0.216349
    57  N    0.484094
    61  O   -0.145007
 Electronic spatial extent (au):  <R**2>=          18323.3463
 Charge=              1.0000 electrons
 Dipole moment (field-independent basis, Debye):
    X=              9.3155    Y=             13.7184    Z=             -6.2551  Tot=             17.7229
 Quadrupole moment (field-independent basis, Debye-Ang):
   XX=           -163.8290   YY=           -113.9984   ZZ=           -165.2465
   XY=             14.3469   XZ=             11.3130   YZ=            -18.8332
 Traceless Quadrupole moment (field-independent basis, Debye-Ang):
   XX=            -16.1377   YY=             33.6929   ZZ=            -17.5552
   XY=             14.3469   XZ=             11.3130   YZ=            -18.8332
 Octapole moment (field-independent basis, Debye-Ang**2):
  XXX=            -61.3688  YYY=           -225.3311  ZZZ=           -410.5910  XYY=             -4.7420
  XXY=            -11.6588  XXZ=           -275.7607  XZZ=            118.6309  YZZ=             37.7921
  YYZ=           -238.2210  XYZ=           -102.8826
 Hexadecapole moment (field-independent basis, Debye-Ang**3):
 XXXX=          -6279.7013 YYYY=          -6439.8164 ZZZZ=          -9308.7668 XXXY=          -2360.8242
 XXXZ=            470.7556 YYYX=          -2073.6785 YYYZ=           1507.3980 ZZZX=           1252.7798
 ZZZY=           2705.2502 XXYY=          -2054.9820 XXZZ=          -2974.3203 YYZZ=          -2513.8203
 XXYZ=            714.8639 YYXZ=            178.8390 ZZXY=          -1212.3840
 N-N= 3.281379415548D+03 E-N=-1.009540711156D+04  KE= 1.512147538446D+03
 Unable to Open any file for archive entry.
 1\1\GINC-SKL-156\SP\RB3LYP\6-31G(d)\C20H31N4O7(1+)\KENGMITH\24-May-202
 2\0\\# B3LYP/6-31G* guess=read geom=check nosymm integral(ultrafinegri
 d)\\Candidate Structure: Conf:883 Charge calc in gas phase\\1,1\N,0,-0
 .2149020464,-3.2073007865,3.1856382142\H,0,0.6448783188,-2.8458837254,
 3.5971039768\H,0,-1.4480006366,-3.63700497,4.596813243\H,0,0.082880643
 2,-3.7917002988,2.4039185291\C,0,-1.0358796578,-2.1023127022,2.6876795
 845\H,0,-1.3119289539,-1.4918068624,3.5565655282\C,0,-0.2847907887,-1.
 2154757236,1.6836441759\C,0,-2.333730835,-2.6430172598,2.0350641768\H,
 0,-2.0918623303,-3.0642822694,1.0504803064\H,0,-3.016159529,-1.8025691
 281,1.8602049234\O,0,0.7073732393,-1.5970844252,1.0757357825\C,0,-3.06
 43890952,-3.7212538069,2.866034632\H,0,-2.488010034,-4.6521974415,2.85
 24300275\H,0,-4.0359414281,-3.9192849096,2.4076936418\C,0,-3.315483762
 7,-3.2910276022,4.313076841\O,0,-2.2407632041,-3.3734975368,5.12800308
 15\O,0,-4.3782777188,-2.8756842016,4.70759078\N,0,-0.7801680774,0.0603
 2102,1.5178169285\H,0,-1.6789284464,0.2801303475,1.929963222\C,0,-0.33
 16372081,0.9003126488,0.406234604\H,0,-0.7436638057,1.8977715848,0.604
 7209918\C,0,1.2039359767,1.0669163094,0.4395255504\C,0,-0.8395116298,0
 .4217219964,-0.9753630396\H,0,-0.3332289943,-0.5136491033,-1.225705625
 8\H,0,-1.9055359589,0.191079391,-0.8529337508\O,0,1.8751798195,1.01535
 40118,-0.6024816958\C,0,-0.6661497294,1.4299857072,-2.0967037727\C,0,0
 .0971131641,1.1237458161,-3.2325400954\H,0,0.5735111196,0.1496998877,-
 3.3045157594\C,0,-1.2838385785,2.6879514892,-2.0527930369\H,0,-1.91344
 55554,2.9553076033,-1.2064665005\C,0,0.2596283974,2.0378229415,-4.2765
 837124\H,0,0.8071028486,1.773355216,-5.1771417482\C,0,-1.1313772601,3.
 619584982,-3.0815919249\H,0,-1.6346743805,4.5824450695,-3.0234025629\O
 ,0,-0.1684321381,4.1451848595,-5.2517410609\H,0,-0.7433468304,4.922110
 1279,-5.160938931\C,0,-0.361107987,3.2963979263,-4.2062563898\N,0,1.72
 14943405,1.3908047433,1.6390631333\H,0,1.1189130675,1.2774708475,2.446
 5738221\C,0,3.1559506741,1.5371984195,1.9200677495\H,0,3.6246137602,0.
 5423261091,1.8649395938\C,0,3.345942901,2.0019633907,3.3691686907\C,0,
 3.9135436685,2.4641475327,0.9481458775\H,0,4.9212740318,2.5863515631,1
 .356045211\H,0,4.0166244627,1.9266816708,0.0045258951\O,0,4.2903862302
 ,2.6427480473,3.7574718541\C,0,3.2713632996,3.8499421437,0.7454710891\
 H,0,3.5400415589,4.4826536608,1.5973499997\H,0,2.1762745282,3.77007448
 05,0.7663746045\C,0,3.6962061207,4.5626717149,-0.5580305485\H,0,3.6879
 835683,5.6472806944,-0.3988377425\H,0,4.7341371833,4.31310432,-0.81866
 73587\C,0,2.7830493914,4.3352080718,-1.7655080315\H,0,1.7396267266,4.5
 522211889,-1.5216348309\H,0,3.0763532735,4.9683174294,-2.6068023752\N,
 0,2.787752247,2.913086798,-2.2789716042\H,0,2.1148353279,2.7922553613,
 -3.0558674372\H,0,2.48538699,2.2107631476,-1.5492415917\H,0,3.71558255
 26,2.6394407804,-2.616738311\O,0,2.3500428238,1.567899929,4.1774366104
 \H,0,2.556182365,1.8717604827,5.0829858063\\Version=ES64L-G16RevC.01\H
 F=-1526.2175939\RMSD=8.671e-09\Dipole=2.7898778,3.8767158,-3.5292778\Q
 uadrupole=-11.997983,25.0498199,-13.051837,10.6665792,8.41091,-14.0020
 017\PG=C01 [X(C20H31N4O7)]\\@
 The archive entry for this job was punched.


 WHEN ALL ELSE FAILS, LOOK AT THE SCHRODINGER EQUATION.
     -- RUSSELL T. PACK, APRIL 1978
 Job cpu time:       0 days  0 hours  1 minutes 46.3 seconds.
 Elapsed time:       0 days  0 hours  0 minutes 27.1 seconds.
 File lengths (MBytes):  RWF=    264 Int=      0 D2E=      0 Chk=     40 Scr=     16
 Normal termination of Gaussian 16 at Tue May 24 03:12:56 2022.
