 Entering Gaussian System, Link 0=/opt/software/Gaussian/g16-AVX2-C.01/g16/g16
 Input=charge-conf-948.com
 Output=charge-conf-948.log
 Initial command:
 /opt/software/Gaussian/g16-AVX2-C.01/g16/l1.exe "/mnt/gs18/scratch/users/kengmith/Gau-12176.inp" -scrdir="/mnt/gs18/scratch/users/kengmith/"
 Entering Link 1 = /opt/software/Gaussian/g16-AVX2-C.01/g16/l1.exe PID=     12186.
  
 Copyright (c) 1988-2019, Gaussian, Inc.  All Rights Reserved.
  
 This is part of the Gaussian(R) 16 program.  It is based on
 the Gaussian(R) 09 system (copyright 2009, Gaussian, Inc.),
 the Gaussian(R) 03 system (copyright 2003, Gaussian, Inc.),
 the Gaussian(R) 98 system (copyright 1998, Gaussian, Inc.),
 the Gaussian(R) 94 system (copyright 1995, Gaussian, Inc.),
 the Gaussian 92(TM) system (copyright 1992, Gaussian, Inc.),
 the Gaussian 90(TM) system (copyright 1990, Gaussian, Inc.),
 the Gaussian 88(TM) system (copyright 1988, Gaussian, Inc.),
 the Gaussian 86(TM) system (copyright 1986, Carnegie Mellon
 University), and the Gaussian 82(TM) system (copyright 1983,
 Carnegie Mellon University). Gaussian is a federally registered
 trademark of Gaussian, Inc.
  
 This software contains proprietary and confidential information,
 including trade secrets, belonging to Gaussian, Inc.
  
 This software is provided under written license and may be
 used, copied, transmitted, or stored only in accord with that
 written license.
  
 The following legend is applicable only to US Government
 contracts under FAR:
  
                    RESTRICTED RIGHTS LEGEND
  
 Use, reproduction and disclosure by the US Government is
 subject to restrictions as set forth in subparagraphs (a)
 and (c) of the Commercial Computer Software - Restricted
 Rights clause in FAR 52.227-19.
  
 Gaussian, Inc.
 340 Quinnipiac St., Bldg. 40, Wallingford CT 06492
  
  
 ---------------------------------------------------------------
 Warning -- This program may not be used in any manner that
 competes with the business of Gaussian, Inc. or will provide
 assistance to any competitor of Gaussian, Inc.  The licensee
 of this program is prohibited from giving any competitor of
 Gaussian, Inc. access to this program.  By using this program,
 the user acknowledges that Gaussian, Inc. is engaged in the
 business of creating and licensing software in the field of
 computational chemistry and represents and warrants to the
 licensee that it is not a competitor of Gaussian, Inc. and that
 it will not use this program in any manner prohibited above.
 ---------------------------------------------------------------
  

 Cite this work as:
 Gaussian 16, Revision C.01,
 M. J. Frisch, G. W. Trucks, H. B. Schlegel, G. E. Scuseria, 
 M. A. Robb, J. R. Cheeseman, G. Scalmani, V. Barone, 
 G. A. Petersson, H. Nakatsuji, X. Li, M. Caricato, A. V. Marenich, 
 J. Bloino, B. G. Janesko, R. Gomperts, B. Mennucci, H. P. Hratchian, 
 J. V. Ortiz, A. F. Izmaylov, J. L. Sonnenberg, D. Williams-Young, 
 F. Ding, F. Lipparini, F. Egidi, J. Goings, B. Peng, A. Petrone, 
 T. Henderson, D. Ranasinghe, V. G. Zakrzewski, J. Gao, N. Rega, 
 G. Zheng, W. Liang, M. Hada, M. Ehara, K. Toyota, R. Fukuda, 
 J. Hasegawa, M. Ishida, T. Nakajima, Y. Honda, O. Kitao, H. Nakai, 
 T. Vreven, K. Throssell, J. A. Montgomery, Jr., J. E. Peralta, 
 F. Ogliaro, M. J. Bearpark, J. J. Heyd, E. N. Brothers, K. N. Kudin, 
 V. N. Staroverov, T. A. Keith, R. Kobayashi, J. Normand, 
 K. Raghavachari, A. P. Rendell, J. C. Burant, S. S. Iyengar, 
 J. Tomasi, M. Cossi, J. M. Millam, M. Klene, C. Adamo, R. Cammi, 
 J. W. Ochterski, R. L. Martin, K. Morokuma, O. Farkas, 
 J. B. Foresman, and D. J. Fox, Gaussian, Inc., Wallingford CT, 2019.
 
 ******************************************
 Gaussian 16:  ES64L-G16RevC.01  3-Jul-2019
                24-May-2022 
 ******************************************
 %mem=8gb
 %nproc=4
 Will use up to    4 processors via shared memory.
 %chk=conf-948.chk
 -------------------------------------------------------------------
 # B3LYP/6-31G* guess=read geom=check nosymm integral(ultrafinegrid)
 -------------------------------------------------------------------
 1/29=2,38=1,172=1/1;
 2/12=2,15=1,40=1/2;
 3/5=1,6=6,7=1,11=2,14=-4,25=1,30=1,74=-5,75=-5,116=-2/1,2,3;
 4/5=1/1;
 5/5=2,38=6/2;
 6/7=2,8=2,9=2,10=2,28=1/1;
 99/5=1,9=1/99;
 ------------------------------------------------------
 Candidate Structure: Conf:948 Charge calc in gas phase
 ------------------------------------------------------
 Structure from the checkpoint file:  "conf-948.chk"
 Charge =  1 Multiplicity = 1
 Redundant internal coordinates found in file.  (old form).
 N,0,0.5938685936,-3.4579566148,1.1331880948
 H,0,1.4729947789,-3.4096368001,1.7587986686
 H,0,-0.0915423265,-4.1243147574,1.4991613702
 H,0,0.7672347432,-3.6978246653,0.1477287278
 C,0,0.1028259103,-2.0446439437,1.2015502078
 H,0,0.9945172594,-1.439533233,1.0064300068
 C,0,-0.706642103,-1.7431527277,-0.0680419679
 C,0,-0.3517903278,-1.738736066,2.64108268
 H,0,-0.6872976799,-2.6697718246,3.1157442834
 H,0,-1.2325999568,-1.088266629,2.6387618542
 O,0,-0.5796014504,-2.5062470787,-1.0197197962
 C,0,0.7601461009,-1.0596176943,3.4744426942
 H,0,0.5480732806,-1.1750312807,4.5437808867
 H,0,0.7515897744,0.0172605334,3.2811492967
 C,0,2.2144263957,-1.5064556043,3.2298619107
 O,0,3.0827224336,-0.6845176556,3.6585550847
 O,0,2.5098116028,-2.5759502277,2.6210518793
 N,0,-1.3211787646,-0.5178943484,-0.1144238607
 H,0,-1.2347081111,-0.0225630953,0.7669018907
 C,0,-0.9563123289,0.4172065618,-1.2136256558
 H,0,-1.5321727318,1.3271496692,-1.0113867706
 C,0,0.53725141,0.7801924654,-0.9477469924
 C,0,-1.3451158316,-0.0980895661,-2.6133926595
 H,0,-0.7215482868,-0.9539259896,-2.8804008367
 H,0,-2.3670403598,-0.4866169997,-2.5232111316
 O,0,0.9492883068,0.739687167,0.2211871911
 C,0,-1.2844138272,0.9558598046,-3.7050881822
 C,0,-2.0210201464,2.1508741156,-3.6218797006
 H,0,-2.6426493978,2.3470519012,-2.7507631216
 C,0,-0.530578966,0.7362950748,-4.8652604955
 H,0,0.0292829718,-0.1902361712,-4.9748994274
 C,0,-1.9997876369,3.0905344355,-4.6440872415
 H,0,-2.5762404893,4.0075919463,-4.5787039706
 C,0,-0.5003069816,1.6695627458,-5.9036129029
 H,0,0.0857693117,1.4690444155,-6.7982156362
 O,0,-1.2579402677,3.8097881903,-6.7631984993
 H,0,-0.7480208493,3.5110244549,-7.5326577688
 C,0,-1.2365390065,2.8527433687,-5.7961432364
 N,0,1.3579240014,1.1000805814,-1.9679865693
 H,0,1.0075998899,1.2046782916,-2.9147974179
 C,0,2.7660873336,1.3685209948,-1.6672901397
 H,0,2.7881126841,1.9785426525,-0.7599229029
 C,0,3.4636466238,2.1769977489,-2.7468572333
 C,0,3.5411868595,0.0447218326,-1.3929894956
 H,0,2.840018332,-0.6153190454,-0.8740025253
 H,0,3.7822453209,-0.4355875185,-2.3489703893
 O,0,4.5879772175,2.604715359,-2.6217214686
 C,0,4.8137539592,0.1715359258,-0.538222358
 H,0,5.5825718914,0.7282132236,-1.083669919
 H,0,5.2075249138,-0.8489679632,-0.4123527709
 C,0,4.5812365403,0.8338382649,0.8377161254
 H,0,4.628435999,1.9227974474,0.7260853011
 H,0,3.5769609071,0.6131351479,1.2199210809
 C,0,5.6100518503,0.449543121,1.9051083915
 H,0,6.6277283625,0.448354382,1.501327388
 H,0,5.5752556403,1.1463947974,2.7461559699
 N,0,5.3178414987,-0.9055600373,2.4896554602
 H,0,6.0638320068,-1.2071505331,3.1209019111
 H,0,5.225070558,-1.6228169403,1.7662386375
 H,0,4.3084976136,-0.8865844927,3.0794908712
 O,0,2.7191117973,2.3393424124,-3.8613730282
 H,0,3.2511024031,2.8648101604,-4.4899497424
 Recover connectivity data from disk.
                           ----------------------------
                           !    Current Parameters    !
                           ! (Angstroms and Degrees)  !
 --------------------------                            --------------------------
 ! Name  Definition              Value                                          !
 --------------------------------------------------------------------------------
 ! R1    R(1,2)                  1.0801                                         !
 ! R2    R(1,3)                  1.0236                                         !
 ! R3    R(1,4)                  1.0289                                         !
 ! R4    R(1,5)                  1.4977                                         !
 ! R5    R(5,6)                  1.0951                                         !
 ! R6    R(5,7)                  1.5356                                         !
 ! R7    R(5,8)                  1.5403                                         !
 ! R8    R(7,11)                 1.2264                                         !
 ! R9    R(7,18)                 1.3715                                         !
 ! R10   R(8,9)                  1.0976                                         !
 ! R11   R(8,10)                 1.095                                          !
 ! R12   R(8,12)                 1.5466                                         !
 ! R13   R(12,13)                1.0963                                         !
 ! R14   R(12,14)                1.0941                                         !
 ! R15   R(12,15)                1.5409                                         !
 ! R16   R(15,16)                1.2702                                         !
 ! R17   R(15,17)                1.2656                                         !
 ! R18   R(18,19)                1.0147                                         !
 ! R19   R(18,20)                1.4886                                         !
 ! R20   R(20,21)                1.0957                                         !
 ! R21   R(20,22)                1.5599                                         !
 ! R22   R(20,23)                1.5414                                         !
 ! R23   R(22,26)                1.2401                                         !
 ! R24   R(22,39)                1.3479                                         !
 ! R25   R(23,24)                1.0921                                         !
 ! R26   R(23,25)                1.097                                          !
 ! R27   R(23,27)                1.5186                                         !
 ! R28   R(27,28)                1.4063                                         !
 ! R29   R(27,30)                1.4009                                         !
 ! R30   R(28,29)                1.088                                          !
 ! R31   R(28,32)                1.3886                                         !
 ! R32   R(30,31)                1.0881                                         !
 ! R33   R(30,34)                1.3965                                         !
 ! R34   R(32,33)                1.0852                                         !
 ! R35   R(32,38)                1.4023                                         !
 ! R36   R(34,35)                1.0881                                         !
 ! R37   R(34,38)                1.3977                                         !
 ! R38   R(36,37)                0.9702                                         !
 ! R39   R(36,38)                1.3607                                         !
 ! R40   R(39,40)                1.0149                                         !
 ! R41   R(39,41)                1.4647                                         !
 ! R42   R(41,42)                1.0936                                         !
 ! R43   R(41,43)                1.5184                                         !
 ! R44   R(41,44)                1.5584                                         !
 ! R45   R(43,47)                1.2094                                         !
 ! R46   R(43,61)                1.3501                                         !
 ! R47   R(44,45)                1.0939                                         !
 ! R48   R(44,46)                1.0967                                         !
 ! R49   R(44,48)                1.5382                                         !
 ! R50   R(48,49)                1.0948                                         !
 ! R51   R(48,50)                1.1011                                         !
 ! R52   R(48,51)                1.5446                                         !
 ! R53   R(51,52)                1.0957                                         !
 ! R54   R(51,53)                1.097                                          !
 ! R55   R(51,54)                1.5315                                         !
 ! R56   R(54,55)                1.0949                                         !
 ! R57   R(54,56)                1.0928                                         !
 ! R58   R(54,57)                1.5045                                         !
 ! R59   R(57,58)                1.0227                                         !
 ! R60   R(57,59)                1.0229                                         !
 ! R61   R(57,60)                1.1692                                         !
 ! R62   R(61,62)                0.9769                                         !
 ! A1    A(2,1,3)              111.5339                                         !
 ! A2    A(2,1,4)              115.3428                                         !
 ! A3    A(2,1,5)              101.4318                                         !
 ! A4    A(3,1,4)              107.6672                                         !
 ! A5    A(3,1,5)              112.2372                                         !
 ! A6    A(4,1,5)              108.5984                                         !
 ! A7    A(1,5,6)              104.2594                                         !
 ! A8    A(1,5,7)              108.6845                                         !
 ! A9    A(1,5,8)              109.0765                                         !
 ! A10   A(6,5,7)               99.9867                                         !
 ! A11   A(6,5,8)              107.2831                                         !
 ! A12   A(7,5,8)              125.3184                                         !
 ! A13   A(5,7,11)             117.6969                                         !
 ! A14   A(5,7,18)             116.0756                                         !
 ! A15   A(11,7,18)            125.1714                                         !
 ! A16   A(5,8,9)              109.0215                                         !
 ! A17   A(5,8,10)             110.6969                                         !
 ! A18   A(5,8,12)             112.246                                          !
 ! A19   A(9,8,10)             105.007                                          !
 ! A20   A(9,8,12)             111.0516                                         !
 ! A21   A(10,8,12)            108.5797                                         !
 ! A22   A(8,12,13)            109.894                                          !
 ! A23   A(8,12,14)            109.3513                                         !
 ! A24   A(8,12,15)            117.7532                                         !
 ! A25   A(13,12,14)           105.9283                                         !
 ! A26   A(13,12,15)           107.8709                                         !
 ! A27   A(14,12,15)           105.3522                                         !
 ! A28   A(12,15,16)           113.8257                                         !
 ! A29   A(12,15,17)           122.7981                                         !
 ! A30   A(16,15,17)           123.3433                                         !
 ! A31   A(7,18,19)            111.6262                                         !
 ! A32   A(7,18,20)            118.4471                                         !
 ! A33   A(19,18,20)           108.2907                                         !
 ! A34   A(18,20,21)           104.8672                                         !
 ! A35   A(18,20,22)           104.7744                                         !
 ! A36   A(18,20,23)           113.4993                                         !
 ! A37   A(21,20,22)           106.1717                                         !
 ! A38   A(21,20,23)           108.2204                                         !
 ! A39   A(22,20,23)           118.2999                                         !
 ! A40   A(20,22,26)           118.1128                                         !
 ! A41   A(20,22,39)           120.6106                                         !
 ! A42   A(26,22,39)           121.2617                                         !
 ! A43   A(20,23,24)           109.876                                          !
 ! A44   A(20,23,25)           106.1836                                         !
 ! A45   A(20,23,27)           114.2491                                         !
 ! A46   A(24,23,25)           105.9299                                         !
 ! A47   A(24,23,27)           110.2002                                         !
 ! A48   A(25,23,27)           110.0066                                         !
 ! A49   A(23,27,28)           121.7545                                         !
 ! A50   A(23,27,30)           120.5357                                         !
 ! A51   A(28,27,30)           117.6493                                         !
 ! A52   A(27,28,29)           119.9916                                         !
 ! A53   A(27,28,32)           121.5647                                         !
 ! A54   A(29,28,32)           118.4313                                         !
 ! A55   A(27,30,31)           119.5901                                         !
 ! A56   A(27,30,34)           121.5147                                         !
 ! A57   A(31,30,34)           118.882                                          !
 ! A58   A(28,32,33)           121.2906                                         !
 ! A59   A(28,32,38)           119.8909                                         !
 ! A60   A(33,32,38)           118.8129                                         !
 ! A61   A(30,34,35)           119.9897                                         !
 ! A62   A(30,34,38)           119.812                                          !
 ! A63   A(35,34,38)           120.1942                                         !
 ! A64   A(37,36,38)           109.8026                                         !
 ! A65   A(32,38,34)           119.5667                                         !
 ! A66   A(32,38,36)           117.1326                                         !
 ! A67   A(34,38,36)           123.3006                                         !
 ! A68   A(22,39,40)           121.3602                                         !
 ! A69   A(22,39,41)           118.2594                                         !
 ! A70   A(40,39,41)           120.2956                                         !
 ! A71   A(39,41,42)           106.9735                                         !
 ! A72   A(39,41,43)           113.1584                                         !
 ! A73   A(39,41,44)           111.016                                          !
 ! A74   A(42,41,43)           106.478                                          !
 ! A75   A(42,41,44)           108.5296                                         !
 ! A76   A(43,41,44)           110.423                                          !
 ! A77   A(41,43,47)           122.8063                                         !
 ! A78   A(41,43,61)           113.4274                                         !
 ! A79   A(47,43,61)           123.748                                          !
 ! A80   A(41,44,45)           106.0967                                         !
 ! A81   A(41,44,46)           109.1437                                         !
 ! A82   A(41,44,48)           116.0568                                         !
 ! A83   A(45,44,46)           106.8698                                         !
 ! A84   A(45,44,48)           108.4444                                         !
 ! A85   A(46,44,48)           109.7949                                         !
 ! A86   A(44,48,49)           110.2458                                         !
 ! A87   A(44,48,50)           106.4381                                         !
 ! A88   A(44,48,51)           113.9418                                         !
 ! A89   A(49,48,50)           106.087                                          !
 ! A90   A(49,48,51)           109.3602                                         !
 ! A91   A(50,48,51)           110.4511                                         !
 ! A92   A(48,51,52)           109.2022                                         !
 ! A93   A(48,51,53)           111.2174                                         !
 ! A94   A(48,51,54)           114.3385                                         !
 ! A95   A(52,51,53)           105.9556                                         !
 ! A96   A(52,51,54)           106.9453                                         !
 ! A97   A(53,51,54)           108.7649                                         !
 ! A98   A(51,54,55)           111.5709                                         !
 ! A99   A(51,54,56)           110.7937                                         !
 ! A100  A(51,54,57)           111.4901                                         !
 ! A101  A(55,54,56)           108.3084                                         !
 ! A102  A(55,54,57)           108.8357                                         !
 ! A103  A(56,54,57)           105.6141                                         !
 ! A104  A(54,57,58)           111.3315                                         !
 ! A105  A(54,57,59)           111.9875                                         !
 ! A106  A(54,57,60)           110.4302                                         !
 ! A107  A(58,57,59)           107.2105                                         !
 ! A108  A(58,57,60)           108.8507                                         !
 ! A109  A(59,57,60)           106.8491                                         !
 ! A110  A(43,61,62)           107.19                                           !
 ! D1    D(2,1,5,6)             48.2092                                         !
 ! D2    D(2,1,5,7)            154.1613                                         !
 ! D3    D(2,1,5,8)            -66.1362                                         !
 ! D4    D(3,1,5,6)            167.369                                          !
 ! D5    D(3,1,5,7)            -86.6789                                         !
 ! D6    D(3,1,5,8)             53.0235                                         !
 ! D7    D(4,1,5,6)            -73.7155                                         !
 ! D8    D(4,1,5,7)             32.2366                                         !
 ! D9    D(4,1,5,8)            171.939                                          !
 ! D10   D(1,5,7,11)           -16.2105                                         !
 ! D11   D(1,5,7,18)           174.9235                                         !
 ! D12   D(6,5,7,11)            92.6682                                         !
 ! D13   D(6,5,7,18)           -76.1979                                         !
 ! D14   D(8,5,7,11)          -147.697                                          !
 ! D15   D(8,5,7,18)            43.437                                          !
 ! D16   D(1,5,8,9)            -28.2575                                         !
 ! D17   D(1,5,8,10)          -143.2838                                         !
 ! D18   D(1,5,8,12)            95.2141                                         !
 ! D19   D(6,5,8,9)           -140.6251                                         !
 ! D20   D(6,5,8,10)           104.3486                                         !
 ! D21   D(6,5,8,12)           -17.1536                                         !
 ! D22   D(7,5,8,9)            103.0771                                         !
 ! D23   D(7,5,8,10)           -11.9493                                         !
 ! D24   D(7,5,8,12)          -133.4514                                         !
 ! D25   D(5,7,18,19)           -6.7474                                         !
 ! D26   D(5,7,18,20)          120.033                                          !
 ! D27   D(11,7,18,19)        -174.674                                          !
 ! D28   D(11,7,18,20)         -47.8937                                         !
 ! D29   D(5,8,12,13)         -160.2228                                         !
 ! D30   D(5,8,12,14)           83.9016                                         !
 ! D31   D(5,8,12,15)          -36.223                                          !
 ! D32   D(9,8,12,13)          -37.8959                                         !
 ! D33   D(9,8,12,14)         -153.7715                                         !
 ! D34   D(9,8,12,15)           86.1039                                         !
 ! D35   D(10,8,12,13)          77.0708                                         !
 ! D36   D(10,8,12,14)         -38.8048                                         !
 ! D37   D(10,8,12,15)        -158.9294                                         !
 ! D38   D(8,12,15,16)         161.8739                                         !
 ! D39   D(8,12,15,17)         -16.1028                                         !
 ! D40   D(13,12,15,16)        -73.1195                                         !
 ! D41   D(13,12,15,17)        108.9038                                         !
 ! D42   D(14,12,15,16)         39.682                                          !
 ! D43   D(14,12,15,17)       -138.2947                                         !
 ! D44   D(7,18,20,21)        -177.4041                                         !
 ! D45   D(7,18,20,22)         -65.81                                           !
 ! D46   D(7,18,20,23)          64.6795                                         !
 ! D47   D(19,18,20,21)        -49.0486                                         !
 ! D48   D(19,18,20,22)         62.5455                                         !
 ! D49   D(19,18,20,23)       -166.9651                                         !
 ! D50   D(18,20,22,26)        -27.6725                                         !
 ! D51   D(18,20,22,39)        150.94                                           !
 ! D52   D(21,20,22,26)         82.9841                                         !
 ! D53   D(21,20,22,39)        -98.4035                                         !
 ! D54   D(23,20,22,26)       -155.2877                                         !
 ! D55   D(23,20,22,39)         23.3248                                         !
 ! D56   D(18,20,23,24)        -69.121                                          !
 ! D57   D(18,20,23,25)         45.009                                          !
 ! D58   D(18,20,23,27)        166.4383                                         !
 ! D59   D(21,20,23,24)        174.9232                                         !
 ! D60   D(21,20,23,25)        -70.9468                                         !
 ! D61   D(21,20,23,27)         50.4825                                         !
 ! D62   D(22,20,23,24)         54.2417                                         !
 ! D63   D(22,20,23,25)        168.3717                                         !
 ! D64   D(22,20,23,27)        -70.199                                          !
 ! D65   D(20,22,39,40)          6.2756                                         !
 ! D66   D(20,22,39,41)       -177.0647                                         !
 ! D67   D(26,22,39,40)       -175.1561                                         !
 ! D68   D(26,22,39,41)          1.5035                                         !
 ! D69   D(20,23,27,28)        -57.0368                                         !
 ! D70   D(20,23,27,30)        125.8604                                         !
 ! D71   D(24,23,27,28)        178.6955                                         !
 ! D72   D(24,23,27,30)          1.5928                                         !
 ! D73   D(25,23,27,28)         62.2596                                         !
 ! D74   D(25,23,27,30)       -114.8431                                         !
 ! D75   D(23,27,28,29)          1.0299                                         !
 ! D76   D(23,27,28,32)       -177.6715                                         !
 ! D77   D(30,27,28,29)        178.2127                                         !
 ! D78   D(30,27,28,32)         -0.4886                                         !
 ! D79   D(23,27,30,31)         -1.0893                                         !
 ! D80   D(23,27,30,34)        177.5769                                         !
 ! D81   D(28,27,30,31)       -178.3082                                         !
 ! D82   D(28,27,30,34)          0.358                                          !
 ! D83   D(27,28,32,33)        179.5012                                         !
 ! D84   D(27,28,32,38)          0.3751                                         !
 ! D85   D(29,28,32,33)          0.7802                                         !
 ! D86   D(29,28,32,38)       -178.346                                          !
 ! D87   D(27,30,34,35)       -179.3786                                         !
 ! D88   D(27,30,34,38)         -0.1164                                         !
 ! D89   D(31,30,34,35)         -0.7032                                         !
 ! D90   D(31,30,34,38)        178.559                                          !
 ! D91   D(28,32,38,34)         -0.1163                                         !
 ! D92   D(28,32,38,36)        179.9007                                         !
 ! D93   D(33,32,38,34)       -179.264                                          !
 ! D94   D(33,32,38,36)          0.7529                                         !
 ! D95   D(30,34,38,32)         -0.011                                          !
 ! D96   D(30,34,38,36)        179.971                                          !
 ! D97   D(35,34,38,32)        179.2497                                         !
 ! D98   D(35,34,38,36)         -0.7683                                         !
 ! D99   D(37,36,38,32)       -176.0586                                         !
 ! D100  D(37,36,38,34)          3.959                                          !
 ! D101  D(22,39,41,42)        -42.4501                                         !
 ! D102  D(22,39,41,43)       -159.3938                                         !
 ! D103  D(22,39,41,44)         75.7927                                         !
 ! D104  D(40,39,41,42)        134.2464                                         !
 ! D105  D(40,39,41,43)         17.3027                                         !
 ! D106  D(40,39,41,44)       -107.5108                                         !
 ! D107  D(39,41,43,47)        172.8202                                         !
 ! D108  D(39,41,43,61)         -8.685                                          !
 ! D109  D(42,41,43,47)         55.5853                                         !
 ! D110  D(42,41,43,61)       -125.9198                                         !
 ! D111  D(44,41,43,47)        -62.0457                                         !
 ! D112  D(44,41,43,61)        116.4492                                         !
 ! D113  D(39,41,44,45)        -35.6454                                         !
 ! D114  D(39,41,44,46)         79.1825                                         !
 ! D115  D(39,41,44,48)       -156.153                                          !
 ! D116  D(42,41,44,45)         81.6513                                         !
 ! D117  D(42,41,44,46)       -163.5208                                         !
 ! D118  D(42,41,44,48)        -38.8563                                         !
 ! D119  D(43,41,44,45)       -161.9878                                         !
 ! D120  D(43,41,44,46)        -47.16                                           !
 ! D121  D(43,41,44,48)         77.5046                                         !
 ! D122  D(41,43,61,62)       -179.8437                                         !
 ! D123  D(47,43,61,62)         -1.3652                                         !
 ! D124  D(41,44,48,49)        -67.5134                                         !
 ! D125  D(41,44,48,50)        177.857                                          !
 ! D126  D(41,44,48,51)         55.8789                                         !
 ! D127  D(45,44,48,49)        173.2499                                         !
 ! D128  D(45,44,48,50)         58.6203                                         !
 ! D129  D(45,44,48,51)        -63.3578                                         !
 ! D130  D(46,44,48,49)         56.8162                                         !
 ! D131  D(46,44,48,50)        -57.8134                                         !
 ! D132  D(46,44,48,51)       -179.7915                                         !
 ! D133  D(44,48,51,52)        -85.1807                                         !
 ! D134  D(44,48,51,53)         31.4004                                         !
 ! D135  D(44,48,51,54)        155.0657                                         !
 ! D136  D(49,48,51,52)         38.6909                                         !
 ! D137  D(49,48,51,53)        155.272                                          !
 ! D138  D(49,48,51,54)        -81.0627                                         !
 ! D139  D(50,48,51,52)        155.0819                                         !
 ! D140  D(50,48,51,53)        -88.337                                          !
 ! D141  D(50,48,51,54)         35.3283                                         !
 ! D142  D(48,51,54,55)         42.9268                                         !
 ! D143  D(48,51,54,56)        163.6872                                         !
 ! D144  D(48,51,54,57)        -78.9948                                         !
 ! D145  D(52,51,54,55)        -78.0832                                         !
 ! D146  D(52,51,54,56)         42.6773                                         !
 ! D147  D(52,51,54,57)        159.9952                                         !
 ! D148  D(53,51,54,55)        167.8992                                         !
 ! D149  D(53,51,54,56)        -71.3403                                         !
 ! D150  D(53,51,54,57)         45.9777                                         !
 ! D151  D(51,54,57,58)        173.3661                                         !
 ! D152  D(51,54,57,59)         53.3501                                         !
 ! D153  D(51,54,57,60)        -65.5953                                         !
 ! D154  D(55,54,57,58)         49.8768                                         !
 ! D155  D(55,54,57,59)        -70.1392                                         !
 ! D156  D(55,54,57,60)        170.9155                                         !
 ! D157  D(56,54,57,58)        -66.2243                                         !
 ! D158  D(56,54,57,59)        173.7596                                         !
 ! D159  D(56,54,57,60)         54.8143                                         !
 --------------------------------------------------------------------------------
 Symmetry turned off by external request.
 Stoichiometry    C20H31N4O7(1+)
 Framework group  C1[X(C20H31N4O7)]
 Deg. of freedom   180
 Full point group                 C1      NOp   1
                          Input orientation:                          
 ---------------------------------------------------------------------
 Center     Atomic      Atomic             Coordinates (Angstroms)
 Number     Number       Type             X           Y           Z
 ---------------------------------------------------------------------
      1          7           0        0.593869   -3.457957    1.133188
      2          1           0        1.472995   -3.409637    1.758799
      3          1           0       -0.091542   -4.124315    1.499161
      4          1           0        0.767235   -3.697825    0.147729
      5          6           0        0.102826   -2.044644    1.201550
      6          1           0        0.994517   -1.439533    1.006430
      7          6           0       -0.706642   -1.743153   -0.068042
      8          6           0       -0.351790   -1.738736    2.641083
      9          1           0       -0.687298   -2.669772    3.115744
     10          1           0       -1.232600   -1.088267    2.638762
     11          8           0       -0.579601   -2.506247   -1.019720
     12          6           0        0.760146   -1.059618    3.474443
     13          1           0        0.548073   -1.175031    4.543781
     14          1           0        0.751590    0.017261    3.281149
     15          6           0        2.214426   -1.506456    3.229862
     16          8           0        3.082722   -0.684518    3.658555
     17          8           0        2.509812   -2.575950    2.621052
     18          7           0       -1.321179   -0.517894   -0.114424
     19          1           0       -1.234708   -0.022563    0.766902
     20          6           0       -0.956312    0.417207   -1.213626
     21          1           0       -1.532173    1.327150   -1.011387
     22          6           0        0.537251    0.780192   -0.947747
     23          6           0       -1.345116   -0.098090   -2.613393
     24          1           0       -0.721548   -0.953926   -2.880401
     25          1           0       -2.367040   -0.486617   -2.523211
     26          8           0        0.949288    0.739687    0.221187
     27          6           0       -1.284414    0.955860   -3.705088
     28          6           0       -2.021020    2.150874   -3.621880
     29          1           0       -2.642649    2.347052   -2.750763
     30          6           0       -0.530579    0.736295   -4.865260
     31          1           0        0.029283   -0.190236   -4.974899
     32          6           0       -1.999788    3.090534   -4.644087
     33          1           0       -2.576240    4.007592   -4.578704
     34          6           0       -0.500307    1.669563   -5.903613
     35          1           0        0.085769    1.469044   -6.798216
     36          8           0       -1.257940    3.809788   -6.763198
     37          1           0       -0.748021    3.511024   -7.532658
     38          6           0       -1.236539    2.852743   -5.796143
     39          7           0        1.357924    1.100081   -1.967987
     40          1           0        1.007600    1.204678   -2.914797
     41          6           0        2.766087    1.368521   -1.667290
     42          1           0        2.788113    1.978543   -0.759923
     43          6           0        3.463647    2.176998   -2.746857
     44          6           0        3.541187    0.044722   -1.392989
     45          1           0        2.840018   -0.615319   -0.874003
     46          1           0        3.782245   -0.435588   -2.348970
     47          8           0        4.587977    2.604715   -2.621721
     48          6           0        4.813754    0.171536   -0.538222
     49          1           0        5.582572    0.728213   -1.083670
     50          1           0        5.207525   -0.848968   -0.412353
     51          6           0        4.581237    0.833838    0.837716
     52          1           0        4.628436    1.922797    0.726085
     53          1           0        3.576961    0.613135    1.219921
     54          6           0        5.610052    0.449543    1.905108
     55          1           0        6.627728    0.448354    1.501327
     56          1           0        5.575256    1.146395    2.746156
     57          7           0        5.317841   -0.905560    2.489655
     58          1           0        6.063832   -1.207151    3.120902
     59          1           0        5.225071   -1.622817    1.766239
     60          1           0        4.308498   -0.886584    3.079491
     61          8           0        2.719112    2.339342   -3.861373
     62          1           0        3.251102    2.864810   -4.489950
 ---------------------------------------------------------------------
 Rotational constants (GHZ):           0.2085552           0.0888310           0.0681579
 Standard basis: 6-31G(d) (6D, 7F)
   527 basis functions,   992 primitive gaussians,   527 cartesian basis functions
   117 alpha electrons      117 beta electrons
       nuclear repulsion energy      3360.7002646345 Hartrees.
 NAtoms=   62 NActive=   62 NUniq=   62 SFac= 1.00D+00 NAtFMM=   60 NAOKFM=T Big=T
 Integral buffers will be    131072 words long.
 Raffenetti 2 integral format.
 Two-electron integral symmetry is turned off.
 One-electron integrals computed using PRISM.
 NBasis=   527 RedAO= T EigKep=  4.34D-04  NBF=   527
 NBsUse=   527 1.00D-06 EigRej= -1.00D+00 NBFU=   527
 Initial guess from the checkpoint file:  "conf-948.chk"
 B after Tr=     0.000000    0.000000    0.000000
         Rot=    1.000000    0.000000    0.000000    0.000000 Ang=   0.00 deg.
 Requested convergence on RMS density matrix=1.00D-08 within 128 cycles.
 Requested convergence on MAX density matrix=1.00D-06.
 Requested convergence on             energy=1.00D-06.
 No special actions if energy rises.
 SCF Done:  E(RB3LYP) =  -1526.21614101     A.U. after    1 cycles
            NFock=  1  Conv=0.94D-08     -V/T= 2.0093

 **********************************************************************

            Population analysis using the SCF Density.

 **********************************************************************

 Alpha  occ. eigenvalues --  -19.30174 -19.25604 -19.25347 -19.23959 -19.22811
 Alpha  occ. eigenvalues --  -19.22583 -19.22255 -14.55353 -14.52169 -14.47303
 Alpha  occ. eigenvalues --  -14.47139 -10.42444 -10.42078 -10.40237 -10.39919
 Alpha  occ. eigenvalues --  -10.37473 -10.35042 -10.34960 -10.34516 -10.33188
 Alpha  occ. eigenvalues --  -10.32622 -10.29864 -10.29836 -10.29702 -10.29365
 Alpha  occ. eigenvalues --  -10.28774 -10.28045 -10.27831 -10.27617 -10.27304
 Alpha  occ. eigenvalues --  -10.26741  -1.20903  -1.17323  -1.15829  -1.14755
 Alpha  occ. eigenvalues --   -1.13789  -1.11836  -1.10715  -1.07618  -1.05999
 Alpha  occ. eigenvalues --   -1.04433  -1.03245  -0.94058  -0.92067  -0.91383
 Alpha  occ. eigenvalues --   -0.88688  -0.86642  -0.84022  -0.83186  -0.82356
 Alpha  occ. eigenvalues --   -0.80876  -0.76570  -0.75658  -0.75480  -0.72378
 Alpha  occ. eigenvalues --   -0.71533  -0.70600  -0.70270  -0.69261  -0.68559
 Alpha  occ. eigenvalues --   -0.68013  -0.66904  -0.66602  -0.65846  -0.64519
 Alpha  occ. eigenvalues --   -0.63269  -0.62569  -0.62008  -0.60916  -0.59620
 Alpha  occ. eigenvalues --   -0.59166  -0.58061  -0.57837  -0.57150  -0.56432
 Alpha  occ. eigenvalues --   -0.56321  -0.56023  -0.55785  -0.55082  -0.54887
 Alpha  occ. eigenvalues --   -0.54241  -0.53306  -0.53175  -0.52392  -0.52114
 Alpha  occ. eigenvalues --   -0.51602  -0.51425  -0.50583  -0.50514  -0.50161
 Alpha  occ. eigenvalues --   -0.49926  -0.49211  -0.48539  -0.48272  -0.48077
 Alpha  occ. eigenvalues --   -0.48003  -0.47648  -0.46820  -0.45738  -0.45340
 Alpha  occ. eigenvalues --   -0.45132  -0.44066  -0.43902  -0.43657  -0.41983
 Alpha  occ. eigenvalues --   -0.41882  -0.41092  -0.39277  -0.38132  -0.38056
 Alpha  occ. eigenvalues --   -0.37641  -0.37053  -0.36747  -0.36627  -0.35930
 Alpha  occ. eigenvalues --   -0.33625  -0.30096
 Alpha virt. eigenvalues --   -0.12356  -0.09746  -0.09005  -0.08895  -0.07487
 Alpha virt. eigenvalues --   -0.07283  -0.06379  -0.06243  -0.03601  -0.03115
 Alpha virt. eigenvalues --   -0.02243  -0.01599  -0.01006  -0.00442   0.00442
 Alpha virt. eigenvalues --    0.00774   0.01283   0.01821   0.02032   0.02584
 Alpha virt. eigenvalues --    0.03490   0.03911   0.04033   0.04631   0.04742
 Alpha virt. eigenvalues --    0.05261   0.05723   0.06340   0.06634   0.06891
 Alpha virt. eigenvalues --    0.07253   0.07679   0.08531   0.08887   0.09212
 Alpha virt. eigenvalues --    0.09391   0.09748   0.10251   0.10508   0.10684
 Alpha virt. eigenvalues --    0.12424   0.12789   0.13099   0.13638   0.13954
 Alpha virt. eigenvalues --    0.14334   0.14792   0.15433   0.16098   0.17173
 Alpha virt. eigenvalues --    0.17464   0.18091   0.18283   0.18785   0.19488
 Alpha virt. eigenvalues --    0.21860   0.22734   0.23890   0.24355   0.25707
 Alpha virt. eigenvalues --    0.26438   0.26995   0.28044   0.28938   0.30045
 Alpha virt. eigenvalues --    0.31016   0.32507   0.38150   0.38748   0.38965
 Alpha virt. eigenvalues --    0.39479   0.40546   0.41335   0.41434   0.41525
 Alpha virt. eigenvalues --    0.42286   0.42582   0.43612   0.44235   0.44684
 Alpha virt. eigenvalues --    0.45073   0.45921   0.46431   0.46624   0.47988
 Alpha virt. eigenvalues --    0.48307   0.48873   0.49707   0.49967   0.50250
 Alpha virt. eigenvalues --    0.50568   0.51056   0.51373   0.51693   0.51996
 Alpha virt. eigenvalues --    0.52500   0.53123   0.53521   0.53761   0.54319
 Alpha virt. eigenvalues --    0.54609   0.55389   0.55723   0.56005   0.56329
 Alpha virt. eigenvalues --    0.57112   0.57435   0.57964   0.58601   0.58797
 Alpha virt. eigenvalues --    0.59512   0.59745   0.60584   0.61934   0.62694
 Alpha virt. eigenvalues --    0.64367   0.65043   0.65744   0.66133   0.67045
 Alpha virt. eigenvalues --    0.67221   0.67542   0.67893   0.68199   0.68689
 Alpha virt. eigenvalues --    0.68722   0.70526   0.71133   0.71477   0.71970
 Alpha virt. eigenvalues --    0.72350   0.72920   0.73346   0.73967   0.74658
 Alpha virt. eigenvalues --    0.74794   0.74985   0.75228   0.75666   0.76486
 Alpha virt. eigenvalues --    0.77414   0.77559   0.77945   0.78398   0.78737
 Alpha virt. eigenvalues --    0.79044   0.79176   0.79736   0.80385   0.81200
 Alpha virt. eigenvalues --    0.81580   0.81995   0.82531   0.83059   0.83471
 Alpha virt. eigenvalues --    0.83959   0.84433   0.84946   0.85328   0.86062
 Alpha virt. eigenvalues --    0.86491   0.87505   0.87969   0.88164   0.88611
 Alpha virt. eigenvalues --    0.88666   0.89298   0.90190   0.90540   0.91103
 Alpha virt. eigenvalues --    0.91566   0.93311   0.94461   0.95054   0.95210
 Alpha virt. eigenvalues --    0.96804   0.97312   0.97723   0.97968   0.98801
 Alpha virt. eigenvalues --    0.99339   1.00475   1.01809   1.03070   1.04302
 Alpha virt. eigenvalues --    1.04944   1.07117   1.07749   1.07944   1.09430
 Alpha virt. eigenvalues --    1.11472   1.12206   1.12473   1.13828   1.13953
 Alpha virt. eigenvalues --    1.15822   1.17175   1.17427   1.18912   1.20179
 Alpha virt. eigenvalues --    1.20890   1.22487   1.23508   1.23886   1.24459
 Alpha virt. eigenvalues --    1.25292   1.26807   1.28877   1.29410   1.30211
 Alpha virt. eigenvalues --    1.31250   1.32754   1.33817   1.34390   1.34984
 Alpha virt. eigenvalues --    1.35823   1.36632   1.37447   1.38207   1.39333
 Alpha virt. eigenvalues --    1.41048   1.42817   1.43178   1.43504   1.44284
 Alpha virt. eigenvalues --    1.45222   1.47667   1.49246   1.50331   1.51572
 Alpha virt. eigenvalues --    1.52751   1.54118   1.55231   1.56519   1.57987
 Alpha virt. eigenvalues --    1.58515   1.59316   1.60715   1.61594   1.62294
 Alpha virt. eigenvalues --    1.63060   1.63718   1.64057   1.64304   1.64778
 Alpha virt. eigenvalues --    1.65828   1.66206   1.66711   1.67268   1.68333
 Alpha virt. eigenvalues --    1.68979   1.70798   1.71136   1.71318   1.72089
 Alpha virt. eigenvalues --    1.73172   1.73742   1.73755   1.74402   1.75188
 Alpha virt. eigenvalues --    1.75202   1.75628   1.76921   1.77740   1.78412
 Alpha virt. eigenvalues --    1.78483   1.79698   1.80143   1.80712   1.81762
 Alpha virt. eigenvalues --    1.81832   1.83157   1.84171   1.84585   1.84773
 Alpha virt. eigenvalues --    1.85147   1.85376   1.87155   1.87670   1.87848
 Alpha virt. eigenvalues --    1.88449   1.88998   1.89659   1.90229   1.91036
 Alpha virt. eigenvalues --    1.91203   1.91813   1.92708   1.94169   1.94719
 Alpha virt. eigenvalues --    1.96371   1.96801   1.97958   1.98480   1.99508
 Alpha virt. eigenvalues --    2.00334   2.01890   2.02412   2.03690   2.04359
 Alpha virt. eigenvalues --    2.05648   2.06503   2.07102   2.07715   2.08816
 Alpha virt. eigenvalues --    2.10398   2.13971   2.14255   2.15869   2.18197
 Alpha virt. eigenvalues --    2.18500   2.19441   2.20988   2.21987   2.22418
 Alpha virt. eigenvalues --    2.23171   2.23764   2.24120   2.25323   2.25606
 Alpha virt. eigenvalues --    2.27058   2.28788   2.29118   2.29926   2.30934
 Alpha virt. eigenvalues --    2.31544   2.32450   2.33351   2.33797   2.34767
 Alpha virt. eigenvalues --    2.36544   2.37010   2.39139   2.39457   2.40437
 Alpha virt. eigenvalues --    2.41556   2.42435   2.43259   2.45344   2.46295
 Alpha virt. eigenvalues --    2.46944   2.49750   2.50273   2.51956   2.52222
 Alpha virt. eigenvalues --    2.53517   2.54246   2.54992   2.56529   2.57295
 Alpha virt. eigenvalues --    2.57888   2.58248   2.60278   2.61266   2.62938
 Alpha virt. eigenvalues --    2.64147   2.66731   2.67349   2.69264   2.71005
 Alpha virt. eigenvalues --    2.71572   2.75276   2.76956   2.79166   2.81318
 Alpha virt. eigenvalues --    2.82953   2.83599   2.85631   2.88380   2.89066
 Alpha virt. eigenvalues --    2.89323   2.89978   2.93732   2.98705   3.02254
 Alpha virt. eigenvalues --    3.03373   3.04236   3.09437   3.33083   3.70962
 Alpha virt. eigenvalues --    3.73087   3.78534   3.86371   3.89968   3.91975
 Alpha virt. eigenvalues --    3.96895   3.97531   4.03235   4.03507   4.04333
 Alpha virt. eigenvalues --    4.08251   4.10342   4.10784   4.15964   4.16244
 Alpha virt. eigenvalues --    4.22301   4.23165   4.23757   4.24169   4.29621
 Alpha virt. eigenvalues --    4.30493   4.33387   4.35213   4.42220   4.44748
 Alpha virt. eigenvalues --    4.47452   4.50966   4.56049   4.58583   4.66831
          Condensed to atoms (all electrons):
 Mulliken charges:
               1
     1  N   -0.746448
     2  H    0.441631
     3  H    0.391744
     4  H    0.402609
     5  C   -0.130416
     6  H    0.249913
     7  C    0.595912
     8  C   -0.307493
     9  H    0.166566
    10  H    0.185943
    11  O   -0.499267
    12  C   -0.368199
    13  H    0.199631
    14  H    0.202060
    15  C    0.626319
    16  O   -0.593496
    17  O   -0.612961
    18  N   -0.559214
    19  H    0.345957
    20  C   -0.100068
    21  H    0.195450
    22  C    0.624638
    23  C   -0.359012
    24  H    0.182414
    25  H    0.189659
    26  O   -0.560675
    27  C    0.126010
    28  C   -0.186946
    29  H    0.137635
    30  C   -0.213577
    31  H    0.139242
    32  C   -0.152207
    33  H    0.162218
    34  C   -0.184240
    35  H    0.135385
    36  O   -0.628184
    37  H    0.416157
    38  C    0.354608
    39  N   -0.634314
    40  H    0.385149
    41  C   -0.039010
    42  H    0.212821
    43  C    0.591308
    44  C   -0.275278
    45  H    0.151068
    46  H    0.160198
    47  O   -0.448161
    48  C   -0.279401
    49  H    0.191769
    50  H    0.121514
    51  C   -0.304379
    52  H    0.184390
    53  H    0.188214
    54  C   -0.178266
    55  H    0.189305
    56  H    0.203325
    57  N   -0.776010
    58  H    0.383793
    59  H    0.377503
    60  H    0.464677
    61  O   -0.570006
    62  H    0.430497
 Sum of Mulliken charges =   1.00000
 Mulliken charges with hydrogens summed into heavy atoms:
               1
     1  N    0.489535
     5  C    0.119497
     7  C    0.595912
     8  C    0.045016
    11  O   -0.499267
    12  C    0.033492
    15  C    0.626319
    16  O   -0.593496
    17  O   -0.612961
    18  N   -0.213258
    20  C    0.095382
    22  C    0.624638
    23  C    0.013061
    26  O   -0.560675
    27  C    0.126010
    28  C   -0.049311
    30  C   -0.074336
    32  C    0.010011
    34  C   -0.048855
    36  O   -0.212027
    38  C    0.354608
    39  N   -0.249165
    41  C    0.173811
    43  C    0.591308
    44  C    0.035988
    47  O   -0.448161
    48  C    0.033882
    51  C    0.068225
    54  C    0.214364
    57  N    0.449963
    61  O   -0.139509
 Electronic spatial extent (au):  <R**2>=          17452.7252
 Charge=              1.0000 electrons
 Dipole moment (field-independent basis, Debye):
    X=             10.1684    Y=             -4.8425    Z=             -0.3676  Tot=             11.2687
 Quadrupole moment (field-independent basis, Debye-Ang):
   XX=           -114.0384   YY=           -151.0996   ZZ=           -122.7549
   XY=             -9.4339   XZ=              6.5652   YZ=            -26.4806
 Traceless Quadrupole moment (field-independent basis, Debye-Ang):
   XX=             15.2593   YY=            -21.8020   ZZ=              6.5427
   XY=             -9.4339   XZ=              6.5652   YZ=            -26.4806
 Octapole moment (field-independent basis, Debye-Ang**2):
  XXX=           -251.8855  YYY=           -248.0693  ZZZ=            207.9055  XYY=           -198.9403
  XXY=           -104.3456  XXZ=            333.1414  XZZ=           -108.9235  YZZ=             37.7540
  YYZ=            196.1972  XYZ=            -21.7869
 Hexadecapole moment (field-independent basis, Debye-Ang**3):
 XXXX=          -5462.8250 YYYY=          -3407.8747 ZZZZ=          -7667.1919 XXXY=           -485.4405
 XXXZ=             92.5770 YYYX=            -12.1222 YYYZ=           2157.4022 ZZZX=          -1403.6960
 ZZZY=           1365.3685 XXYY=          -1893.4867 XXZZ=          -2675.0668 YYZZ=          -2137.4669
 XXYZ=            693.5418 YYXZ=           -430.8446 ZZXY=            189.9488
 N-N= 3.360700264634D+03 E-N=-1.025600888902D+04  KE= 1.512134221225D+03
 Unable to Open any file for archive entry.
 1\1\GINC-SKL-157\SP\RB3LYP\6-31G(d)\C20H31N4O7(1+)\KENGMITH\24-May-202
 2\0\\# B3LYP/6-31G* guess=read geom=check nosymm integral(ultrafinegri
 d)\\Candidate Structure: Conf:948 Charge calc in gas phase\\1,1\N,0,0.
 5938685936,-3.4579566148,1.1331880948\H,0,1.4729947789,-3.4096368001,1
 .7587986686\H,0,-0.0915423265,-4.1243147574,1.4991613702\H,0,0.7672347
 432,-3.6978246653,0.1477287278\C,0,0.1028259103,-2.0446439437,1.201550
 2078\H,0,0.9945172594,-1.439533233,1.0064300068\C,0,-0.706642103,-1.74
 31527277,-0.0680419679\C,0,-0.3517903278,-1.738736066,2.64108268\H,0,-
 0.6872976799,-2.6697718246,3.1157442834\H,0,-1.2325999568,-1.088266629
 ,2.6387618542\O,0,-0.5796014504,-2.5062470787,-1.0197197962\C,0,0.7601
 461009,-1.0596176943,3.4744426942\H,0,0.5480732806,-1.1750312807,4.543
 7808867\H,0,0.7515897744,0.0172605334,3.2811492967\C,0,2.2144263957,-1
 .5064556043,3.2298619107\O,0,3.0827224336,-0.6845176556,3.6585550847\O
 ,0,2.5098116028,-2.5759502277,2.6210518793\N,0,-1.3211787646,-0.517894
 3484,-0.1144238607\H,0,-1.2347081111,-0.0225630953,0.7669018907\C,0,-0
 .9563123289,0.4172065618,-1.2136256558\H,0,-1.5321727318,1.3271496692,
 -1.0113867706\C,0,0.53725141,0.7801924654,-0.9477469924\C,0,-1.3451158
 316,-0.0980895661,-2.6133926595\H,0,-0.7215482868,-0.9539259896,-2.880
 4008367\H,0,-2.3670403598,-0.4866169997,-2.5232111316\O,0,0.9492883068
 ,0.739687167,0.2211871911\C,0,-1.2844138272,0.9558598046,-3.7050881822
 \C,0,-2.0210201464,2.1508741156,-3.6218797006\H,0,-2.6426493978,2.3470
 519012,-2.7507631216\C,0,-0.530578966,0.7362950748,-4.8652604955\H,0,0
 .0292829718,-0.1902361712,-4.9748994274\C,0,-1.9997876369,3.0905344355
 ,-4.6440872415\H,0,-2.5762404893,4.0075919463,-4.5787039706\C,0,-0.500
 3069816,1.6695627458,-5.9036129029\H,0,0.0857693117,1.4690444155,-6.79
 82156362\O,0,-1.2579402677,3.8097881903,-6.7631984993\H,0,-0.748020849
 3,3.5110244549,-7.5326577688\C,0,-1.2365390065,2.8527433687,-5.7961432
 364\N,0,1.3579240014,1.1000805814,-1.9679865693\H,0,1.0075998899,1.204
 6782916,-2.9147974179\C,0,2.7660873336,1.3685209948,-1.6672901397\H,0,
 2.7881126841,1.9785426525,-0.7599229029\C,0,3.4636466238,2.1769977489,
 -2.7468572333\C,0,3.5411868595,0.0447218326,-1.3929894956\H,0,2.840018
 332,-0.6153190454,-0.8740025253\H,0,3.7822453209,-0.4355875185,-2.3489
 703893\O,0,4.5879772175,2.604715359,-2.6217214686\C,0,4.8137539592,0.1
 715359258,-0.538222358\H,0,5.5825718914,0.7282132236,-1.083669919\H,0,
 5.2075249138,-0.8489679632,-0.4123527709\C,0,4.5812365403,0.8338382649
 ,0.8377161254\H,0,4.628435999,1.9227974474,0.7260853011\H,0,3.57696090
 71,0.6131351479,1.2199210809\C,0,5.6100518503,0.449543121,1.9051083915
 \H,0,6.6277283625,0.448354382,1.501327388\H,0,5.5752556403,1.146394797
 4,2.7461559699\N,0,5.3178414987,-0.9055600373,2.4896554602\H,0,6.06383
 20068,-1.2071505331,3.1209019111\H,0,5.225070558,-1.6228169403,1.76623
 86375\H,0,4.3084976136,-0.8865844927,3.0794908712\O,0,2.7191117973,2.3
 393424124,-3.8613730282\H,0,3.2511024031,2.8648101604,-4.4899497424\\V
 ersion=ES64L-G16RevC.01\HF=-1526.216141\RMSD=9.363e-09\Dipole=1.638343
 ,-2.380478,1.6482763\Quadrupole=11.3448804,-16.2092409,4.8643605,-7.01
 38415,4.8810562,-19.6876986\PG=C01 [X(C20H31N4O7)]\\@
 The archive entry for this job was punched.


 HE THAT FOLLOWS NATURE IS NEVER LOST.

                             -- BACON
 Job cpu time:       0 days  0 hours  1 minutes  7.7 seconds.
 Elapsed time:       0 days  0 hours  0 minutes 17.4 seconds.
 File lengths (MBytes):  RWF=    264 Int=      0 D2E=      0 Chk=     40 Scr=     16
 Normal termination of Gaussian 16 at Tue May 24 03:12:49 2022.
