 Entering Gaussian System, Link 0=/opt/software/Gaussian/g16-AVX2-C.01/g16/g16
 Input=charge-conf-879.com
 Output=charge-conf-879.log
 Initial command:
 /opt/software/Gaussian/g16-AVX2-C.01/g16/l1.exe "/mnt/gs18/scratch/users/kengmith/Gau-39166.inp" -scrdir="/mnt/gs18/scratch/users/kengmith/"
 Entering Link 1 = /opt/software/Gaussian/g16-AVX2-C.01/g16/l1.exe PID=     39176.
  
 Copyright (c) 1988-2019, Gaussian, Inc.  All Rights Reserved.
  
 This is part of the Gaussian(R) 16 program.  It is based on
 the Gaussian(R) 09 system (copyright 2009, Gaussian, Inc.),
 the Gaussian(R) 03 system (copyright 2003, Gaussian, Inc.),
 the Gaussian(R) 98 system (copyright 1998, Gaussian, Inc.),
 the Gaussian(R) 94 system (copyright 1995, Gaussian, Inc.),
 the Gaussian 92(TM) system (copyright 1992, Gaussian, Inc.),
 the Gaussian 90(TM) system (copyright 1990, Gaussian, Inc.),
 the Gaussian 88(TM) system (copyright 1988, Gaussian, Inc.),
 the Gaussian 86(TM) system (copyright 1986, Carnegie Mellon
 University), and the Gaussian 82(TM) system (copyright 1983,
 Carnegie Mellon University). Gaussian is a federally registered
 trademark of Gaussian, Inc.
  
 This software contains proprietary and confidential information,
 including trade secrets, belonging to Gaussian, Inc.
  
 This software is provided under written license and may be
 used, copied, transmitted, or stored only in accord with that
 written license.
  
 The following legend is applicable only to US Government
 contracts under FAR:
  
                    RESTRICTED RIGHTS LEGEND
  
 Use, reproduction and disclosure by the US Government is
 subject to restrictions as set forth in subparagraphs (a)
 and (c) of the Commercial Computer Software - Restricted
 Rights clause in FAR 52.227-19.
  
 Gaussian, Inc.
 340 Quinnipiac St., Bldg. 40, Wallingford CT 06492
  
  
 ---------------------------------------------------------------
 Warning -- This program may not be used in any manner that
 competes with the business of Gaussian, Inc. or will provide
 assistance to any competitor of Gaussian, Inc.  The licensee
 of this program is prohibited from giving any competitor of
 Gaussian, Inc. access to this program.  By using this program,
 the user acknowledges that Gaussian, Inc. is engaged in the
 business of creating and licensing software in the field of
 computational chemistry and represents and warrants to the
 licensee that it is not a competitor of Gaussian, Inc. and that
 it will not use this program in any manner prohibited above.
 ---------------------------------------------------------------
  

 Cite this work as:
 Gaussian 16, Revision C.01,
 M. J. Frisch, G. W. Trucks, H. B. Schlegel, G. E. Scuseria, 
 M. A. Robb, J. R. Cheeseman, G. Scalmani, V. Barone, 
 G. A. Petersson, H. Nakatsuji, X. Li, M. Caricato, A. V. Marenich, 
 J. Bloino, B. G. Janesko, R. Gomperts, B. Mennucci, H. P. Hratchian, 
 J. V. Ortiz, A. F. Izmaylov, J. L. Sonnenberg, D. Williams-Young, 
 F. Ding, F. Lipparini, F. Egidi, J. Goings, B. Peng, A. Petrone, 
 T. Henderson, D. Ranasinghe, V. G. Zakrzewski, J. Gao, N. Rega, 
 G. Zheng, W. Liang, M. Hada, M. Ehara, K. Toyota, R. Fukuda, 
 J. Hasegawa, M. Ishida, T. Nakajima, Y. Honda, O. Kitao, H. Nakai, 
 T. Vreven, K. Throssell, J. A. Montgomery, Jr., J. E. Peralta, 
 F. Ogliaro, M. J. Bearpark, J. J. Heyd, E. N. Brothers, K. N. Kudin, 
 V. N. Staroverov, T. A. Keith, R. Kobayashi, J. Normand, 
 K. Raghavachari, A. P. Rendell, J. C. Burant, S. S. Iyengar, 
 J. Tomasi, M. Cossi, J. M. Millam, M. Klene, C. Adamo, R. Cammi, 
 J. W. Ochterski, R. L. Martin, K. Morokuma, O. Farkas, 
 J. B. Foresman, and D. J. Fox, Gaussian, Inc., Wallingford CT, 2019.
 
 ******************************************
 Gaussian 16:  ES64L-G16RevC.01  3-Jul-2019
                24-May-2022 
 ******************************************
 %mem=8gb
 %nproc=4
 Will use up to    4 processors via shared memory.
 %chk=conf-879.chk
 -------------------------------------------------------------------
 # B3LYP/6-31G* guess=read geom=check nosymm integral(ultrafinegrid)
 -------------------------------------------------------------------
 1/29=2,38=1,172=1/1;
 2/12=2,15=1,40=1/2;
 3/5=1,6=6,7=1,11=2,14=-4,25=1,30=1,74=-5,75=-5,116=-2/1,2,3;
 4/5=1/1;
 5/5=2,38=6/2;
 6/7=2,8=2,9=2,10=2,28=1/1;
 99/5=1,9=1/99;
 ------------------------------------------------------
 Candidate Structure: Conf:879 Charge calc in gas phase
 ------------------------------------------------------
 Structure from the checkpoint file:  "conf-879.chk"
 Charge =  1 Multiplicity = 1
 Redundant internal coordinates found in file.  (old form).
 N,0,-1.0397160911,-4.007312145,2.2894755409
 H,0,-0.4683098621,-4.4026128745,3.0399001105
 H,0,-2.0063195245,-4.3215111434,2.4128579709
 H,0,-0.7038319785,-4.3192517637,1.3261808892
 C,0,-0.9412021439,-2.4994158216,2.1664128455
 H,0,0.0017298516,-2.2292240462,2.6538925868
 C,0,-0.7122730934,-2.3013363434,0.6306844431
 C,0,-2.1183489593,-1.7458492346,2.8383511884
 H,0,-2.8341410751,-2.4747364038,3.2424417257
 H,0,-2.655945555,-1.1715310942,2.0780403868
 O,0,-0.4232615225,-3.3114024771,-0.0363280622
 C,0,-1.6658211403,-0.7901734231,3.9527705749
 H,0,-1.1380403344,-1.3352386596,4.7437018816
 H,0,-2.5474159061,-0.3461306262,4.4287561384
 C,0,-0.7430578602,0.3593086295,3.4779546807
 O,0,-0.0067879677,0.8612087106,4.3492925759
 O,0,-0.7994019642,0.6951314154,2.247866277
 N,0,-0.8167654114,-1.0391316477,0.2473257516
 H,0,-0.9738693505,-0.3550123211,1.0402528233
 C,0,-0.3409748025,-0.407158153,-0.9889294406
 H,0,-0.9462424467,0.5039561812,-1.0683491968
 C,0,1.1358046135,0.0705278522,-0.7954540182
 C,0,-0.5404549752,-1.2219774978,-2.2783446336
 H,0,0.0826969289,-2.1168238919,-2.2524053746
 H,0,-1.5856050393,-1.5519089866,-2.3100005906
 O,0,2.0580996913,-0.3214251249,-1.5053925238
 C,0,-0.2121680534,-0.3681552097,-3.4886227806
 C,0,-1.0066709813,0.7387468347,-3.8167422457
 H,0,-1.929337776,0.9228494117,-3.2710647372
 C,0,0.9361263346,-0.609433357,-4.2535013119
 H,0,1.5622721246,-1.4623947164,-4.0180544842
 C,0,-0.6311927918,1.6313584907,-4.8229951727
 H,0,-1.2428551951,2.4932731287,-5.072292429
 C,0,1.328365303,0.2701628942,-5.2613411371
 H,0,2.2443102275,0.090756665,-5.8206100813
 O,0,1.0110950256,2.4179387843,-6.3716923057
 H,0,1.4086094504,2.0205075631,-7.1647072789
 C,0,0.5564087952,1.4036209033,-5.5106041041
 N,0,1.2839723944,0.9799976271,0.2016613224
 H,0,0.5413681174,1.0437614524,0.9042854628
 C,0,2.6262132612,1.4003939469,0.6575117285
 H,0,3.2554071002,0.5055703712,0.7241996633
 C,0,2.4023164979,1.9582533852,2.0698380204
 C,0,3.2897895081,2.3835028854,-0.3181103331
 H,0,4.2684343481,2.6569995751,0.0946355299
 H,0,3.4870553472,1.8133108184,-1.2333866168
 O,0,2.410502315,3.1421927028,2.3385970269
 C,0,2.4874737885,3.6623818644,-0.6274606034
 H,0,2.7091923431,4.4258715065,0.1195612423
 H,0,1.4125648377,3.4625656324,-0.5378649033
 C,0,2.7720280178,4.2310964376,-2.0333655795
 H,0,2.3879085313,5.2587898714,-2.0977355132
 H,0,3.8581563256,4.2816858543,-2.2010230091
 C,0,2.1186384798,3.3869834465,-3.1229568926
 H,0,2.4622683308,2.350326944,-3.129890467
 H,0,1.0300142151,3.3793678124,-3.0396365597
 N,0,2.4236926731,3.9425559704,-4.5119492632
 H,0,1.9554243172,3.3941490198,-5.2774681579
 H,0,3.434606576,3.9425492588,-4.6836985014
 H,0,2.1100801316,4.9163166541,-4.5859372217
 O,0,2.1090287412,0.9593093133,2.8963118325
 H,0,1.421589187,1.2228088878,3.5994636403
 Recover connectivity data from disk.
                           ----------------------------
                           !    Current Parameters    !
                           ! (Angstroms and Degrees)  !
 --------------------------                            --------------------------
 ! Name  Definition              Value                                          !
 --------------------------------------------------------------------------------
 ! R1    R(1,2)                  1.0227                                         !
 ! R2    R(1,3)                  1.0238                                         !
 ! R3    R(1,4)                  1.0668                                         !
 ! R4    R(1,5)                  1.5161                                         !
 ! R5    R(5,6)                  1.0953                                         !
 ! R6    R(5,7)                  1.5653                                         !
 ! R7    R(5,8)                  1.5508                                         !
 ! R8    R(7,11)                 1.2445                                         !
 ! R9    R(7,18)                 1.3233                                         !
 ! R10   R(8,9)                  1.0986                                         !
 ! R11   R(8,10)                 1.094                                          !
 ! R12   R(8,12)                 1.5362                                         !
 ! R13   R(12,13)                1.096                                          !
 ! R14   R(12,14)                1.0959                                         !
 ! R15   R(12,15)                1.5486                                         !
 ! R16   R(15,16)                1.2463                                         !
 ! R17   R(15,17)                1.2763                                         !
 ! R18   R(18,19)                1.059                                          !
 ! R19   R(18,20)                1.4677                                         !
 ! R20   R(20,21)                1.0967                                         !
 ! R21   R(20,22)                1.5641                                         !
 ! R22   R(20,23)                1.5383                                         !
 ! R23   R(22,26)                1.2281                                         !
 ! R24   R(22,39)                1.3577                                         !
 ! R25   R(23,24)                1.0908                                         !
 ! R26   R(23,25)                1.0964                                         !
 ! R27   R(23,27)                1.5171                                         !
 ! R28   R(27,28)                1.4015                                         !
 ! R29   R(27,30)                1.4007                                         !
 ! R30   R(28,29)                1.0876                                         !
 ! R31   R(28,32)                1.3965                                         !
 ! R32   R(30,31)                1.084                                          !
 ! R33   R(30,34)                1.394                                          !
 ! R34   R(32,33)                1.0859                                         !
 ! R35   R(32,38)                1.3911                                         !
 ! R36   R(34,35)                1.0881                                         !
 ! R37   R(34,38)                1.3938                                         !
 ! R38   R(36,37)                0.972                                          !
 ! R39   R(36,38)                1.4061                                         !
 ! R40   R(39,40)                1.0243                                         !
 ! R41   R(39,41)                1.4786                                         !
 ! R42   R(41,42)                1.0959                                         !
 ! R43   R(41,43)                1.5349                                         !
 ! R44   R(41,44)                1.5358                                         !
 ! R45   R(43,47)                1.2141                                         !
 ! R46   R(43,61)                1.3293                                         !
 ! R47   R(44,45)                1.0968                                         !
 ! R48   R(44,46)                1.0962                                         !
 ! R49   R(44,48)                1.5411                                         !
 ! R50   R(48,49)                1.0909                                         !
 ! R51   R(48,50)                1.097                                          !
 ! R52   R(48,51)                1.543                                          !
 ! R53   R(51,52)                1.099                                          !
 ! R54   R(51,53)                1.1002                                         !
 ! R55   R(51,54)                1.5253                                         !
 ! R56   R(54,55)                1.0921                                         !
 ! R57   R(54,56)                1.0918                                         !
 ! R58   R(54,57)                1.5268                                         !
 ! R59   R(57,58)                1.0517                                         !
 ! R60   R(57,59)                1.0254                                         !
 ! R61   R(57,60)                1.0257                                         !
 ! R62   R(61,62)                1.0181                                         !
 ! A1    A(2,1,3)              108.6897                                         !
 ! A2    A(2,1,4)              111.9402                                         !
 ! A3    A(2,1,5)              114.0597                                         !
 ! A4    A(3,1,4)              108.4412                                         !
 ! A5    A(3,1,5)              112.1074                                         !
 ! A6    A(4,1,5)              101.3656                                         !
 ! A7    A(1,5,6)              105.3759                                         !
 ! A8    A(1,5,7)              102.4155                                         !
 ! A9    A(1,5,8)              113.5026                                         !
 ! A10   A(6,5,7)              106.232                                          !
 ! A11   A(6,5,8)              109.922                                          !
 ! A12   A(7,5,8)              118.3348                                         !
 ! A13   A(5,7,11)             117.2016                                         !
 ! A14   A(5,7,18)             113.1658                                         !
 ! A15   A(11,7,18)            129.5877                                         !
 ! A16   A(5,8,9)              109.3621                                         !
 ! A17   A(5,8,10)             109.0842                                         !
 ! A18   A(5,8,12)             113.1413                                         !
 ! A19   A(9,8,10)             106.484                                          !
 ! A20   A(9,8,12)             109.7451                                         !
 ! A21   A(10,8,12)            108.8031                                         !
 ! A22   A(8,12,13)            110.8531                                         !
 ! A23   A(8,12,14)            109.2795                                         !
 ! A24   A(8,12,15)            114.5101                                         !
 ! A25   A(13,12,14)           105.9894                                         !
 ! A26   A(13,12,15)           107.6659                                         !
 ! A27   A(14,12,15)           108.1653                                         !
 ! A28   A(12,15,16)           115.8855                                         !
 ! A29   A(12,15,17)           117.6768                                         !
 ! A30   A(16,15,17)           126.4362                                         !
 ! A31   A(7,18,19)            114.2676                                         !
 ! A32   A(7,18,20)            128.9872                                         !
 ! A33   A(19,18,20)           113.617                                          !
 ! A34   A(18,20,21)           103.8752                                         !
 ! A35   A(18,20,22)           109.4745                                         !
 ! A36   A(18,20,23)           115.8441                                         !
 ! A37   A(21,20,22)           106.0402                                         !
 ! A38   A(21,20,23)           107.9257                                         !
 ! A39   A(22,20,23)           112.8232                                         !
 ! A40   A(20,22,26)           122.6885                                         !
 ! A41   A(20,22,39)           113.4819                                         !
 ! A42   A(26,22,39)           123.8056                                         !
 ! A43   A(20,23,24)           109.9097                                         !
 ! A44   A(20,23,25)           107.8906                                         !
 ! A45   A(20,23,27)           110.0308                                         !
 ! A46   A(24,23,25)           107.3614                                         !
 ! A47   A(24,23,27)           110.9201                                         !
 ! A48   A(25,23,27)           110.6458                                         !
 ! A49   A(23,27,28)           120.5714                                         !
 ! A50   A(23,27,30)           121.0712                                         !
 ! A51   A(28,27,30)           118.227                                          !
 ! A52   A(27,28,29)           119.8111                                         !
 ! A53   A(27,28,32)           121.4058                                         !
 ! A54   A(29,28,32)           118.7764                                         !
 ! A55   A(27,30,31)           119.3729                                         !
 ! A56   A(27,30,34)           121.1173                                         !
 ! A57   A(31,30,34)           119.4065                                         !
 ! A58   A(28,32,33)           121.4195                                         !
 ! A59   A(28,32,38)           118.755                                          !
 ! A60   A(33,32,38)           119.8251                                         !
 ! A61   A(30,34,35)           120.2933                                         !
 ! A62   A(30,34,38)           119.1151                                         !
 ! A63   A(35,34,38)           120.556                                          !
 ! A64   A(37,36,38)           109.689                                          !
 ! A65   A(32,38,34)           121.1689                                         !
 ! A66   A(32,38,36)           117.4314                                         !
 ! A67   A(34,38,36)           121.1343                                         !
 ! A68   A(22,39,40)           117.798                                          !
 ! A69   A(22,39,41)           121.0615                                         !
 ! A70   A(40,39,41)           115.4014                                         !
 ! A71   A(39,41,42)           107.9265                                         !
 ! A72   A(39,41,43)           104.7498                                         !
 ! A73   A(39,41,44)           112.234                                          !
 ! A74   A(42,41,43)           108.9358                                         !
 ! A75   A(42,41,44)           108.2559                                         !
 ! A76   A(43,41,44)           114.5123                                         !
 ! A77   A(41,43,47)           123.8569                                         !
 ! A78   A(41,43,61)           109.3383                                         !
 ! A79   A(47,43,61)           126.6331                                         !
 ! A80   A(41,44,45)           107.8243                                         !
 ! A81   A(41,44,46)           105.9729                                         !
 ! A82   A(41,44,48)           115.7083                                         !
 ! A83   A(45,44,46)           106.4596                                         !
 ! A84   A(45,44,48)           109.4601                                         !
 ! A85   A(46,44,48)           110.9602                                         !
 ! A86   A(44,48,49)           109.7255                                         !
 ! A87   A(44,48,50)           110.0345                                         !
 ! A88   A(44,48,51)           113.1255                                         !
 ! A89   A(49,48,50)           105.7059                                         !
 ! A90   A(49,48,51)           109.1765                                         !
 ! A91   A(50,48,51)           108.799                                          !
 ! A92   A(48,51,52)           109.4849                                         !
 ! A93   A(48,51,53)           109.7465                                         !
 ! A94   A(48,51,54)           111.5853                                         !
 ! A95   A(52,51,53)           107.0454                                         !
 ! A96   A(52,51,54)           109.0216                                         !
 ! A97   A(53,51,54)           109.8454                                         !
 ! A98   A(51,54,55)           113.2681                                         !
 ! A99   A(51,54,56)           112.1137                                         !
 ! A100  A(51,54,57)           111.2788                                         !
 ! A101  A(55,54,56)           107.9132                                         !
 ! A102  A(55,54,57)           106.0668                                         !
 ! A103  A(56,54,57)           105.7345                                         !
 ! A104  A(54,57,58)           112.5504                                         !
 ! A105  A(54,57,59)           110.4481                                         !
 ! A106  A(54,57,60)           110.4873                                         !
 ! A107  A(58,57,59)           108.4841                                         !
 ! A108  A(58,57,60)           107.8429                                         !
 ! A109  A(59,57,60)           106.8198                                         !
 ! A110  A(43,61,62)           112.5761                                         !
 ! D1    D(2,1,5,6)             21.2988                                         !
 ! D2    D(2,1,5,7)            132.2385                                         !
 ! D3    D(2,1,5,8)            -99.0288                                         !
 ! D4    D(3,1,5,6)            145.3644                                         !
 ! D5    D(3,1,5,7)           -103.6958                                         !
 ! D6    D(3,1,5,8)             25.0368                                         !
 ! D7    D(4,1,5,6)            -99.1734                                         !
 ! D8    D(4,1,5,7)             11.7663                                         !
 ! D9    D(4,1,5,8)            140.499                                          !
 ! D10   D(1,5,7,11)           -12.8234                                         !
 ! D11   D(1,5,7,18)           169.379                                          !
 ! D12   D(6,5,7,11)            97.4722                                         !
 ! D13   D(6,5,7,18)           -80.3254                                         !
 ! D14   D(8,5,7,11)          -138.4595                                         !
 ! D15   D(8,5,7,18)            43.743                                          !
 ! D16   D(1,5,8,9)             -2.6084                                         !
 ! D17   D(1,5,8,10)          -118.7013                                         !
 ! D18   D(1,5,8,12)           120.0488                                         !
 ! D19   D(6,5,8,9)           -120.3283                                         !
 ! D20   D(6,5,8,10)           123.5788                                         !
 ! D21   D(6,5,8,12)             2.329                                          !
 ! D22   D(7,5,8,9)            117.4482                                         !
 ! D23   D(7,5,8,10)             1.3553                                         !
 ! D24   D(7,5,8,12)          -119.8946                                         !
 ! D25   D(5,7,18,19)            3.8286                                         !
 ! D26   D(5,7,18,20)          162.3077                                         !
 ! D27   D(11,7,18,19)        -173.6294                                         !
 ! D28   D(11,7,18,20)         -15.1503                                         !
 ! D29   D(5,8,12,13)          -59.634                                          !
 ! D30   D(5,8,12,14)         -176.091                                          !
 ! D31   D(5,8,12,15)           62.4104                                         !
 ! D32   D(9,8,12,13)           62.8101                                         !
 ! D33   D(9,8,12,14)          -53.6468                                         !
 ! D34   D(9,8,12,15)         -175.1454                                         !
 ! D35   D(10,8,12,13)         178.9576                                         !
 ! D36   D(10,8,12,14)          62.5007                                         !
 ! D37   D(10,8,12,15)         -58.9979                                         !
 ! D38   D(8,12,15,16)        -156.4838                                         !
 ! D39   D(8,12,15,17)          23.105                                          !
 ! D40   D(13,12,15,16)        -32.7179                                         !
 ! D41   D(13,12,15,17)        146.8708                                         !
 ! D42   D(14,12,15,16)         81.4087                                         !
 ! D43   D(14,12,15,17)        -99.0025                                         !
 ! D44   D(7,18,20,21)         159.3479                                         !
 ! D45   D(7,18,20,22)         -87.7451                                         !
 ! D46   D(7,18,20,23)          41.1892                                         !
 ! D47   D(19,18,20,21)        -42.0595                                         !
 ! D48   D(19,18,20,22)         70.8476                                         !
 ! D49   D(19,18,20,23)       -160.2181                                         !
 ! D50   D(18,20,22,26)        121.3569                                         !
 ! D51   D(18,20,22,39)        -60.3604                                         !
 ! D52   D(21,20,22,26)       -127.1536                                         !
 ! D53   D(21,20,22,39)         51.1291                                         !
 ! D54   D(23,20,22,26)         -9.22                                           !
 ! D55   D(23,20,22,39)        169.0627                                         !
 ! D56   D(18,20,23,24)        -66.5655                                         !
 ! D57   D(18,20,23,25)         50.2046                                         !
 ! D58   D(18,20,23,27)        171.0051                                         !
 ! D59   D(21,20,23,24)        177.5385                                         !
 ! D60   D(21,20,23,25)        -65.6915                                         !
 ! D61   D(21,20,23,27)         55.109                                          !
 ! D62   D(22,20,23,24)         60.7169                                         !
 ! D63   D(22,20,23,25)        177.487                                          !
 ! D64   D(22,20,23,27)        -61.7125                                         !
 ! D65   D(20,22,39,40)         19.1467                                         !
 ! D66   D(20,22,39,41)        171.2299                                         !
 ! D67   D(26,22,39,40)       -162.5926                                         !
 ! D68   D(26,22,39,41)        -10.5094                                         !
 ! D69   D(20,23,27,28)        -66.4803                                         !
 ! D70   D(20,23,27,30)        109.2943                                         !
 ! D71   D(24,23,27,28)        171.6891                                         !
 ! D72   D(24,23,27,30)        -12.5364                                         !
 ! D73   D(25,23,27,28)         52.6495                                         !
 ! D74   D(25,23,27,30)       -131.576                                          !
 ! D75   D(23,27,28,29)         -7.0573                                         !
 ! D76   D(23,27,28,32)        171.9908                                         !
 ! D77   D(30,27,28,29)        177.0502                                         !
 ! D78   D(30,27,28,32)         -3.9017                                         !
 ! D79   D(23,27,30,31)          4.3357                                         !
 ! D80   D(23,27,30,34)       -171.9467                                         !
 ! D81   D(28,27,30,31)       -179.7933                                         !
 ! D82   D(28,27,30,34)          3.9244                                         !
 ! D83   D(27,28,32,33)       -179.5293                                         !
 ! D84   D(27,28,32,38)          0.2419                                         !
 ! D85   D(29,28,32,33)         -0.4716                                         !
 ! D86   D(29,28,32,38)        179.2995                                         !
 ! D87   D(27,30,34,35)        177.542                                          !
 ! D88   D(27,30,34,38)         -0.3023                                         !
 ! D89   D(31,30,34,35)          1.2609                                         !
 ! D90   D(31,30,34,38)       -176.5834                                         !
 ! D91   D(28,32,38,34)          3.5458                                         !
 ! D92   D(28,32,38,36)       -170.6015                                         !
 ! D93   D(33,32,38,34)       -176.6793                                         !
 ! D94   D(33,32,38,36)          9.1734                                         !
 ! D95   D(30,34,38,32)         -3.5249                                         !
 ! D96   D(30,34,38,36)        170.4055                                         !
 ! D97   D(35,34,38,32)        178.6366                                         !
 ! D98   D(35,34,38,36)         -7.433                                          !
 ! D99   D(37,36,38,32)       -142.6296                                         !
 ! D100  D(37,36,38,34)         43.221                                          !
 ! D101  D(22,39,41,42)        -42.7584                                         !
 ! D102  D(22,39,41,43)       -158.7257                                         !
 ! D103  D(22,39,41,44)         76.4465                                         !
 ! D104  D(40,39,41,42)        109.9524                                         !
 ! D105  D(40,39,41,43)         -6.015                                          !
 ! D106  D(40,39,41,44)       -130.8427                                         !
 ! D107  D(39,41,43,47)       -105.1438                                         !
 ! D108  D(39,41,43,61)         70.3672                                         !
 ! D109  D(42,41,43,47)        139.5904                                         !
 ! D110  D(42,41,43,61)        -44.8986                                         !
 ! D111  D(44,41,43,47)         18.2296                                         !
 ! D112  D(44,41,43,61)       -166.2594                                         !
 ! D113  D(39,41,44,45)        179.2059                                         !
 ! D114  D(39,41,44,46)        -67.1151                                         !
 ! D115  D(39,41,44,48)         56.3046                                         !
 ! D116  D(42,41,44,45)        -61.7824                                         !
 ! D117  D(42,41,44,46)         51.8966                                         !
 ! D118  D(42,41,44,48)        175.3163                                         !
 ! D119  D(43,41,44,45)         59.9511                                         !
 ! D120  D(43,41,44,46)        173.6301                                         !
 ! D121  D(43,41,44,48)        -62.9502                                         !
 ! D122  D(41,43,61,62)       -143.5635                                         !
 ! D123  D(47,43,61,62)         31.7908                                         !
 ! D124  D(41,44,48,49)         86.9184                                         !
 ! D125  D(41,44,48,50)        -28.9844                                         !
 ! D126  D(41,44,48,51)       -150.9024                                         !
 ! D127  D(45,44,48,49)        -35.1156                                         !
 ! D128  D(45,44,48,50)       -151.0183                                         !
 ! D129  D(45,44,48,51)         87.0637                                         !
 ! D130  D(46,44,48,49)       -152.319                                          !
 ! D131  D(46,44,48,50)         91.7782                                         !
 ! D132  D(46,44,48,51)        -30.1397                                         !
 ! D133  D(44,48,51,52)       -165.3297                                         !
 ! D134  D(44,48,51,53)        -48.1119                                         !
 ! D135  D(44,48,51,54)         73.8878                                         !
 ! D136  D(49,48,51,52)        -42.8441                                         !
 ! D137  D(49,48,51,53)         74.3736                                         !
 ! D138  D(49,48,51,54)       -163.6267                                         !
 ! D139  D(50,48,51,52)         72.0625                                         !
 ! D140  D(50,48,51,53)       -170.7198                                         !
 ! D141  D(50,48,51,54)        -48.7201                                         !
 ! D142  D(48,51,54,55)        -59.671                                          !
 ! D143  D(48,51,54,56)         62.7489                                         !
 ! D144  D(48,51,54,57)       -179.0623                                         !
 ! D145  D(52,51,54,55)        179.2762                                         !
 ! D146  D(52,51,54,56)        -58.3039                                         !
 ! D147  D(52,51,54,57)         59.8849                                         !
 ! D148  D(53,51,54,55)         62.2716                                         !
 ! D149  D(53,51,54,56)       -175.3085                                         !
 ! D150  D(53,51,54,57)        -57.1197                                         !
 ! D151  D(51,54,57,58)       -178.0495                                         !
 ! D152  D(51,54,57,59)         60.5376                                         !
 ! D153  D(51,54,57,60)        -57.4307                                         !
 ! D154  D(55,54,57,58)         58.3543                                         !
 ! D155  D(55,54,57,59)        -63.0585                                         !
 ! D156  D(55,54,57,60)        178.9732                                         !
 ! D157  D(56,54,57,58)        -56.082                                          !
 ! D158  D(56,54,57,59)       -177.4948                                         !
 ! D159  D(56,54,57,60)         64.5369                                         !
 --------------------------------------------------------------------------------
 Symmetry turned off by external request.
 Stoichiometry    C20H31N4O7(1+)
 Framework group  C1[X(C20H31N4O7)]
 Deg. of freedom   180
 Full point group                 C1      NOp   1
                          Input orientation:                          
 ---------------------------------------------------------------------
 Center     Atomic      Atomic             Coordinates (Angstroms)
 Number     Number       Type             X           Y           Z
 ---------------------------------------------------------------------
      1          7           0       -1.039716   -4.007312    2.289476
      2          1           0       -0.468310   -4.402613    3.039900
      3          1           0       -2.006320   -4.321511    2.412858
      4          1           0       -0.703832   -4.319252    1.326181
      5          6           0       -0.941202   -2.499416    2.166413
      6          1           0        0.001730   -2.229224    2.653893
      7          6           0       -0.712273   -2.301336    0.630684
      8          6           0       -2.118349   -1.745849    2.838351
      9          1           0       -2.834141   -2.474736    3.242442
     10          1           0       -2.655946   -1.171531    2.078040
     11          8           0       -0.423262   -3.311402   -0.036328
     12          6           0       -1.665821   -0.790173    3.952771
     13          1           0       -1.138040   -1.335239    4.743702
     14          1           0       -2.547416   -0.346131    4.428756
     15          6           0       -0.743058    0.359309    3.477955
     16          8           0       -0.006788    0.861209    4.349293
     17          8           0       -0.799402    0.695131    2.247866
     18          7           0       -0.816765   -1.039132    0.247326
     19          1           0       -0.973869   -0.355012    1.040253
     20          6           0       -0.340975   -0.407158   -0.988929
     21          1           0       -0.946242    0.503956   -1.068349
     22          6           0        1.135805    0.070528   -0.795454
     23          6           0       -0.540455   -1.221977   -2.278345
     24          1           0        0.082697   -2.116824   -2.252405
     25          1           0       -1.585605   -1.551909   -2.310001
     26          8           0        2.058100   -0.321425   -1.505393
     27          6           0       -0.212168   -0.368155   -3.488623
     28          6           0       -1.006671    0.738747   -3.816742
     29          1           0       -1.929338    0.922849   -3.271065
     30          6           0        0.936126   -0.609433   -4.253501
     31          1           0        1.562272   -1.462395   -4.018054
     32          6           0       -0.631193    1.631358   -4.822995
     33          1           0       -1.242855    2.493273   -5.072292
     34          6           0        1.328365    0.270163   -5.261341
     35          1           0        2.244310    0.090757   -5.820610
     36          8           0        1.011095    2.417939   -6.371692
     37          1           0        1.408609    2.020508   -7.164707
     38          6           0        0.556409    1.403621   -5.510604
     39          7           0        1.283972    0.979998    0.201661
     40          1           0        0.541368    1.043761    0.904285
     41          6           0        2.626213    1.400394    0.657512
     42          1           0        3.255407    0.505570    0.724200
     43          6           0        2.402316    1.958253    2.069838
     44          6           0        3.289790    2.383503   -0.318110
     45          1           0        4.268434    2.657000    0.094636
     46          1           0        3.487055    1.813311   -1.233387
     47          8           0        2.410502    3.142193    2.338597
     48          6           0        2.487474    3.662382   -0.627461
     49          1           0        2.709192    4.425872    0.119561
     50          1           0        1.412565    3.462566   -0.537865
     51          6           0        2.772028    4.231096   -2.033366
     52          1           0        2.387909    5.258790   -2.097736
     53          1           0        3.858156    4.281686   -2.201023
     54          6           0        2.118638    3.386983   -3.122957
     55          1           0        2.462268    2.350327   -3.129890
     56          1           0        1.030014    3.379368   -3.039637
     57          7           0        2.423693    3.942556   -4.511949
     58          1           0        1.955424    3.394149   -5.277468
     59          1           0        3.434607    3.942549   -4.683699
     60          1           0        2.110080    4.916317   -4.585937
     61          8           0        2.109029    0.959309    2.896312
     62          1           0        1.421589    1.222809    3.599464
 ---------------------------------------------------------------------
 Rotational constants (GHZ):           0.2026006           0.0990971           0.0739445
 Standard basis: 6-31G(d) (6D, 7F)
   527 basis functions,   992 primitive gaussians,   527 cartesian basis functions
   117 alpha electrons      117 beta electrons
       nuclear repulsion energy      3412.7801738440 Hartrees.
 NAtoms=   62 NActive=   62 NUniq=   62 SFac= 1.00D+00 NAtFMM=   60 NAOKFM=T Big=T
 Integral buffers will be    131072 words long.
 Raffenetti 2 integral format.
 Two-electron integral symmetry is turned off.
 One-electron integrals computed using PRISM.
 NBasis=   527 RedAO= T EigKep=  4.27D-04  NBF=   527
 NBsUse=   527 1.00D-06 EigRej= -1.00D+00 NBFU=   527
 Initial guess from the checkpoint file:  "conf-879.chk"
 B after Tr=     0.000000    0.000000    0.000000
         Rot=    1.000000    0.000000    0.000000    0.000000 Ang=   0.00 deg.
 Requested convergence on RMS density matrix=1.00D-08 within 128 cycles.
 Requested convergence on MAX density matrix=1.00D-06.
 Requested convergence on             energy=1.00D-06.
 No special actions if energy rises.
 SCF Done:  E(RB3LYP) =  -1526.18622043     A.U. after    1 cycles
            NFock=  1  Conv=0.94D-08     -V/T= 2.0093

 **********************************************************************

            Population analysis using the SCF Density.

 **********************************************************************

 Alpha  occ. eigenvalues --  -19.31619 -19.24457 -19.21725 -19.20218 -19.18627
 Alpha  occ. eigenvalues --  -19.17457 -19.16041 -14.59374 -14.57907 -14.46000
 Alpha  occ. eigenvalues --  -14.43125 -10.40980 -10.37992 -10.37573 -10.37074
 Alpha  occ. eigenvalues --  -10.36645 -10.36037 -10.34852 -10.33463 -10.31182
 Alpha  occ. eigenvalues --  -10.30850 -10.30211 -10.29973 -10.29809 -10.29680
 Alpha  occ. eigenvalues --  -10.29584 -10.29245 -10.28416 -10.27303 -10.26851
 Alpha  occ. eigenvalues --  -10.26443  -1.18456  -1.16580  -1.13825  -1.13651
 Alpha  occ. eigenvalues --   -1.11828  -1.11460  -1.09964  -1.05461  -1.03953
 Alpha  occ. eigenvalues --   -1.01085  -0.99604  -0.96190  -0.91775  -0.91210
 Alpha  occ. eigenvalues --   -0.88701  -0.85894  -0.85474  -0.83876  -0.81589
 Alpha  occ. eigenvalues --   -0.80463  -0.76563  -0.75107  -0.74386  -0.72922
 Alpha  occ. eigenvalues --   -0.72507  -0.72276  -0.71888  -0.70363  -0.69270
 Alpha  occ. eigenvalues --   -0.68405  -0.67556  -0.65640  -0.65237  -0.64020
 Alpha  occ. eigenvalues --   -0.63623  -0.62844  -0.60964  -0.60703  -0.58905
 Alpha  occ. eigenvalues --   -0.58183  -0.57939  -0.57877  -0.56820  -0.56128
 Alpha  occ. eigenvalues --   -0.55337  -0.55054  -0.54035  -0.53780  -0.53196
 Alpha  occ. eigenvalues --   -0.53098  -0.52953  -0.52022  -0.51753  -0.51201
 Alpha  occ. eigenvalues --   -0.50209  -0.50036  -0.49302  -0.49280  -0.49034
 Alpha  occ. eigenvalues --   -0.48663  -0.48070  -0.47653  -0.47113  -0.46586
 Alpha  occ. eigenvalues --   -0.46390  -0.45694  -0.45248  -0.44703  -0.44383
 Alpha  occ. eigenvalues --   -0.43667  -0.43397  -0.42835  -0.42276  -0.41968
 Alpha  occ. eigenvalues --   -0.40264  -0.38898  -0.38052  -0.35856  -0.35655
 Alpha  occ. eigenvalues --   -0.34456  -0.33522  -0.32738  -0.32170  -0.32018
 Alpha  occ. eigenvalues --   -0.31720  -0.30292
 Alpha virt. eigenvalues --   -0.11142  -0.10881  -0.10511  -0.10425  -0.08353
 Alpha virt. eigenvalues --   -0.06507  -0.05453  -0.04964  -0.04815  -0.04696
 Alpha virt. eigenvalues --   -0.03270  -0.02718  -0.01071  -0.00718  -0.00122
 Alpha virt. eigenvalues --    0.00744   0.01438   0.02008   0.03072   0.03413
 Alpha virt. eigenvalues --    0.03559   0.03609   0.04181   0.05054   0.05416
 Alpha virt. eigenvalues --    0.05907   0.06422   0.06571   0.07181   0.07629
 Alpha virt. eigenvalues --    0.08001   0.08668   0.09041   0.09347   0.10130
 Alpha virt. eigenvalues --    0.10659   0.10808   0.11476   0.11518   0.12269
 Alpha virt. eigenvalues --    0.12582   0.12837   0.13586   0.13875   0.14497
 Alpha virt. eigenvalues --    0.15419   0.16005   0.16263   0.16683   0.17085
 Alpha virt. eigenvalues --    0.18202   0.18624   0.19450   0.19833   0.21304
 Alpha virt. eigenvalues --    0.22576   0.23274   0.24031   0.24796   0.26383
 Alpha virt. eigenvalues --    0.27197   0.28970   0.30329   0.30872   0.32301
 Alpha virt. eigenvalues --    0.33043   0.34312   0.35584   0.36664   0.38640
 Alpha virt. eigenvalues --    0.39333   0.39682   0.40661   0.41294   0.42316
 Alpha virt. eigenvalues --    0.42450   0.42738   0.43111   0.43995   0.44289
 Alpha virt. eigenvalues --    0.45101   0.46321   0.47724   0.47788   0.48174
 Alpha virt. eigenvalues --    0.48962   0.49248   0.49982   0.50218   0.50602
 Alpha virt. eigenvalues --    0.51187   0.51558   0.51799   0.52090   0.52572
 Alpha virt. eigenvalues --    0.52822   0.53365   0.53977   0.54844   0.55256
 Alpha virt. eigenvalues --    0.55738   0.56072   0.57067   0.57701   0.58086
 Alpha virt. eigenvalues --    0.58257   0.58869   0.59523   0.60127   0.60628
 Alpha virt. eigenvalues --    0.61581   0.61886   0.62462   0.63402   0.63546
 Alpha virt. eigenvalues --    0.64026   0.65322   0.65816   0.66111   0.66165
 Alpha virt. eigenvalues --    0.66411   0.67511   0.68163   0.68672   0.69188
 Alpha virt. eigenvalues --    0.69436   0.69798   0.70869   0.71344   0.71945
 Alpha virt. eigenvalues --    0.72632   0.72951   0.73466   0.73558   0.74513
 Alpha virt. eigenvalues --    0.74962   0.75207   0.75775   0.76635   0.76765
 Alpha virt. eigenvalues --    0.77283   0.77730   0.77895   0.78435   0.79047
 Alpha virt. eigenvalues --    0.79395   0.79729   0.80181   0.81260   0.81541
 Alpha virt. eigenvalues --    0.82003   0.82667   0.83135   0.83903   0.84392
 Alpha virt. eigenvalues --    0.84595   0.85237   0.85725   0.85853   0.86166
 Alpha virt. eigenvalues --    0.86739   0.87329   0.87766   0.88377   0.89288
 Alpha virt. eigenvalues --    0.90196   0.90913   0.91371   0.93167   0.94091
 Alpha virt. eigenvalues --    0.95361   0.96599   0.96815   0.97455   0.98214
 Alpha virt. eigenvalues --    0.99704   1.00140   1.00488   1.02049   1.02827
 Alpha virt. eigenvalues --    1.03431   1.04937   1.05534   1.05957   1.06728
 Alpha virt. eigenvalues --    1.07858   1.08728   1.09124   1.09563   1.10341
 Alpha virt. eigenvalues --    1.11891   1.12451   1.12991   1.14917   1.15747
 Alpha virt. eigenvalues --    1.16920   1.17532   1.18881   1.19037   1.21346
 Alpha virt. eigenvalues --    1.21583   1.22630   1.23964   1.25507   1.26640
 Alpha virt. eigenvalues --    1.28302   1.29245   1.30309   1.30894   1.31126
 Alpha virt. eigenvalues --    1.32766   1.32993   1.34126   1.36352   1.37228
 Alpha virt. eigenvalues --    1.37625   1.38023   1.38971   1.40143   1.41235
 Alpha virt. eigenvalues --    1.41725   1.43140   1.43600   1.43849   1.45079
 Alpha virt. eigenvalues --    1.45962   1.47774   1.48919   1.51152   1.52012
 Alpha virt. eigenvalues --    1.54083   1.54853   1.55597   1.56844   1.57763
 Alpha virt. eigenvalues --    1.58772   1.59835   1.60570   1.61582   1.63703
 Alpha virt. eigenvalues --    1.64023   1.65498   1.66222   1.66648   1.68019
 Alpha virt. eigenvalues --    1.68254   1.68993   1.69698   1.70048   1.70373
 Alpha virt. eigenvalues --    1.71393   1.71743   1.72722   1.72938   1.73795
 Alpha virt. eigenvalues --    1.74552   1.74839   1.74893   1.75824   1.76235
 Alpha virt. eigenvalues --    1.76408   1.77487   1.78225   1.79376   1.79636
 Alpha virt. eigenvalues --    1.80710   1.80972   1.81720   1.82208   1.82595
 Alpha virt. eigenvalues --    1.83772   1.84023   1.84363   1.84708   1.85714
 Alpha virt. eigenvalues --    1.86051   1.86952   1.87278   1.87970   1.88638
 Alpha virt. eigenvalues --    1.89094   1.89592   1.90328   1.91283   1.92358
 Alpha virt. eigenvalues --    1.92951   1.94199   1.94483   1.95963   1.96705
 Alpha virt. eigenvalues --    1.97630   1.98121   1.98394   1.99361   2.00007
 Alpha virt. eigenvalues --    2.00995   2.02314   2.03557   2.04650   2.05557
 Alpha virt. eigenvalues --    2.06131   2.07553   2.08701   2.09527   2.10125
 Alpha virt. eigenvalues --    2.11567   2.12201   2.13279   2.14566   2.15844
 Alpha virt. eigenvalues --    2.17647   2.17910   2.18687   2.20539   2.21404
 Alpha virt. eigenvalues --    2.23603   2.24087   2.24216   2.26108   2.26399
 Alpha virt. eigenvalues --    2.27256   2.28400   2.29600   2.30263   2.31622
 Alpha virt. eigenvalues --    2.32077   2.33154   2.33522   2.34710   2.35085
 Alpha virt. eigenvalues --    2.36080   2.37257   2.39763   2.41038   2.41257
 Alpha virt. eigenvalues --    2.41930   2.42549   2.43674   2.45017   2.46306
 Alpha virt. eigenvalues --    2.47811   2.50821   2.51425   2.52625   2.52908
 Alpha virt. eigenvalues --    2.54612   2.55375   2.56069   2.56890   2.57629
 Alpha virt. eigenvalues --    2.58499   2.61694   2.64025   2.64566   2.64691
 Alpha virt. eigenvalues --    2.67016   2.67410   2.69162   2.72066   2.72443
 Alpha virt. eigenvalues --    2.77241   2.78828   2.79318   2.79625   2.84322
 Alpha virt. eigenvalues --    2.85620   2.86157   2.87055   2.90330   2.93306
 Alpha virt. eigenvalues --    2.94500   2.95682   2.95869   3.00549   3.05604
 Alpha virt. eigenvalues --    3.07899   3.08929   3.10367   3.31218   3.65834
 Alpha virt. eigenvalues --    3.67192   3.85997   3.86991   3.93405   3.97245
 Alpha virt. eigenvalues --    4.00509   4.01914   4.03220   4.03466   4.05848
 Alpha virt. eigenvalues --    4.07836   4.09158   4.13718   4.17472   4.19402
 Alpha virt. eigenvalues --    4.20762   4.25091   4.27429   4.29674   4.32427
 Alpha virt. eigenvalues --    4.34045   4.37594   4.38680   4.45367   4.46446
 Alpha virt. eigenvalues --    4.50376   4.55131   4.58344   4.63216   4.66577
          Condensed to atoms (all electrons):
 Mulliken charges:
               1
     1  N   -0.760774
     2  H    0.414533
     3  H    0.405429
     4  H    0.427447
     5  C   -0.106734
     6  H    0.241417
     7  C    0.637370
     8  C   -0.312820
     9  H    0.148026
    10  H    0.199758
    11  O   -0.555846
    12  C   -0.362220
    13  H    0.159998
    14  H    0.189110
    15  C    0.614724
    16  O   -0.561078
    17  O   -0.612418
    18  N   -0.645511
    19  H    0.421782
    20  C   -0.070380
    21  H    0.173585
    22  C    0.621728
    23  C   -0.353811
    24  H    0.198417
    25  H    0.164940
    26  O   -0.532100
    27  C    0.165124
    28  C   -0.192643
    29  H    0.151786
    30  C   -0.149183
    31  H    0.170746
    32  C   -0.165777
    33  H    0.157482
    34  C   -0.185567
    35  H    0.142890
    36  O   -0.685865
    37  H    0.435901
    38  C    0.284524
    39  N   -0.661179
    40  H    0.399691
    41  C    0.002387
    42  H    0.177902
    43  C    0.550030
    44  C   -0.285753
    45  H    0.163033
    46  H    0.148082
    47  O   -0.455056
    48  C   -0.263658
    49  H    0.199378
    50  H    0.154409
    51  C   -0.296524
    52  H    0.156342
    53  H    0.155541
    54  C   -0.202385
    55  H    0.233962
    56  H    0.213437
    57  N   -0.772614
    58  H    0.451604
    59  H    0.403897
    60  H    0.406071
    61  O   -0.605651
    62  H    0.453064
 Sum of Mulliken charges =   1.00000
 Mulliken charges with hydrogens summed into heavy atoms:
               1
     1  N    0.486634
     5  C    0.134683
     7  C    0.637370
     8  C    0.034964
    11  O   -0.555846
    12  C   -0.013113
    15  C    0.614724
    16  O   -0.561078
    17  O   -0.612418
    18  N   -0.223729
    20  C    0.103206
    22  C    0.621728
    23  C    0.009547
    26  O   -0.532100
    27  C    0.165124
    28  C   -0.040857
    30  C    0.021563
    32  C   -0.008295
    34  C   -0.042677
    36  O   -0.249964
    38  C    0.284524
    39  N   -0.261487
    41  C    0.180289
    43  C    0.550030
    44  C    0.025362
    47  O   -0.455056
    48  C    0.090129
    51  C    0.015358
    54  C    0.245014
    57  N    0.488957
    61  O   -0.152587
 Electronic spatial extent (au):  <R**2>=          15220.4184
 Charge=              1.0000 electrons
 Dipole moment (field-independent basis, Debye):
    X=              2.2445    Y=             -0.1865    Z=            -15.3214  Tot=             15.4861
 Quadrupole moment (field-independent basis, Debye-Ang):
   XX=           -147.6919   YY=            -89.4983   ZZ=            -86.4599
   XY=             44.8094   XZ=            -58.3151   YZ=           -108.4327
 Traceless Quadrupole moment (field-independent basis, Debye-Ang):
   XX=            -39.8085   YY=             18.3850   ZZ=             21.4235
   XY=             44.8094   XZ=            -58.3151   YZ=           -108.4327
 Octapole moment (field-independent basis, Debye-Ang**2):
  XXX=           -279.5306  YYY=           -273.3957  ZZZ=           -240.5386  XYY=            -43.5433
  XXY=            -26.4414  XXZ=              6.9347  XZZ=             73.0650  YZZ=             55.3356
  YYZ=            -20.1881  XYZ=           -128.1842
 Hexadecapole moment (field-independent basis, Debye-Ang**3):
 XXXX=          -2964.1409 YYYY=          -3501.5551 ZZZZ=          -7573.7532 XXXY=          -1134.2690
 XXXZ=            467.0289 YYYX=           -721.6696 YYYZ=           -395.8913 ZZZX=           -676.9631
 ZZZY=           -532.8209 XXYY=           -978.3536 XXZZ=          -1656.7243 YYZZ=          -1304.7981
 XXYZ=            -88.5436 YYXZ=           -525.8047 ZZXY=            267.5241
 N-N= 3.412780173844D+03 E-N=-1.036239232464D+04  KE= 1.512120443096D+03
 Unable to Open any file for archive entry.
 1\1\GINC-SKL-155\SP\RB3LYP\6-31G(d)\C20H31N4O7(1+)\KENGMITH\24-May-202
 2\0\\# B3LYP/6-31G* guess=read geom=check nosymm integral(ultrafinegri
 d)\\Candidate Structure: Conf:879 Charge calc in gas phase\\1,1\N,0,-1
 .0397160911,-4.007312145,2.2894755409\H,0,-0.4683098621,-4.4026128745,
 3.0399001105\H,0,-2.0063195245,-4.3215111434,2.4128579709\H,0,-0.70383
 19785,-4.3192517637,1.3261808892\C,0,-0.9412021439,-2.4994158216,2.166
 4128455\H,0,0.0017298516,-2.2292240462,2.6538925868\C,0,-0.7122730934,
 -2.3013363434,0.6306844431\C,0,-2.1183489593,-1.7458492346,2.838351188
 4\H,0,-2.8341410751,-2.4747364038,3.2424417257\H,0,-2.655945555,-1.171
 5310942,2.0780403868\O,0,-0.4232615225,-3.3114024771,-0.0363280622\C,0
 ,-1.6658211403,-0.7901734231,3.9527705749\H,0,-1.1380403344,-1.3352386
 596,4.7437018816\H,0,-2.5474159061,-0.3461306262,4.4287561384\C,0,-0.7
 430578602,0.3593086295,3.4779546807\O,0,-0.0067879677,0.8612087106,4.3
 492925759\O,0,-0.7994019642,0.6951314154,2.247866277\N,0,-0.8167654114
 ,-1.0391316477,0.2473257516\H,0,-0.9738693505,-0.3550123211,1.04025282
 33\C,0,-0.3409748025,-0.407158153,-0.9889294406\H,0,-0.9462424467,0.50
 39561812,-1.0683491968\C,0,1.1358046135,0.0705278522,-0.7954540182\C,0
 ,-0.5404549752,-1.2219774978,-2.2783446336\H,0,0.0826969289,-2.1168238
 919,-2.2524053746\H,0,-1.5856050393,-1.5519089866,-2.3100005906\O,0,2.
 0580996913,-0.3214251249,-1.5053925238\C,0,-0.2121680534,-0.3681552097
 ,-3.4886227806\C,0,-1.0066709813,0.7387468347,-3.8167422457\H,0,-1.929
 337776,0.9228494117,-3.2710647372\C,0,0.9361263346,-0.609433357,-4.253
 5013119\H,0,1.5622721246,-1.4623947164,-4.0180544842\C,0,-0.6311927918
 ,1.6313584907,-4.8229951727\H,0,-1.2428551951,2.4932731287,-5.07229242
 9\C,0,1.328365303,0.2701628942,-5.2613411371\H,0,2.2443102275,0.090756
 665,-5.8206100813\O,0,1.0110950256,2.4179387843,-6.3716923057\H,0,1.40
 86094504,2.0205075631,-7.1647072789\C,0,0.5564087952,1.4036209033,-5.5
 106041041\N,0,1.2839723944,0.9799976271,0.2016613224\H,0,0.5413681174,
 1.0437614524,0.9042854628\C,0,2.6262132612,1.4003939469,0.6575117285\H
 ,0,3.2554071002,0.5055703712,0.7241996633\C,0,2.4023164979,1.958253385
 2,2.0698380204\C,0,3.2897895081,2.3835028854,-0.3181103331\H,0,4.26843
 43481,2.6569995751,0.0946355299\H,0,3.4870553472,1.8133108184,-1.23338
 66168\O,0,2.410502315,3.1421927028,2.3385970269\C,0,2.4874737885,3.662
 3818644,-0.6274606034\H,0,2.7091923431,4.4258715065,0.1195612423\H,0,1
 .4125648377,3.4625656324,-0.5378649033\C,0,2.7720280178,4.2310964376,-
 2.0333655795\H,0,2.3879085313,5.2587898714,-2.0977355132\H,0,3.8581563
 256,4.2816858543,-2.2010230091\C,0,2.1186384798,3.3869834465,-3.122956
 8926\H,0,2.4622683308,2.350326944,-3.129890467\H,0,1.0300142151,3.3793
 678124,-3.0396365597\N,0,2.4236926731,3.9425559704,-4.5119492632\H,0,1
 .9554243172,3.3941490198,-5.2774681579\H,0,3.434606576,3.9425492588,-4
 .6836985014\H,0,2.1100801316,4.9163166541,-4.5859372217\O,0,2.10902874
 12,0.9593093133,2.8963118325\H,0,1.421589187,1.2228088878,3.5994636403
 \\Version=ES64L-G16RevC.01\HF=-1526.1862204\RMSD=9.388e-09\Dipole=-0.3
 141679,-1.0913571,-4.9216468\Quadrupole=-29.5966608,13.6688278,15.9278
 33,33.3146855,-43.3558188,-80.6170473\PG=C01 [X(C20H31N4O7)]\\@
 The archive entry for this job was punched.


 THE MORE PROGRESS PHYSICAL SCIENCES MAKE, THE MORE THEY TEND TO ENTER
 THE DOMAIN OF MATHEMATICS, WHICH IS A KIND OF CENTRE TO WHICH THEY ALL
 CONVERGE.  WE MAY EVEN JUDGE THE DEGREE OF PERFECTION TO WHICH A 
 SCIENCE HAS ARRIVED BY THE FACILITY WITH WHICH IT MAY BE SUBMITTED
 TO CALCULATION.

                               -- ADOLPHE QUETELET, 1796-1874
 Job cpu time:       0 days  0 hours  1 minutes  9.6 seconds.
 Elapsed time:       0 days  0 hours  0 minutes 17.9 seconds.
 File lengths (MBytes):  RWF=    264 Int=      0 D2E=      0 Chk=     40 Scr=     16
 Normal termination of Gaussian 16 at Tue May 24 03:13:05 2022.
