 Entering Gaussian System, Link 0=/opt/software/Gaussian/g16-AVX2-C.01/g16/g16
 Input=charge-conf-997.com
 Output=charge-conf-997.log
 Initial command:
 /opt/software/Gaussian/g16-AVX2-C.01/g16/l1.exe "/mnt/gs21/scratch/kengmith/Gau-30191.inp" -scrdir="/mnt/gs21/scratch/kengmith/"
 Entering Link 1 = /opt/software/Gaussian/g16-AVX2-C.01/g16/l1.exe PID=     30201.
  
 Copyright (c) 1988-2019, Gaussian, Inc.  All Rights Reserved.
  
 This is part of the Gaussian(R) 16 program.  It is based on
 the Gaussian(R) 09 system (copyright 2009, Gaussian, Inc.),
 the Gaussian(R) 03 system (copyright 2003, Gaussian, Inc.),
 the Gaussian(R) 98 system (copyright 1998, Gaussian, Inc.),
 the Gaussian(R) 94 system (copyright 1995, Gaussian, Inc.),
 the Gaussian 92(TM) system (copyright 1992, Gaussian, Inc.),
 the Gaussian 90(TM) system (copyright 1990, Gaussian, Inc.),
 the Gaussian 88(TM) system (copyright 1988, Gaussian, Inc.),
 the Gaussian 86(TM) system (copyright 1986, Carnegie Mellon
 University), and the Gaussian 82(TM) system (copyright 1983,
 Carnegie Mellon University). Gaussian is a federally registered
 trademark of Gaussian, Inc.
  
 This software contains proprietary and confidential information,
 including trade secrets, belonging to Gaussian, Inc.
  
 This software is provided under written license and may be
 used, copied, transmitted, or stored only in accord with that
 written license.
  
 The following legend is applicable only to US Government
 contracts under FAR:
  
                    RESTRICTED RIGHTS LEGEND
  
 Use, reproduction and disclosure by the US Government is
 subject to restrictions as set forth in subparagraphs (a)
 and (c) of the Commercial Computer Software - Restricted
 Rights clause in FAR 52.227-19.
  
 Gaussian, Inc.
 340 Quinnipiac St., Bldg. 40, Wallingford CT 06492
  
  
 ---------------------------------------------------------------
 Warning -- This program may not be used in any manner that
 competes with the business of Gaussian, Inc. or will provide
 assistance to any competitor of Gaussian, Inc.  The licensee
 of this program is prohibited from giving any competitor of
 Gaussian, Inc. access to this program.  By using this program,
 the user acknowledges that Gaussian, Inc. is engaged in the
 business of creating and licensing software in the field of
 computational chemistry and represents and warrants to the
 licensee that it is not a competitor of Gaussian, Inc. and that
 it will not use this program in any manner prohibited above.
 ---------------------------------------------------------------
  

 Cite this work as:
 Gaussian 16, Revision C.01,
 M. J. Frisch, G. W. Trucks, H. B. Schlegel, G. E. Scuseria, 
 M. A. Robb, J. R. Cheeseman, G. Scalmani, V. Barone, 
 G. A. Petersson, H. Nakatsuji, X. Li, M. Caricato, A. V. Marenich, 
 J. Bloino, B. G. Janesko, R. Gomperts, B. Mennucci, H. P. Hratchian, 
 J. V. Ortiz, A. F. Izmaylov, J. L. Sonnenberg, D. Williams-Young, 
 F. Ding, F. Lipparini, F. Egidi, J. Goings, B. Peng, A. Petrone, 
 T. Henderson, D. Ranasinghe, V. G. Zakrzewski, J. Gao, N. Rega, 
 G. Zheng, W. Liang, M. Hada, M. Ehara, K. Toyota, R. Fukuda, 
 J. Hasegawa, M. Ishida, T. Nakajima, Y. Honda, O. Kitao, H. Nakai, 
 T. Vreven, K. Throssell, J. A. Montgomery, Jr., J. E. Peralta, 
 F. Ogliaro, M. J. Bearpark, J. J. Heyd, E. N. Brothers, K. N. Kudin, 
 V. N. Staroverov, T. A. Keith, R. Kobayashi, J. Normand, 
 K. Raghavachari, A. P. Rendell, J. C. Burant, S. S. Iyengar, 
 J. Tomasi, M. Cossi, J. M. Millam, M. Klene, C. Adamo, R. Cammi, 
 J. W. Ochterski, R. L. Martin, K. Morokuma, O. Farkas, 
 J. B. Foresman, and D. J. Fox, Gaussian, Inc., Wallingford CT, 2019.
 
 ******************************************
 Gaussian 16:  ES64L-G16RevC.01  3-Jul-2019
                10-Aug-2022 
 ******************************************
 %mem=8gb
 %nproc=4
 Will use up to    4 processors via shared memory.
 %chk=conf-997.chk
 ----------------------------------------------------------------------
 # B3LYP/6-31G* empiricaldispersion=gd3bj guess=read geom=check nosymm 
 integral(ultrafinegrid)
 ----------------------------------------------------------------------
 1/29=2,38=1,172=1/1;
 2/12=2,15=1,40=1/2;
 3/5=1,6=6,7=1,11=2,14=-4,25=1,30=1,74=-5,75=-5,116=-2,124=41/1,2,3;
 4/5=1/1;
 5/5=2,38=6/2;
 6/7=2,8=2,9=2,10=2,28=1/1;
 99/5=1,9=1/99;
 ------------------------------------------------------
 Candidate Structure: Conf:997 Charge calc in gas phase
 ------------------------------------------------------
 Structure from the checkpoint file:  "conf-997.chk"
 Charge =  1 Multiplicity = 1
 Redundant internal coordinates found in file.  (old form).
 N,0,-10.4836771634,-6.6751125246,-6.4140996625
 H,0,-10.9474177062,-7.2242854909,-5.6834094179
 H,0,-10.9453320701,-5.7196757795,-6.457747281
 H,0,-10.569439385,-7.1738445651,-7.3042201664
 C,0,-9.0601871263,-6.30534228,-6.0588323286
 H,0,-8.6585182257,-7.0404568856,-5.3612052177
 C,0,-9.2299115681,-4.8966903969,-5.426352331
 C,0,-8.2141068209,-6.2320225224,-7.3491845947
 H,0,-7.9758766694,-7.2449356582,-7.6917809476
 H,0,-8.760932168,-5.6967368246,-8.130104796
 O,0,-10.2437956848,-4.2603203627,-5.7407524427
 C,0,-6.9296770389,-5.4472563452,-7.0874357756
 O,0,-6.6780222724,-4.3909772446,-7.6121687761
 O,0,-6.1913667911,-6.0438269838,-6.1365667001
 N,0,-8.2340237917,-4.4889862898,-4.6475908524
 H,0,-7.4229306129,-5.0924588201,-4.5197607335
 C,0,-7.9360757314,-3.0891743084,-4.3409632697
 H,0,-8.5490977203,-2.4630358143,-4.9927387337
 C,0,-6.4409109476,-2.9240021393,-4.6766792619
 C,0,-8.231490257,-2.7456738258,-2.8587011054
 H,0,-7.6861691257,-3.4539030369,-2.2255175067
 H,0,-9.3023422798,-2.9108415131,-2.6940001013
 O,0,-5.6823445419,-3.9103649546,-4.598854186
 C,0,-7.8282674049,-1.3278461451,-2.5381226353
 C,0,-6.6383783801,-1.0580854418,-1.8494568515
 H,0,-6.0448631262,-1.882840946,-1.4630387919
 C,0,-8.5699535511,-0.2479465547,-3.0303518561
 H,0,-9.5039511398,-0.4275238517,-3.5587470998
 C,0,-6.1913751546,0.2443741746,-1.6628081275
 H,0,-5.2699730973,0.4530699349,-1.1302952051
 C,0,-8.1310898093,1.0627567272,-2.8589083364
 H,0,-8.714889118,1.890818391,-3.2534572884
 O,0,-6.44237877,2.5658278976,-1.986839231
 H,0,-7.0053789126,3.2102900186,-2.4436903469
 C,0,-6.9338009463,1.3102477427,-2.1809050302
 N,0,-6.0416493231,-1.7019126936,-5.0073979032
 H,0,-6.673265964,-0.9044575999,-4.9715258616
 C,0,-4.6505890317,-1.3561736139,-5.2537610065
 H,0,-4.0183815152,-1.9953625427,-4.6323079379
 C,0,-4.5011757434,0.119534051,-4.8751150231
 C,0,-4.2882587571,-1.5622757697,-6.7518019468
 H,0,-5.0147122297,-0.9983960641,-7.3459092678
 H,0,-4.4330582154,-2.6232034268,-6.9809033657
 O,0,-5.4324198284,0.9039203546,-5.0680599202
 C,0,-2.8850717866,-1.1022545213,-7.0562625127
 C,0,-2.652857706,0.165790489,-7.6063801333
 H,0,-3.4998775663,0.7846840799,-7.8917924016
 C,0,-1.7780987677,-1.8764563026,-6.6932815682
 H,0,-1.9283233009,-2.8675431096,-6.2708616133
 C,0,-1.3632402514,0.6572118973,-7.7750259519
 H,0,-1.1847768096,1.6420656256,-8.1933748126
 C,0,-0.4796356839,-1.3962757263,-6.8500444318
 H,0,0.3687350582,-2.0049162639,-6.5458798296
 O,0,0.972866018,0.4275702473,-7.5202954233
 H,0,1.6350708086,-0.1931959835,-7.1772627838
 C,0,-0.2717903546,-0.1197903196,-7.3775928098
 N,0,-3.2976388942,0.465534019,-4.3843252551
 H,0,-2.5354006063,-0.2069954839,-4.3713720238
 C,0,-2.8570095708,1.846508376,-4.3123324616
 H,0,-3.3966888881,2.4189652666,-5.0722956326
 C,0,-1.3558304316,1.8295707231,-4.623485137
 C,0,-3.1388281949,2.4766807224,-2.9207023215
 H,0,-4.2212179339,2.451061691,-2.7667765685
 H,0,-2.671980789,1.8453720604,-2.1571582525
 O,0,-0.6899962679,0.8090089851,-4.3989627226
 C,0,-2.6043018992,3.8850172037,-2.8442990285
 C,0,-1.4474593366,4.1723336464,-2.112531886
 H,0,-0.9956151308,3.3962679767,-1.5034101423
 C,0,-3.1813181193,4.9007833465,-3.6201052291
 H,0,-4.0914420473,4.6956278384,-4.1803482741
 C,0,-0.8582438335,5.4344534537,-2.1752864638
 H,0,0.0505053015,5.6333684056,-1.6167387509
 C,0,-2.5919928498,6.1649111369,-3.6883997099
 H,0,-3.0464441561,6.9415203944,-4.2972479112
 C,0,-1.4217791867,6.43074805,-2.9736126771
 H,0,-0.9560794116,7.4095719284,-3.0340852472
 N,0,-0.8398639326,2.965769921,-5.1266974773
 H,0,-1.4185099791,3.7980512729,-5.1019271899
 C,0,0.5900101717,3.1632259974,-5.3980506279
 H,0,0.9514768987,2.2320692612,-5.8447776647
 C,0,1.3596699525,3.4144471766,-4.0832806904
 C,0,0.7623563452,4.3199156099,-6.3713634651
 H,0,1.8210487923,4.4686589874,-6.5939389097
 H,0,0.2302057054,4.1099625883,-7.3038061937
 H,0,0.3860520185,5.2501205005,-5.9341853124
 O,0,1.8861331385,4.5000961176,-3.8237956045
 N,0,1.391122418,2.3528782261,-3.2476601296
 H,0,0.8967753041,1.5061126203,-3.5211634804
 C,0,1.9008173944,2.4762172894,-1.8864413489
 H,0,1.6470955882,3.4840863966,-1.5427522614
 C,0,3.4356831054,2.3556710883,-1.9074449421
 C,0,1.2998080193,1.4350582282,-0.944660465
 H,0,0.2274735243,1.331796835,-1.1599055574
 H,0,1.7724531338,0.4704918287,-1.1559006335
 O,0,4.0151011438,1.2842225847,-1.7040886981
 C,0,1.5091158482,1.8288511681,0.5328410865
 H,0,2.4947214048,2.3050004197,0.6228340531
 C,0,0.4804739846,2.8645727254,1.0000991426
 H,0,-0.5322125172,2.4378111829,0.9929913649
 H,0,0.7297483459,3.1860820177,2.0136703275
 H,0,0.4718846255,3.7564383371,0.3589850257
 C,0,1.5117703392,0.6075251902,1.4566056072
 H,0,0.5309449488,0.1126720846,1.4546462658
 H,0,1.750768299,0.9139955248,2.4796013363
 H,0,2.2591774511,-0.1288087921,1.1369554649
 N,0,4.0871567945,3.51639181,-2.1519682068
 H,0,3.5261717149,4.2900531715,-2.5024828228
 C,0,5.5493391651,3.5986884162,-2.2276066661
 H,0,5.9103934347,2.6797102952,-2.704608639
 C,0,6.0957316447,3.6352253514,-0.7831837155
 C,0,5.9700747592,4.8220391087,-3.0273777487
 H,0,7.0589410611,4.8647265067,-3.1095889594
 H,0,5.6382045567,5.7391305134,-2.5325940822
 H,0,5.5410622316,4.7795420447,-4.032824183
 O,0,6.5805715645,4.669085846,-0.2879071562
 N,0,5.9368638191,2.4847225024,-0.116847239
 H,0,5.5100605446,1.7052835081,-0.619588768
 C,0,6.0803003491,2.3768038527,1.3142607625
 H,0,5.7727518926,3.3291874755,1.7522749609
 C,0,7.5264321405,2.1028711853,1.7105656897
 C,0,5.1470431791,1.2667678377,1.8783741079
 H,0,4.1531233873,1.4498888727,1.469738487
 H,0,5.0264310782,1.395196444,2.9578549685
 O,0,8.4096938218,1.775774902,0.9216273705
 C,0,5.5955192577,-0.1208488936,1.5683306064
 C,0,5.4140524776,-0.935610701,0.4719614959
 H,0,4.8340071297,-0.7190809266,-0.4154218303
 N,0,6.409288134,-0.8509490613,2.4220694098
 H,0,6.6879147134,-0.5898193704,3.3679217566
 C,0,6.6587288867,-2.0479771101,1.8128439516
 H,0,7.2576508986,-2.8175451171,2.2812381415
 N,0,6.0805093262,-2.1330133429,0.6315350929
 N,0,7.7527265853,2.2281780036,3.0526627124
 H,0,6.933513392,2.4160307668,3.6199279874
 C,0,8.828743965,1.4622803796,3.7045522991
 H,0,8.9793401456,0.5403315118,3.1323962432
 C,0,8.1833923881,1.0715006592,5.0425415489
 C,0,10.1620786045,2.2250075966,3.7340112288
 H,0,10.061384867,3.1175467318,4.3672774315
 O,0,7.4638957723,0.0777903143,5.107726905
 C,0,11.2909550478,1.351588095,4.2698705045
 H,0,11.0973214423,1.0484498068,5.3050024985
 H,0,11.3999766961,0.4503281924,3.6568723006
 H,0,12.234137985,1.9029656649,4.2369320808
 O,0,10.4731078369,2.7217882037,2.4293603019
 H,0,9.9939486608,2.1712599892,1.7654833263
 N,0,8.2947857675,1.9903606941,6.0401992479
 H,0,8.801673152,2.8385498663,5.8121809023
 C,0,7.1383481138,2.2937781155,6.9025845956
 H,0,6.5015145067,1.4068050346,6.9040898747
 C,0,6.4637653013,3.4789191601,6.1784069967
 C,0,7.5603118786,2.65138757,8.3333699485
 H,0,8.2300887019,3.5191906263,8.2617177232
 O,0,7.150813585,4.5075946405,5.9962191328
 C,0,6.3320302047,3.0598942646,9.1559413134
 H,0,5.6042064333,2.2406280293,9.2063341257
 H,0,5.8293380374,3.9335717833,8.7283993013
 H,0,6.6246618136,3.3095196794,10.1808438132
 C,0,8.3123696643,1.4870704403,8.9841086852
 H,0,7.6613120468,0.6099661795,9.0840586709
 H,0,8.6572097309,1.7646221756,9.9857956091
 H,0,9.1833860147,1.1921993031,8.3909063377
 N,0,5.2323377109,3.2465883105,5.7321169349
 H,0,4.8027113545,2.3125210313,5.8289564457
 C,0,4.3379551293,4.0322297242,4.8737777556
 H,0,3.6954207805,4.6619672101,5.5037953993
 C,0,3.4085103701,2.943668492,4.1689430858
 C,0,5.026337906,4.8760800099,3.8068743358
 H,0,5.9110433047,4.328311483,3.470705319
 H,0,4.3248367911,4.9024277571,2.9666337071
 O,0,2.7735576813,3.3487988968,3.1755049424
 C,0,5.4451353762,6.2953417748,4.176675702
 H,0,6.0800481351,6.2801878996,5.0645568927
 H,0,4.5626611683,6.8949568668,4.4312220942
 C,0,6.1597974491,6.9910758312,2.9990076093
 H,0,6.7907414892,7.8116922401,3.3558525571
 H,0,5.4240591401,7.4154113072,2.3114438463
 N,0,6.9828609968,6.1074913381,2.162491444
 H,0,6.6085008883,5.7831817401,1.2701150701
 N,0,8.6082251186,5.668109501,3.7736560421
 H,0,9.5343995882,5.2950545963,3.9329156511
 H,0,7.9563308995,5.5020174963,4.5465520371
 N,0,8.9117743914,4.9891992835,1.5632935328
 H,0,9.5639877159,4.2523923769,1.857636562
 H,0,8.4854322684,4.8773762592,0.6463394831
 C,0,8.1521400954,5.5689896909,2.5032182674
 O,0,3.4629070537,1.7945016024,4.6810599917
 H,0,-5.582459194,-5.3554132059,-5.7618496943
 Recover connectivity data from disk.
                           ----------------------------
                           !    Current Parameters    !
                           ! (Angstroms and Degrees)  !
 --------------------------                            --------------------------
 ! Name  Definition              Value                                          !
 --------------------------------------------------------------------------------
 ! R1    R(1,2)                  1.025                                          !
 ! R2    R(1,3)                  1.062                                          !
 ! R3    R(1,4)                  1.0239                                         !
 ! R4    R(1,5)                  1.513                                          !
 ! R5    R(5,6)                  1.0901                                         !
 ! R6    R(5,7)                  1.5534                                         !
 ! R7    R(5,8)                  1.5447                                         !
 ! R8    R(7,11)                 1.2376                                         !
 ! R9    R(7,15)                 1.3283                                         !
 ! R10   R(8,9)                  1.0955                                         !
 ! R11   R(8,10)                 1.0933                                         !
 ! R12   R(8,12)                 1.5278                                         !
 ! R13   R(12,13)                1.206                                          !
 ! R14   R(12,14)                1.3436                                         !
 ! R15   R(14,188)               0.9925                                         !
 ! R16   R(15,16)                1.019                                          !
 ! R17   R(15,17)                1.4636                                         !
 ! R18   R(17,18)                1.0921                                         !
 ! R19   R(17,19)                1.5413                                         !
 ! R20   R(17,20)                1.55                                           !
 ! R21   R(19,23)                1.2468                                         !
 ! R22   R(19,36)                1.3275                                         !
 ! R23   R(20,21)                1.0954                                         !
 ! R24   R(20,22)                1.096                                          !
 ! R25   R(20,24)                1.5085                                         !
 ! R26   R(24,25)                1.401                                          !
 ! R27   R(24,27)                1.3995                                         !
 ! R28   R(25,26)                1.0871                                         !
 ! R29   R(25,29)                1.3896                                         !
 ! R30   R(27,28)                1.088                                          !
 ! R31   R(27,31)                1.3928                                         !
 ! R32   R(29,30)                1.0845                                         !
 ! R33   R(29,35)                1.3985                                         !
 ! R34   R(31,32)                1.0873                                         !
 ! R35   R(31,35)                1.398                                          !
 ! R36   R(33,34)                0.9701                                         !
 ! R37   R(33,35)                1.3622                                         !
 ! R38   R(36,37)                1.0179                                         !
 ! R39   R(36,38)                1.4544                                         !
 ! R40   R(38,39)                1.0929                                         !
 ! R41   R(38,40)                1.5308                                         !
 ! R42   R(38,41)                1.555                                          !
 ! R43   R(40,44)                1.2328                                         !
 ! R44   R(40,57)                1.345                                          !
 ! R45   R(41,42)                1.0948                                         !
 ! R46   R(41,43)                1.095                                          !
 ! R47   R(41,45)                1.5077                                         !
 ! R48   R(45,46)                1.4016                                         !
 ! R49   R(45,48)                1.3988                                         !
 ! R50   R(46,47)                1.0872                                         !
 ! R51   R(46,50)                1.3903                                         !
 ! R52   R(48,49)                1.0878                                         !
 ! R53   R(48,52)                1.3933                                         !
 ! R54   R(50,51)                1.0848                                         !
 ! R55   R(50,56)                1.3975                                         !
 ! R56   R(52,53)                1.0875                                         !
 ! R57   R(52,56)                1.3968                                         !
 ! R58   R(54,55)                0.9703                                         !
 ! R59   R(54,56)                1.3672                                         !
 ! R60   R(57,58)                1.0166                                         !
 ! R61   R(57,59)                1.4514                                         !
 ! R62   R(59,60)                1.0938                                         !
 ! R63   R(59,61)                1.5332                                         !
 ! R64   R(59,62)                1.5534                                         !
 ! R65   R(61,65)                1.2391                                         !
 ! R66   R(61,77)                1.3455                                         !
 ! R67   R(62,63)                1.0936                                         !
 ! R68   R(62,64)                1.0952                                         !
 ! R69   R(62,66)                1.5083                                         !
 ! R70   R(66,67)                1.3987                                         !
 ! R71   R(66,69)                1.4024                                         !
 ! R72   R(67,68)                1.0851                                         !
 ! R73   R(67,71)                1.3943                                         !
 ! R74   R(69,70)                1.0882                                         !
 ! R75   R(69,73)                1.3964                                         !
 ! R76   R(71,72)                1.0851                                         !
 ! R77   R(71,75)                1.3955                                         !
 ! R78   R(73,74)                1.0864                                         !
 ! R79   R(73,75)                1.3968                                         !
 ! R80   R(75,76)                1.0856                                         !
 ! R81   R(77,78)                1.014                                          !
 ! R82   R(77,79)                1.4687                                         !
 ! R83   R(79,80)                1.0942                                         !
 ! R84   R(79,81)                1.5441                                         !
 ! R85   R(79,82)                1.5215                                         !
 ! R86   R(81,86)                1.2342                                         !
 ! R87   R(81,87)                1.3514                                         !
 ! R88   R(82,83)                1.092                                          !
 ! R89   R(82,84)                1.0939                                         !
 ! R90   R(82,85)                1.0945                                         !
 ! R91   R(87,88)                1.0179                                         !
 ! R92   R(87,89)                1.4587                                         !
 ! R93   R(89,90)                1.0947                                         !
 ! R94   R(89,91)                1.5397                                         !
 ! R95   R(89,92)                1.5271                                         !
 ! R96   R(91,95)                1.2349                                         !
 ! R97   R(91,106)               1.3533                                         !
 ! R98   R(92,93)                1.0986                                         !
 ! R99   R(92,94)                1.0947                                         !
 ! R100  R(92,96)                1.5433                                         !
 ! R101  R(96,97)                1.0983                                         !
 ! R102  R(96,98)                1.5327                                         !
 ! R103  R(96,102)               1.5313                                         !
 ! R104  R(98,99)                1.099                                          !
 ! R105  R(98,100)               1.0922                                         !
 ! R106  R(98,101)               1.0984                                         !
 ! R107  R(102,103)              1.0986                                         !
 ! R108  R(102,104)              1.0943                                         !
 ! R109  R(102,105)              1.0968                                         !
 ! R110  R(106,107)              1.0179                                         !
 ! R111  R(106,108)              1.4664                                         !
 ! R112  R(108,109)              1.0965                                         !
 ! R113  R(108,110)              1.5447                                         !
 ! R114  R(108,111)              1.5209                                         !
 ! R115  R(110,115)              1.2447                                         !
 ! R116  R(110,116)              1.339                                          !
 ! R117  R(111,112)              1.0928                                         !
 ! R118  R(111,113)              1.0936                                         !
 ! R119  R(111,114)              1.094                                          !
 ! R120  R(116,117)              1.021                                          !
 ! R121  R(116,118)              1.4423                                         !
 ! R122  R(118,119)              1.0925                                         !
 ! R123  R(118,120)              1.5243                                         !
 ! R124  R(118,121)              1.5561                                         !
 ! R125  R(120,124)              1.2286                                         !
 ! R126  R(120,133)              1.3668                                         !
 ! R127  R(121,122)              1.0901                                         !
 ! R128  R(121,123)              1.0938                                         !
 ! R129  R(121,125)              1.4909                                         !
 ! R130  R(125,126)              1.378                                          !
 ! R131  R(125,128)              1.3871                                         !
 ! R132  R(126,127)              1.082                                          !
 ! R133  R(126,132)              1.3796                                         !
 ! R134  R(128,129)              1.02                                           !
 ! R135  R(128,130)              1.3661                                         !
 ! R136  R(130,131)              1.0818                                         !
 ! R137  R(130,132)              1.318                                          !
 ! R138  R(133,134)              1.014                                          !
 ! R139  R(133,135)              1.4729                                         !
 ! R140  R(135,136)              1.0955                                         !
 ! R141  R(135,137)              1.536                                          !
 ! R142  R(135,138)              1.5364                                         !
 ! R143  R(137,140)              1.2286                                         !
 ! R144  R(137,147)              1.3609                                         !
 ! R145  R(138,139)              1.099                                          !
 ! R146  R(138,141)              1.5246                                         !
 ! R147  R(138,145)              1.4303                                         !
 ! R148  R(141,142)              1.0958                                         !
 ! R149  R(141,143)              1.0954                                         !
 ! R150  R(141,144)              1.093                                          !
 ! R151  R(145,146)              0.9866                                         !
 ! R152  R(147,148)              1.0141                                         !
 ! R153  R(147,149)              1.4742                                         !
 ! R154  R(149,150)              1.0919                                         !
 ! R155  R(149,151)              1.544                                          !
 ! R156  R(149,152)              1.534                                          !
 ! R157  R(151,154)              1.2504                                         !
 ! R158  R(151,163)              1.3303                                         !
 ! R159  R(152,153)              1.0986                                         !
 ! R160  R(152,155)              1.5337                                         !
 ! R161  R(152,159)              1.5312                                         !
 ! R162  R(155,156)              1.097                                          !
 ! R163  R(155,157)              1.0949                                         !
 ! R164  R(155,158)              1.0947                                         !
 ! R165  R(159,160)              1.0969                                         !
 ! R166  R(159,161)              1.0951                                         !
 ! R167  R(159,162)              1.0943                                         !
 ! R168  R(163,164)              1.0327                                         !
 ! R169  R(163,165)              1.4676                                         !
 ! R170  R(165,166)              1.0983                                         !
 ! R171  R(165,167)              1.5955                                         !
 ! R172  R(165,168)              1.5245                                         !
 ! R173  R(167,171)              1.2467                                         !
 ! R174  R(167,187)              1.2593                                         !
 ! R175  R(168,169)              1.0935                                         !
 ! R176  R(168,170)              1.0949                                         !
 ! R177  R(168,172)              1.5253                                         !
 ! R178  R(172,173)              1.0916                                         !
 ! R179  R(172,174)              1.0969                                         !
 ! R180  R(172,175)              1.5433                                         !
 ! R181  R(175,176)              1.0949                                         !
 ! R182  R(175,177)              1.0928                                         !
 ! R183  R(175,178)              1.469                                          !
 ! R184  R(178,179)              1.0206                                         !
 ! R185  R(178,186)              1.3317                                         !
 ! R186  R(180,181)              1.0111                                         !
 ! R187  R(180,182)              1.0247                                         !
 ! R188  R(180,186)              1.3535                                         !
 ! R189  R(183,184)              1.0271                                         !
 ! R190  R(183,185)              1.0174                                         !
 ! R191  R(183,186)              1.3404                                         !
 ! A1    A(2,1,3)              108.3395                                         !
 ! A2    A(2,1,4)              108.7152                                         !
 ! A3    A(2,1,5)              112.9061                                         !
 ! A4    A(3,1,4)              111.4729                                         !
 ! A5    A(3,1,5)              101.4642                                         !
 ! A6    A(4,1,5)              113.701                                          !
 ! A7    A(1,5,6)              109.397                                          !
 ! A8    A(1,5,7)              102.3817                                         !
 ! A9    A(1,5,8)              109.3152                                         !
 ! A10   A(6,5,7)              113.0283                                         !
 ! A11   A(6,5,8)              111.3923                                         !
 ! A12   A(7,5,8)              110.9101                                         !
 ! A13   A(5,7,11)             116.8934                                         !
 ! A14   A(5,7,15)             115.7922                                         !
 ! A15   A(11,7,15)            127.2497                                         !
 ! A16   A(5,8,9)              109.6608                                         !
 ! A17   A(5,8,10)             110.2386                                         !
 ! A18   A(5,8,12)             109.983                                          !
 ! A19   A(9,8,10)             109.7596                                         !
 ! A20   A(9,8,12)             110.2242                                         !
 ! A21   A(10,8,12)            106.9396                                         !
 ! A22   A(8,12,13)            123.421                                          !
 ! A23   A(8,12,14)            110.8033                                         !
 ! A24   A(13,12,14)           125.6034                                         !
 ! A25   A(12,14,188)          107.2384                                         !
 ! A26   A(7,15,16)            119.2438                                         !
 ! A27   A(7,15,17)            124.6791                                         !
 ! A28   A(16,15,17)           112.2144                                         !
 ! A29   A(15,17,18)           108.0012                                         !
 ! A30   A(15,17,19)           104.7343                                         !
 ! A31   A(15,17,20)           111.9317                                         !
 ! A32   A(18,17,19)           110.677                                          !
 ! A33   A(18,17,20)           109.6759                                         !
 ! A34   A(19,17,20)           111.6817                                         !
 ! A35   A(17,19,23)           119.4625                                         !
 ! A36   A(17,19,36)           116.4031                                         !
 ! A37   A(23,19,36)           124.1165                                         !
 ! A38   A(17,20,21)           108.3381                                         !
 ! A39   A(17,20,22)           107.2503                                         !
 ! A40   A(17,20,24)           111.136                                          !
 ! A41   A(21,20,22)           107.5849                                         !
 ! A42   A(21,20,24)           110.5959                                         !
 ! A43   A(22,20,24)           111.7702                                         !
 ! A44   A(20,24,25)           120.827                                          !
 ! A45   A(20,24,27)           120.5871                                         !
 ! A46   A(25,24,27)           118.3212                                         !
 ! A47   A(24,25,26)           119.4936                                         !
 ! A48   A(24,25,29)           121.3112                                         !
 ! A49   A(26,25,29)           119.1908                                         !
 ! A50   A(24,27,28)           119.894                                          !
 ! A51   A(24,27,31)           121.0552                                         !
 ! A52   A(28,27,31)           119.0506                                         !
 ! A53   A(25,29,30)           121.3068                                         !
 ! A54   A(25,29,35)           119.5929                                         !
 ! A55   A(30,29,35)           119.0974                                         !
 ! A56   A(27,31,32)           120.1881                                         !
 ! A57   A(27,31,35)           119.745                                          !
 ! A58   A(32,31,35)           120.0666                                         !
 ! A59   A(34,33,35)           109.6261                                         !
 ! A60   A(29,35,31)           119.9607                                         !
 ! A61   A(29,35,33)           117.2718                                         !
 ! A62   A(31,35,33)           122.7666                                         !
 ! A63   A(19,36,37)           121.7223                                         !
 ! A64   A(19,36,38)           123.278                                          !
 ! A65   A(37,36,38)           114.4067                                         !
 ! A66   A(36,38,39)           108.5372                                         !
 ! A67   A(36,38,40)           106.2969                                         !
 ! A68   A(36,38,41)           110.7659                                         !
 ! A69   A(39,38,40)           111.5114                                         !
 ! A70   A(39,38,41)           109.6029                                         !
 ! A71   A(40,38,41)           110.0796                                         !
 ! A72   A(38,40,44)           120.0616                                         !
 ! A73   A(38,40,57)           115.1871                                         !
 ! A74   A(44,40,57)           124.7069                                         !
 ! A75   A(38,41,42)           107.4519                                         !
 ! A76   A(38,41,43)           107.4081                                         !
 ! A77   A(38,41,45)           111.7749                                         !
 ! A78   A(42,41,43)           107.3215                                         !
 ! A79   A(42,41,45)           110.5363                                         !
 ! A80   A(43,41,45)           112.1129                                         !
 ! A81   A(41,45,46)           120.6293                                         !
 ! A82   A(41,45,48)           121.0138                                         !
 ! A83   A(46,45,48)           118.1307                                         !
 ! A84   A(45,46,47)           119.274                                          !
 ! A85   A(45,46,50)           121.4032                                         !
 ! A86   A(47,46,50)           119.3149                                         !
 ! A87   A(45,48,49)           119.7207                                         !
 ! A88   A(45,48,52)           121.1711                                         !
 ! A89   A(49,48,52)           119.105                                          !
 ! A90   A(46,50,51)           121.3496                                         !
 ! A91   A(46,50,56)           119.5653                                         !
 ! A92   A(51,50,56)           119.0755                                         !
 ! A93   A(48,52,53)           120.1768                                         !
 ! A94   A(48,52,56)           119.7456                                         !
 ! A95   A(53,52,56)           120.0678                                         !
 ! A96   A(55,54,56)           109.1638                                         !
 ! A97   A(50,56,52)           119.9552                                         !
 ! A98   A(50,56,54)           117.306                                          !
 ! A99   A(52,56,54)           122.737                                          !
 ! A100  A(40,57,58)           120.3572                                         !
 ! A101  A(40,57,59)           122.3122                                         !
 ! A102  A(58,57,59)           113.6533                                         !
 ! A103  A(57,59,60)           108.2831                                         !
 ! A104  A(57,59,61)           106.0624                                         !
 ! A105  A(57,59,62)           112.046                                          !
 ! A106  A(60,59,61)           110.3566                                         !
 ! A107  A(60,59,62)           108.6984                                         !
 ! A108  A(61,59,62)           111.341                                          !
 ! A109  A(59,61,65)           119.8992                                         !
 ! A110  A(59,61,77)           116.2342                                         !
 ! A111  A(65,61,77)           123.8642                                         !
 ! A112  A(59,62,63)           107.2265                                         !
 ! A113  A(59,62,64)           108.2631                                         !
 ! A114  A(59,62,66)           111.0919                                         !
 ! A115  A(63,62,64)           108.0753                                         !
 ! A116  A(63,62,66)           111.4388                                         !
 ! A117  A(64,62,66)           110.6001                                         !
 ! A118  A(62,66,67)           120.7585                                         !
 ! A119  A(62,66,69)           120.1643                                         !
 ! A120  A(67,66,69)           118.7481                                         !
 ! A121  A(66,67,68)           119.4178                                         !
 ! A122  A(66,67,71)           120.7918                                         !
 ! A123  A(68,67,71)           119.7814                                         !
 ! A124  A(66,69,70)           119.4962                                         !
 ! A125  A(66,69,73)           120.605                                          !
 ! A126  A(70,69,73)           119.8962                                         !
 ! A127  A(67,71,72)           119.7816                                         !
 ! A128  A(67,71,75)           120.0887                                         !
 ! A129  A(72,71,75)           120.1188                                         !
 ! A130  A(69,73,74)           119.8664                                         !
 ! A131  A(69,73,75)           120.0552                                         !
 ! A132  A(74,73,75)           120.0783                                         !
 ! A133  A(71,75,73)           119.682                                          !
 ! A134  A(71,75,76)           120.1534                                         !
 ! A135  A(73,75,76)           120.1636                                         !
 ! A136  A(61,77,78)           117.7201                                         !
 ! A137  A(61,77,79)           123.7763                                         !
 ! A138  A(78,77,79)           116.727                                          !
 ! A139  A(77,79,80)           106.4172                                         !
 ! A140  A(77,79,81)           110.4772                                         !
 ! A141  A(77,79,82)           109.3095                                         !
 ! A142  A(80,79,81)           108.7496                                         !
 ! A143  A(80,79,82)           110.3869                                         !
 ! A144  A(81,79,82)           111.3803                                         !
 ! A145  A(79,81,86)           122.3298                                         !
 ! A146  A(79,81,87)           114.225                                          !
 ! A147  A(86,81,87)           123.4419                                         !
 ! A148  A(79,82,83)           110.1057                                         !
 ! A149  A(79,82,84)           110.1364                                         !
 ! A150  A(79,82,85)           110.5874                                         !
 ! A151  A(83,82,84)           108.9062                                         !
 ! A152  A(83,82,85)           107.3953                                         !
 ! A153  A(84,82,85)           109.6526                                         !
 ! A154  A(81,87,88)           118.4254                                         !
 ! A155  A(81,87,89)           121.247                                          !
 ! A156  A(88,87,89)           119.3893                                         !
 ! A157  A(87,89,90)           106.8483                                         !
 ! A158  A(87,89,91)           109.2053                                         !
 ! A159  A(87,89,92)           112.353                                          !
 ! A160  A(90,89,91)           107.9033                                         !
 ! A161  A(90,89,92)           110.0519                                         !
 ! A162  A(91,89,92)           110.3249                                         !
 ! A163  A(89,91,95)           122.2342                                         !
 ! A164  A(89,91,106)          114.5308                                         !
 ! A165  A(95,91,106)          123.2317                                         !
 ! A166  A(89,92,93)           109.1111                                         !
 ! A167  A(89,92,94)           108.1676                                         !
 ! A168  A(89,92,96)           111.2879                                         !
 ! A169  A(93,92,94)           107.5061                                         !
 ! A170  A(93,92,96)           110.1167                                         !
 ! A171  A(94,92,96)           110.5484                                         !
 ! A172  A(92,96,97)           108.1056                                         !
 ! A173  A(92,96,98)           111.9167                                         !
 ! A174  A(92,96,102)          111.9774                                         !
 ! A175  A(97,96,98)           106.5189                                         !
 ! A176  A(97,96,102)          107.1447                                         !
 ! A177  A(98,96,102)          110.8676                                         !
 ! A178  A(96,98,99)           110.7357                                         !
 ! A179  A(96,98,100)          109.188                                          !
 ! A180  A(96,98,101)          112.0855                                         !
 ! A181  A(99,98,100)          109.3076                                         !
 ! A182  A(99,98,101)          107.7177                                         !
 ! A183  A(100,98,101)         107.7239                                         !
 ! A184  A(96,102,103)         110.8934                                         !
 ! A185  A(96,102,104)         109.9341                                         !
 ! A186  A(96,102,105)         111.1499                                         !
 ! A187  A(103,102,104)        108.8323                                         !
 ! A188  A(103,102,105)        107.7864                                         !
 ! A189  A(104,102,105)        108.1573                                         !
 ! A190  A(91,106,107)         116.6669                                         !
 ! A191  A(91,106,108)         122.5096                                         !
 ! A192  A(107,106,108)        119.2816                                         !
 ! A193  A(106,108,109)        107.6807                                         !
 ! A194  A(106,108,110)        107.8051                                         !
 ! A195  A(106,108,111)        110.3704                                         !
 ! A196  A(109,108,110)        108.0659                                         !
 ! A197  A(109,108,111)        110.7483                                         !
 ! A198  A(110,108,111)        112.0132                                         !
 ! A199  A(108,110,115)        121.9716                                         !
 ! A200  A(108,110,116)        113.7678                                         !
 ! A201  A(115,110,116)        124.1869                                         !
 ! A202  A(108,111,112)        110.2803                                         !
 ! A203  A(108,111,113)        110.6499                                         !
 ! A204  A(108,111,114)        110.0939                                         !
 ! A205  A(112,111,113)        107.6768                                         !
 ! A206  A(112,111,114)        108.8519                                         !
 ! A207  A(113,111,114)        109.2315                                         !
 ! A208  A(110,116,117)        117.4196                                         !
 ! A209  A(110,116,118)        123.111                                          !
 ! A210  A(117,116,118)        118.2309                                         !
 ! A211  A(116,118,119)        107.7341                                         !
 ! A212  A(116,118,120)        111.4551                                         !
 ! A213  A(116,118,121)        110.6976                                         !
 ! A214  A(119,118,120)        108.6335                                         !
 ! A215  A(119,118,121)        107.9204                                         !
 ! A216  A(120,118,121)        110.2765                                         !
 ! A217  A(118,120,124)        124.259                                          !
 ! A218  A(118,120,133)        113.3221                                         !
 ! A219  A(124,120,133)        122.405                                          !
 ! A220  A(118,121,122)        106.9236                                         !
 ! A221  A(118,121,123)        109.8868                                         !
 ! A222  A(118,121,125)        114.0882                                         !
 ! A223  A(122,121,123)        104.4592                                         !
 ! A224  A(122,121,125)        110.6497                                         !
 ! A225  A(123,121,125)        110.3467                                         !
 ! A226  A(121,125,126)        132.545                                          !
 ! A227  A(121,125,128)        122.5721                                         !
 ! A228  A(126,125,128)        104.8174                                         !
 ! A229  A(125,126,127)        127.2136                                         !
 ! A230  A(125,126,132)        110.9488                                         !
 ! A231  A(127,126,132)        121.8365                                         !
 ! A232  A(125,128,129)        126.5995                                         !
 ! A233  A(125,128,130)        107.088                                          !
 ! A234  A(129,128,130)        126.013                                          !
 ! A235  A(128,130,131)        122.0948                                         !
 ! A236  A(128,130,132)        112.0949                                         !
 ! A237  A(131,130,132)        125.8072                                         !
 ! A238  A(126,132,130)        105.0464                                         !
 ! A239  A(120,133,134)        115.6294                                         !
 ! A240  A(120,133,135)        120.5226                                         !
 ! A241  A(134,133,135)        116.0369                                         !
 ! A242  A(133,135,136)        107.8726                                         !
 ! A243  A(133,135,137)        102.1743                                         !
 ! A244  A(133,135,138)        112.6031                                         !
 ! A245  A(136,135,137)        107.3737                                         !
 ! A246  A(136,135,138)        107.9704                                         !
 ! A247  A(137,135,138)        118.3086                                         !
 ! A248  A(135,137,140)        119.8705                                         !
 ! A249  A(135,137,147)        115.6204                                         !
 ! A250  A(140,137,147)        123.7215                                         !
 ! A251  A(135,138,139)        109.5556                                         !
 ! A252  A(135,138,141)        111.4031                                         !
 ! A253  A(135,138,145)        110.1007                                         !
 ! A254  A(139,138,141)        109.3039                                         !
 ! A255  A(139,138,145)        105.2753                                         !
 ! A256  A(141,138,145)        111.0127                                         !
 ! A257  A(138,141,142)        111.0783                                         !
 ! A258  A(138,141,143)        110.3867                                         !
 ! A259  A(138,141,144)        109.8375                                         !
 ! A260  A(142,141,143)        108.5777                                         !
 ! A261  A(142,141,144)        108.6922                                         !
 ! A262  A(143,141,144)        108.1978                                         !
 ! A263  A(138,145,146)        108.3224                                         !
 ! A264  A(137,147,148)        116.1559                                         !
 ! A265  A(137,147,149)        120.2398                                         !
 ! A266  A(148,147,149)        110.5795                                         !
 ! A267  A(147,149,150)        106.9262                                         !
 ! A268  A(147,149,151)        103.0818                                         !
 ! A269  A(147,149,152)        112.2001                                         !
 ! A270  A(150,149,151)        111.6745                                         !
 ! A271  A(150,149,152)        110.3966                                         !
 ! A272  A(151,149,152)        112.2536                                         !
 ! A273  A(149,151,154)        117.3708                                         !
 ! A274  A(149,151,163)        115.3239                                         !
 ! A275  A(154,151,163)        127.1183                                         !
 ! A276  A(149,152,153)        106.9199                                         !
 ! A277  A(149,152,155)        110.0019                                         !
 ! A278  A(149,152,159)        110.7461                                         !
 ! A279  A(153,152,155)        108.2315                                         !
 ! A280  A(153,152,159)        109.2041                                         !
 ! A281  A(155,152,159)        111.5889                                         !
 ! A282  A(152,155,156)        110.9197                                         !
 ! A283  A(152,155,157)        111.7653                                         !
 ! A284  A(152,155,158)        110.4135                                         !
 ! A285  A(156,155,157)        108.0139                                         !
 ! A286  A(156,155,158)        107.7365                                         !
 ! A287  A(157,155,158)        107.8401                                         !
 ! A288  A(152,159,160)        110.8072                                         !
 ! A289  A(152,159,161)        110.5274                                         !
 ! A290  A(152,159,162)        111.4351                                         !
 ! A291  A(160,159,161)        107.8309                                         !
 ! A292  A(160,159,162)        107.8402                                         !
 ! A293  A(161,159,162)        108.2693                                         !
 ! A294  A(151,163,164)        120.7728                                         !
 ! A295  A(151,163,165)        131.8251                                         !
 ! A296  A(164,163,165)        106.5893                                         !
 ! A297  A(163,165,166)        109.145                                          !
 ! A298  A(163,165,167)        104.3676                                         !
 ! A299  A(163,165,168)        115.4945                                         !
 ! A300  A(166,165,167)        107.6856                                         !
 ! A301  A(166,165,168)        110.3782                                         !
 ! A302  A(167,165,168)        109.3614                                         !
 ! A303  A(165,167,171)        115.2778                                         !
 ! A304  A(165,167,187)        114.6951                                         !
 ! A305  A(171,167,187)        129.9869                                         !
 ! A306  A(165,168,169)        107.649                                          !
 ! A307  A(165,168,170)        105.1337                                         !
 ! A308  A(165,168,172)        117.992                                          !
 ! A309  A(169,168,170)        107.1272                                         !
 ! A310  A(169,168,172)        108.5724                                         !
 ! A311  A(170,168,172)        109.8517                                         !
 ! A312  A(168,172,173)        110.1192                                         !
 ! A313  A(168,172,174)        110.1227                                         !
 ! A314  A(168,172,175)        111.1998                                         !
 ! A315  A(173,172,174)        106.6649                                         !
 ! A316  A(173,172,175)        110.952                                          !
 ! A317  A(174,172,175)        107.6509                                         !
 ! A318  A(172,175,176)        110.8564                                         !
 ! A319  A(172,175,177)        110.0851                                         !
 ! A320  A(172,175,178)        115.0144                                         !
 ! A321  A(176,175,177)        107.5783                                         !
 ! A322  A(176,175,178)        108.272                                          !
 ! A323  A(177,175,178)        104.626                                          !
 ! A324  A(175,178,179)        118.9153                                         !
 ! A325  A(175,178,186)        126.1221                                         !
 ! A326  A(179,178,186)        114.6639                                         !
 ! A327  A(181,180,182)        113.838                                          !
 ! A328  A(181,180,186)        115.4359                                         !
 ! A329  A(182,180,186)        118.8011                                         !
 ! A330  A(184,183,185)        116.4584                                         !
 ! A331  A(184,183,186)        117.9837                                         !
 ! A332  A(185,183,186)        116.2354                                         !
 ! A333  A(178,186,180)        120.4275                                         !
 ! A334  A(178,186,183)        119.5457                                         !
 ! A335  A(180,186,183)        119.9286                                         !
 ! D1    D(2,1,5,6)             26.1285                                         !
 ! D2    D(2,1,5,7)            -93.9971                                         !
 ! D3    D(2,1,5,8)            148.3485                                         !
 ! D4    D(3,1,5,6)            141.8648                                         !
 ! D5    D(3,1,5,7)             21.7392                                         !
 ! D6    D(3,1,5,8)            -95.9153                                         !
 ! D7    D(4,1,5,6)            -98.337                                          !
 ! D8    D(4,1,5,7)            141.5374                                         !
 ! D9    D(4,1,5,8)             23.8829                                         !
 ! D10   D(1,5,7,11)           -23.0267                                         !
 ! D11   D(1,5,7,15)           159.6836                                         !
 ! D12   D(6,5,7,11)          -140.593                                          !
 ! D13   D(6,5,7,15)            42.1173                                         !
 ! D14   D(8,5,7,11)            93.4855                                         !
 ! D15   D(8,5,7,15)           -83.8042                                         !
 ! D16   D(1,5,8,9)            -76.5909                                         !
 ! D17   D(1,5,8,10)            44.3633                                         !
 ! D18   D(1,5,8,12)           162.0411                                         !
 ! D19   D(6,5,8,9)             44.4239                                         !
 ! D20   D(6,5,8,10)           165.3782                                         !
 ! D21   D(6,5,8,12)           -76.944                                          !
 ! D22   D(7,5,8,9)            171.2524                                         !
 ! D23   D(7,5,8,10)           -67.7934                                         !
 ! D24   D(7,5,8,12)            49.8845                                         !
 ! D25   D(5,7,15,16)            1.1297                                         !
 ! D26   D(5,7,15,17)          157.2334                                         !
 ! D27   D(11,7,15,16)        -175.8334                                         !
 ! D28   D(11,7,15,17)         -19.7297                                         !
 ! D29   D(5,8,12,13)         -114.9671                                         !
 ! D30   D(5,8,12,14)           60.4973                                         !
 ! D31   D(9,8,12,13)          124.0026                                         !
 ! D32   D(9,8,12,14)          -60.5331                                         !
 ! D33   D(10,8,12,13)           4.7384                                         !
 ! D34   D(10,8,12,14)        -179.7973                                         !
 ! D35   D(8,12,14,188)       -158.6394                                         !
 ! D36   D(13,12,14,188)        16.7042                                         !
 ! D37   D(7,15,17,18)          -9.8376                                         !
 ! D38   D(7,15,17,19)        -127.8299                                         !
 ! D39   D(7,15,17,20)         110.9918                                         !
 ! D40   D(16,15,17,18)        147.7176                                         !
 ! D41   D(16,15,17,19)         29.7253                                         !
 ! D42   D(16,15,17,20)        -91.4529                                         !
 ! D43   D(15,17,19,23)        -27.808                                          !
 ! D44   D(15,17,19,36)        153.6705                                         !
 ! D45   D(18,17,19,23)       -143.9628                                         !
 ! D46   D(18,17,19,36)         37.5157                                         !
 ! D47   D(20,17,19,23)         93.5351                                         !
 ! D48   D(20,17,19,36)        -84.9864                                         !
 ! D49   D(15,17,20,21)         54.3315                                         !
 ! D50   D(15,17,20,22)        -61.5298                                         !
 ! D51   D(15,17,20,24)        176.0309                                         !
 ! D52   D(18,17,20,21)        174.1847                                         !
 ! D53   D(18,17,20,22)         58.3234                                         !
 ! D54   D(18,17,20,24)        -64.1159                                         !
 ! D55   D(19,17,20,21)        -62.7421                                         !
 ! D56   D(19,17,20,22)       -178.6034                                         !
 ! D57   D(19,17,20,24)         58.9573                                         !
 ! D58   D(17,19,36,37)          4.5538                                         !
 ! D59   D(17,19,36,38)        175.2264                                         !
 ! D60   D(23,19,36,37)       -173.8913                                         !
 ! D61   D(23,19,36,38)         -3.2186                                         !
 ! D62   D(17,20,24,25)       -101.9685                                         !
 ! D63   D(17,20,24,27)         72.0226                                         !
 ! D64   D(21,20,24,25)         18.4045                                         !
 ! D65   D(21,20,24,27)       -167.6044                                         !
 ! D66   D(22,20,24,25)        138.2468                                         !
 ! D67   D(22,20,24,27)        -47.7622                                         !
 ! D68   D(20,24,25,26)         -5.5898                                         !
 ! D69   D(20,24,25,29)        173.6484                                         !
 ! D70   D(27,24,25,26)       -179.7141                                         !
 ! D71   D(27,24,25,29)         -0.4759                                         !
 ! D72   D(20,24,27,28)          6.5819                                         !
 ! D73   D(20,24,27,31)       -173.2528                                         !
 ! D74   D(25,24,27,28)       -179.2792                                         !
 ! D75   D(25,24,27,31)          0.8861                                         !
 ! D76   D(24,25,29,30)       -179.9589                                         !
 ! D77   D(24,25,29,35)         -0.5814                                         !
 ! D78   D(26,25,29,30)         -0.7184                                         !
 ! D79   D(26,25,29,35)        178.659                                          !
 ! D80   D(24,27,31,32)        179.5538                                         !
 ! D81   D(24,27,31,35)         -0.2348                                         !
 ! D82   D(28,27,31,32)         -0.2824                                         !
 ! D83   D(28,27,31,35)        179.9291                                         !
 ! D84   D(25,29,35,31)          1.2445                                         !
 ! D85   D(25,29,35,33)       -179.0908                                         !
 ! D86   D(30,29,35,31)       -179.3642                                         !
 ! D87   D(30,29,35,33)          0.3004                                         !
 ! D88   D(27,31,35,29)         -0.8433                                         !
 ! D89   D(27,31,35,33)        179.5112                                         !
 ! D90   D(32,31,35,29)        179.3679                                         !
 ! D91   D(32,31,35,33)         -0.2776                                         !
 ! D92   D(34,33,35,29)        175.8769                                         !
 ! D93   D(34,33,35,31)         -4.4686                                         !
 ! D94   D(19,36,38,39)        -30.8449                                         !
 ! D95   D(19,36,38,40)       -150.9096                                         !
 ! D96   D(19,36,38,41)         89.5256                                         !
 ! D97   D(37,36,38,39)        140.4475                                         !
 ! D98   D(37,36,38,40)         20.3829                                         !
 ! D99   D(37,36,38,41)        -99.182                                          !
 ! D100  D(36,38,40,44)        -34.4145                                         !
 ! D101  D(36,38,40,57)        147.8972                                         !
 ! D102  D(39,38,40,44)       -152.5306                                         !
 ! D103  D(39,38,40,57)         29.7811                                         !
 ! D104  D(41,38,40,44)         85.5968                                         !
 ! D105  D(41,38,40,57)        -92.0915                                         !
 ! D106  D(36,38,41,42)         53.8165                                         !
 ! D107  D(36,38,41,43)        -61.3752                                         !
 ! D108  D(36,38,41,45)        175.2537                                         !
 ! D109  D(39,38,41,42)        173.5503                                         !
 ! D110  D(39,38,41,43)         58.3586                                         !
 ! D111  D(39,38,41,45)        -65.0125                                         !
 ! D112  D(40,38,41,42)        -63.4508                                         !
 ! D113  D(40,38,41,43)       -178.6425                                         !
 ! D114  D(40,38,41,45)         57.9864                                         !
 ! D115  D(38,40,57,58)          6.0653                                         !
 ! D116  D(38,40,57,59)        163.0754                                         !
 ! D117  D(44,40,57,58)       -171.5009                                         !
 ! D118  D(44,40,57,59)        -14.4908                                         !
 ! D119  D(38,41,45,46)        -97.7544                                         !
 ! D120  D(38,41,45,48)         76.6798                                         !
 ! D121  D(42,41,45,46)         21.8828                                         !
 ! D122  D(42,41,45,48)       -163.683                                          !
 ! D123  D(43,41,45,46)        141.5784                                         !
 ! D124  D(43,41,45,48)        -43.9874                                         !
 ! D125  D(41,45,46,47)         -5.1911                                         !
 ! D126  D(41,45,46,50)        173.773                                          !
 ! D127  D(48,45,46,47)       -179.7825                                         !
 ! D128  D(48,45,46,50)         -0.8184                                         !
 ! D129  D(41,45,48,49)          5.8872                                         !
 ! D130  D(41,45,48,52)       -173.4569                                         !
 ! D131  D(46,45,48,49)       -179.5432                                         !
 ! D132  D(46,45,48,52)          1.1127                                         !
 ! D133  D(45,46,50,51)       -179.492                                          !
 ! D134  D(45,46,50,56)         -0.6264                                         !
 ! D135  D(47,46,50,51)         -0.5283                                         !
 ! D136  D(47,46,50,56)        178.3373                                         !
 ! D137  D(45,48,52,53)        178.9013                                         !
 ! D138  D(45,48,52,56)          0.0395                                         !
 ! D139  D(49,48,52,53)         -0.4468                                         !
 ! D140  D(49,48,52,56)       -179.3086                                         !
 ! D141  D(46,50,56,52)          1.8008                                         !
 ! D142  D(46,50,56,54)       -177.7174                                         !
 ! D143  D(51,50,56,52)       -179.3077                                         !
 ! D144  D(51,50,56,54)          1.1741                                         !
 ! D145  D(48,52,56,50)         -1.5141                                         !
 ! D146  D(48,52,56,54)        177.9769                                         !
 ! D147  D(53,52,56,50)        179.6228                                         !
 ! D148  D(53,52,56,54)         -0.8861                                         !
 ! D149  D(55,54,56,50)        177.7057                                         !
 ! D150  D(55,54,56,52)         -1.7981                                         !
 ! D151  D(40,57,59,60)        -24.872                                          !
 ! D152  D(40,57,59,61)       -143.3204                                         !
 ! D153  D(40,57,59,62)         94.9997                                         !
 ! D154  D(58,57,59,60)        133.5402                                         !
 ! D155  D(58,57,59,61)         15.0918                                         !
 ! D156  D(58,57,59,62)       -106.5881                                         !
 ! D157  D(57,59,61,65)        -25.8823                                         !
 ! D158  D(57,59,61,77)        154.6622                                         !
 ! D159  D(60,59,61,65)       -142.9493                                         !
 ! D160  D(60,59,61,77)         37.5951                                         !
 ! D161  D(62,59,61,65)         96.2481                                         !
 ! D162  D(62,59,61,77)        -83.2075                                         !
 ! D163  D(57,59,62,63)        -61.1659                                         !
 ! D164  D(57,59,62,64)         55.2184                                         !
 ! D165  D(57,59,62,66)        176.846                                          !
 ! D166  D(60,59,62,63)         58.4629                                         !
 ! D167  D(60,59,62,64)        174.8472                                         !
 ! D168  D(60,59,62,66)        -63.5252                                         !
 ! D169  D(61,59,62,63)       -179.7668                                         !
 ! D170  D(61,59,62,64)        -63.3825                                         !
 ! D171  D(61,59,62,66)         58.2451                                         !
 ! D172  D(59,61,77,78)         11.3918                                         !
 ! D173  D(59,61,77,79)        175.6855                                         !
 ! D174  D(65,61,77,78)       -168.0399                                         !
 ! D175  D(65,61,77,79)         -3.7462                                         !
 ! D176  D(59,62,66,67)       -105.7721                                         !
 ! D177  D(59,62,66,69)         67.5583                                         !
 ! D178  D(63,62,66,67)        134.725                                          !
 ! D179  D(63,62,66,69)        -51.9446                                         !
 ! D180  D(64,62,66,67)         14.48                                           !
 ! D181  D(64,62,66,69)       -172.1896                                         !
 ! D182  D(62,66,67,68)         -6.977                                          !
 ! D183  D(62,66,67,71)        171.9312                                         !
 ! D184  D(69,66,67,68)        179.5997                                         !
 ! D185  D(69,66,67,71)         -1.4921                                         !
 ! D186  D(62,66,69,70)          7.6149                                         !
 ! D187  D(62,66,69,73)       -171.794                                          !
 ! D188  D(67,66,69,70)       -178.9216                                         !
 ! D189  D(67,66,69,73)          1.6694                                         !
 ! D190  D(66,67,71,72)       -178.7464                                         !
 ! D191  D(66,67,71,75)          0.0584                                         !
 ! D192  D(68,67,71,72)          0.1578                                         !
 ! D193  D(68,67,71,75)        178.9627                                         !
 ! D194  D(66,69,73,74)        179.6847                                         !
 ! D195  D(66,69,73,75)         -0.4165                                         !
 ! D196  D(70,69,73,74)          0.278                                          !
 ! D197  D(70,69,73,75)       -179.8231                                         !
 ! D198  D(67,71,75,73)          1.2195                                         !
 ! D199  D(67,71,75,76)       -179.145                                          !
 ! D200  D(72,71,75,73)       -179.9797                                         !
 ! D201  D(72,71,75,76)         -0.3442                                         !
 ! D202  D(69,73,75,71)         -1.0402                                         !
 ! D203  D(69,73,75,76)        179.3243                                         !
 ! D204  D(74,73,75,71)        178.8585                                         !
 ! D205  D(74,73,75,76)         -0.777                                          !
 ! D206  D(61,77,79,80)         41.5857                                         !
 ! D207  D(61,77,79,81)        -76.3011                                         !
 ! D208  D(61,77,79,82)        160.7981                                         !
 ! D209  D(78,77,79,80)       -153.9776                                         !
 ! D210  D(78,77,79,81)         88.1356                                         !
 ! D211  D(78,77,79,82)        -34.7652                                         !
 ! D212  D(77,79,81,86)       -112.8683                                         !
 ! D213  D(77,79,81,87)         66.4941                                         !
 ! D214  D(80,79,81,86)        130.6852                                         !
 ! D215  D(80,79,81,87)        -49.9524                                         !
 ! D216  D(82,79,81,86)          8.8174                                         !
 ! D217  D(82,79,81,87)       -171.8202                                         !
 ! D218  D(77,79,82,83)       -179.161                                          !
 ! D219  D(77,79,82,84)        -59.0462                                         !
 ! D220  D(77,79,82,85)         62.3114                                         !
 ! D221  D(80,79,82,83)        -62.4363                                         !
 ! D222  D(80,79,82,84)         57.6784                                         !
 ! D223  D(80,79,82,85)        179.036                                          !
 ! D224  D(81,79,82,83)         58.4777                                         !
 ! D225  D(81,79,82,84)        178.5924                                         !
 ! D226  D(81,79,82,85)        -60.05                                           !
 ! D227  D(79,81,87,88)         -1.9695                                         !
 ! D228  D(79,81,87,89)       -170.8157                                         !
 ! D229  D(86,81,87,88)        177.3848                                         !
 ! D230  D(86,81,87,89)          8.5386                                         !
 ! D231  D(81,87,89,90)         33.1755                                         !
 ! D232  D(81,87,89,91)        -83.2875                                         !
 ! D233  D(81,87,89,92)        153.965                                          !
 ! D234  D(88,87,89,90)       -135.5652                                         !
 ! D235  D(88,87,89,91)        107.9718                                         !
 ! D236  D(88,87,89,92)        -14.7757                                         !
 ! D237  D(87,89,91,95)        -94.9396                                         !
 ! D238  D(87,89,91,106)        85.6969                                         !
 ! D239  D(90,89,91,95)        149.2705                                         !
 ! D240  D(90,89,91,106)       -30.093                                          !
 ! D241  D(92,89,91,95)         29.0119                                         !
 ! D242  D(92,89,91,106)      -150.3516                                         !
 ! D243  D(87,89,92,93)        -41.3167                                         !
 ! D244  D(87,89,92,94)         75.3475                                         !
 ! D245  D(87,89,92,96)       -163.0294                                         !
 ! D246  D(90,89,92,93)         77.6106                                         !
 ! D247  D(90,89,92,94)       -165.7251                                         !
 ! D248  D(90,89,92,96)        -44.102                                          !
 ! D249  D(91,89,92,93)       -163.4311                                         !
 ! D250  D(91,89,92,94)        -46.7668                                         !
 ! D251  D(91,89,92,96)         74.8563                                         !
 ! D252  D(89,91,106,107)      -13.4959                                         !
 ! D253  D(89,91,106,108)     -179.2133                                         !
 ! D254  D(95,91,106,107)      167.1478                                         !
 ! D255  D(95,91,106,108)        1.4304                                         !
 ! D256  D(89,92,96,97)        -36.5956                                         !
 ! D257  D(89,92,96,98)         80.4047                                         !
 ! D258  D(89,92,96,102)      -154.3963                                         !
 ! D259  D(93,92,96,97)       -157.7216                                         !
 ! D260  D(93,92,96,98)        -40.7213                                         !
 ! D261  D(93,92,96,102)        84.4777                                         !
 ! D262  D(94,92,96,97)         83.6311                                         !
 ! D263  D(94,92,96,98)       -159.3685                                         !
 ! D264  D(94,92,96,102)       -34.1695                                         !
 ! D265  D(92,96,98,99)         65.3108                                         !
 ! D266  D(92,96,98,100)      -174.2859                                         !
 ! D267  D(92,96,98,101)       -55.0065                                         !
 ! D268  D(97,96,98,99)       -176.7378                                         !
 ! D269  D(97,96,98,100)       -56.3345                                         !
 ! D270  D(97,96,98,101)        62.945                                          !
 ! D271  D(102,96,98,99)       -60.4986                                         !
 ! D272  D(102,96,98,100)       59.9047                                         !
 ! D273  D(102,96,98,101)      179.1841                                         !
 ! D274  D(92,96,102,103)      -64.6308                                         !
 ! D275  D(92,96,102,104)      174.9726                                         !
 ! D276  D(92,96,102,105)       55.2544                                         !
 ! D277  D(97,96,102,103)      176.9964                                         !
 ! D278  D(97,96,102,104)       56.5999                                         !
 ! D279  D(97,96,102,105)      -63.1183                                         !
 ! D280  D(98,96,102,103)       61.1446                                         !
 ! D281  D(98,96,102,104)      -59.2519                                         !
 ! D282  D(98,96,102,105)     -178.9701                                         !
 ! D283  D(91,106,108,109)      36.6141                                         !
 ! D284  D(91,106,108,110)     -79.7604                                         !
[...]
 Alpha virt. eigenvalues --    2.88568   2.89693   2.91199   2.91686   2.92406
 Alpha virt. eigenvalues --    2.92632   2.92998   2.93111   2.94317   2.94600
 Alpha virt. eigenvalues --    2.94863   2.95222   2.96299   2.97557   2.97726
 Alpha virt. eigenvalues --    2.98079   2.98543   2.98867   2.99854   3.00729
 Alpha virt. eigenvalues --    3.00855   3.01270   3.01838   3.02067   3.03396
 Alpha virt. eigenvalues --    3.04142   3.04501   3.04793   3.05652   3.05917
 Alpha virt. eigenvalues --    3.06987   3.07963   3.09356   3.11511   3.12303
 Alpha virt. eigenvalues --    3.13202   3.13521   3.15157   3.15463   3.16097
 Alpha virt. eigenvalues --    3.22853   3.34867   3.36051   3.36471   3.61710
 Alpha virt. eigenvalues --    3.83001   3.84630   3.90203   3.90349   3.91614
 Alpha virt. eigenvalues --    3.93899   3.94081   3.94720   3.95461   3.95969
 Alpha virt. eigenvalues --    3.96723   3.97414   3.97614   3.98235   4.00465
 Alpha virt. eigenvalues --    4.00888   4.01604   4.02685   4.03662   4.04594
 Alpha virt. eigenvalues --    4.05675   4.06250   4.06654   4.07463   4.08231
 Alpha virt. eigenvalues --    4.09543   4.10897   4.11505   4.12957   4.13896
 Alpha virt. eigenvalues --    4.14430   4.14853   4.15641   4.16061   4.16594
 Alpha virt. eigenvalues --    4.16854   4.17110   4.17447   4.19101   4.20060
 Alpha virt. eigenvalues --    4.20348   4.20643   4.20893   4.21940   4.23626
 Alpha virt. eigenvalues --    4.24537   4.25085   4.25401   4.26116   4.26217
 Alpha virt. eigenvalues --    4.27879   4.28211   4.29279   4.30184   4.30464
 Alpha virt. eigenvalues --    4.30703   4.31116   4.31350   4.32027   4.33011
 Alpha virt. eigenvalues --    4.34518   4.35954   4.36581   4.37608   4.38239
 Alpha virt. eigenvalues --    4.39397   4.39822   4.40429   4.40860   4.41671
 Alpha virt. eigenvalues --    4.42323   4.42570   4.43979   4.44617   4.46886
 Alpha virt. eigenvalues --    4.48196   4.49263   4.50769   4.52351   4.54086
 Alpha virt. eigenvalues --    4.55063   4.57346   4.58079   4.59085   4.61550
 Alpha virt. eigenvalues --    4.61581   4.63675   4.63943   4.64872   4.66841
 Alpha virt. eigenvalues --    4.68877   4.69524   4.69717   4.71610   4.72204
 Alpha virt. eigenvalues --    4.72837
          Condensed to atoms (all electrons):
 Mulliken charges:
               1
     1  N   -0.751244
     2  H    0.422815
     3  H    0.434497
     4  H    0.420130
     5  C   -0.118514
     6  H    0.234047
     7  C    0.628725
     8  C   -0.362473
     9  H    0.215981
    10  H    0.208657
    11  O   -0.530553
    12  C    0.578112
    13  O   -0.419370
    14  O   -0.584602
    15  N   -0.584798
    16  H    0.376128
    17  C   -0.075672
    18  H    0.199765
    19  C    0.656601
    20  C   -0.347541
    21  H    0.166418
    22  H    0.173588
    23  O   -0.607703
    24  C    0.145228
    25  C   -0.188668
    26  H    0.141524
    27  C   -0.215569
    28  H    0.135533
    29  C   -0.161080
    30  H    0.160876
    31  C   -0.168997
    32  H    0.138451
    33  O   -0.634392
    34  H    0.418355
    35  C    0.377368
    36  N   -0.587645
    37  H    0.374897
    38  C   -0.051603
    39  H    0.179710
    40  C    0.627798
    41  C   -0.353931
    42  H    0.163945
    43  H    0.173106
    44  O   -0.559947
    45  C    0.151946
    46  C   -0.191448
    47  H    0.139224
    48  C   -0.206111
    49  H    0.131516
    50  C   -0.168086
    51  H    0.148044
    52  C   -0.168270
    53  H    0.136260
    54  O   -0.645543
    55  H    0.417386
    56  C    0.371903
    57  N   -0.604244
    58  H    0.367259
    59  C   -0.046440
    60  H    0.176192
    61  C    0.644324
    62  C   -0.374458
    63  H    0.209804
    64  H    0.158319
    65  O   -0.577776
    66  C    0.144962
    67  C   -0.188962
    68  H    0.158352
    69  C   -0.220781
    70  H    0.129883
    71  C   -0.121435
    72  H    0.152261
    73  C   -0.132198
    74  H    0.140133
    75  C   -0.132576
    76  H    0.144788
    77  N   -0.594907
    78  H    0.354743
    79  C   -0.080223
    80  H    0.201718
    81  C    0.638133
    82  C   -0.463608
    83  H    0.175580
    84  H    0.155076
    85  H    0.170139
    86  O   -0.553059
    87  N   -0.631273
    88  H    0.381370
    89  C   -0.049447
    90  H    0.168158
    91  C    0.639377
    92  C   -0.293244
    93  H    0.123938
    94  H    0.167154
    95  O   -0.550173
    96  C   -0.079191
    97  H    0.144568
    98  C   -0.464074
    99  H    0.115815
   100  H    0.209020
   101  H    0.115032
   102  C   -0.473261
   103  H    0.115391
   104  H    0.205150
   105  H    0.144297
   106  N   -0.611754
   107  H    0.373342
   108  C   -0.056834
   109  H    0.186011
   110  C    0.637654
   111  C   -0.466994
   112  H    0.169834
   113  H    0.168912
   114  H    0.162590
   115  O   -0.589202
   116  N   -0.587297
   117  H    0.405886
   118  C   -0.087175
   119  H    0.184219
   120  C    0.651249
   121  C   -0.445125
   122  H    0.228566
   123  H    0.197287
   124  O   -0.541141
   125  C    0.313602
   126  C   -0.100603
   127  H    0.158817
   128  N   -0.635239
   129  H    0.379512
   130  C    0.198917
   131  H    0.149455
   132  N   -0.436526
   133  N   -0.643271
   134  H    0.372846
   135  C   -0.083979
   136  H    0.192142
   137  C    0.556347
   138  C    0.163823
   139  H    0.098390
   140  O   -0.499018
   141  C   -0.456238
   142  H    0.157395
   143  H    0.165396
   144  H    0.173865
   145  O   -0.669106
   146  H    0.436760
   147  N   -0.582088
   148  H    0.341919
   149  C   -0.055622
   150  H    0.187332
   151  C    0.602381
   152  C   -0.079965
   153  H    0.138964
   154  O   -0.603339
   155  C   -0.461710
   156  H    0.151329
   157  H    0.161349
   158  H    0.155069
   159  C   -0.448448
   160  H    0.151602
   161  H    0.151201
   162  H    0.152649
   163  N   -0.615722
   164  H    0.371631
   165  C   -0.055352
   166  H    0.160591
   167  C    0.606701
   168  C   -0.276015
   169  H    0.103663
   170  H    0.185561
   171  O   -0.582776
   172  C   -0.309420
   173  H    0.177705
   174  H    0.152258
   175  C   -0.149062
   176  H    0.177801
   177  H    0.169110
   178  N   -0.608202
   179  H    0.403879
   180  N   -0.790697
   181  H    0.355197
   182  H    0.427822
   183  N   -0.789463
   184  H    0.396952
   185  H    0.382084
   186  C    0.721399
   187  O   -0.602101
   188  H    0.466142
 Sum of Mulliken charges =   1.00000
 Mulliken charges with hydrogens summed into heavy atoms:
               1
     1  N    0.526197
     5  C    0.115533
     7  C    0.628725
     8  C    0.062164
    11  O   -0.530553
    12  C    0.578112
    13  O   -0.419370
    14  O   -0.118461
    15  N   -0.208670
    17  C    0.124093
    19  C    0.656601
    20  C   -0.007536
    23  O   -0.607703
    24  C    0.145228
    25  C   -0.047144
    27  C   -0.080035
    29  C   -0.000203
    31  C   -0.030546
    33  O   -0.216038
    35  C    0.377368
    36  N   -0.212748
    38  C    0.128107
    40  C    0.627798
    41  C   -0.016879
    44  O   -0.559947
    45  C    0.151946
    46  C   -0.052223
    48  C   -0.074595
    50  C   -0.020042
    52  C   -0.032010
    54  O   -0.228157
    56  C    0.371903
    57  N   -0.236985
    59  C    0.129752
    61  C    0.644324
    62  C   -0.006334
    65  O   -0.577776
    66  C    0.144962
    67  C   -0.030610
    69  C   -0.090898
    71  C    0.030827
    73  C    0.007935
    75  C    0.012212
    77  N   -0.240164
    79  C    0.121495
    81  C    0.638133
    82  C    0.037187
    86  O   -0.553059
    87  N   -0.249903
    89  C    0.118710
    91  C    0.639377
    92  C   -0.002153
    95  O   -0.550173
    96  C    0.065378
    98  C   -0.024207
   102  C   -0.008423
   106  N   -0.238412
   108  C    0.129177
   110  C    0.637654
   111  C    0.034342
   115  O   -0.589202
   116  N   -0.181411
   118  C    0.097044
   120  C    0.651249
   121  C   -0.019272
   124  O   -0.541141
   125  C    0.313602
   126  C    0.058214
   128  N   -0.255727
   130  C    0.348372
   132  N   -0.436526
   133  N   -0.270426
   135  C    0.108163
   137  C    0.556347
   138  C    0.262212
   140  O   -0.499018
   141  C    0.040418
   145  O   -0.232346
   147  N   -0.240168
   149  C    0.131709
   151  C    0.602381
   152  C    0.058999
   154  O   -0.603339
   155  C    0.006036
   159  C    0.007004
   163  N   -0.244091
   165  C    0.105240
   167  C    0.606701
   168  C    0.013209
   171  O   -0.582776
   172  C    0.020543
   175  C    0.197849
   178  N   -0.204323
   180  N   -0.007678
   183  N   -0.010428
   186  C    0.721399
   187  O   -0.602101
 Electronic spatial extent (au):  <R**2>=         179981.7806
 Charge=              1.0000 electrons
 Dipole moment (field-independent basis, Debye):
    X=            -32.8889    Y=            -13.8857    Z=            -26.4444  Tot=             44.4274
 Quadrupole moment (field-independent basis, Debye-Ang):
   XX=            -75.5591   YY=           -335.4857   ZZ=           -372.7044
   XY=            304.0977   XZ=            291.0151   YZ=            156.8634
 Traceless Quadrupole moment (field-independent basis, Debye-Ang):
   XX=            185.6906   YY=            -74.2360   ZZ=           -111.4547
   XY=            304.0977   XZ=            291.0151   YZ=            156.8634
 Octapole moment (field-independent basis, Debye-Ang**2):
  XXX=          -4756.6532  YYY=          -3032.1879  ZZZ=            954.6888  XYY=          -2234.8263
  XXY=          -2749.5147  XXZ=          -1274.7445  XZZ=          -1649.8423  YZZ=          -1550.6838
  YYZ=           -590.6531  XYZ=          -1365.3600
 Hexadecapole moment (field-independent basis, Debye-Ang**3):
 XXXX=         -73986.4174 YYYY=         -29005.8939 ZZZZ=         -63528.8430 XXXY=           8302.8002
 XXXZ=          -2293.8984 YYYX=          -7459.6370 YYYZ=           -877.6586 ZZZX=         -21208.4262
 ZZZY=          -1850.8406 XXYY=          -6371.0788 XXZZ=         -13984.2919 YYZZ=         -10117.8279
 XXYZ=          14819.7570 YYXZ=           1990.7529 ZZXY=           4161.6775
 N-N= 1.970508061069D+04 E-N=-5.020046878267D+04  KE= 4.606249116158D+03
 Unable to Open any file for archive entry.
 1\1\GINC-LAC-316\SP\RB3LYP\6-31G(d)\C64H91N16O17(1+)\KENGMITH\10-Aug-2
 022\0\\# B3LYP/6-31G* empiricaldispersion=gd3bj guess=read geom=check 
 nosymm integral(ultrafinegrid)\\Candidate Structure: Conf:997 Charge c
 alc in gas phase\\1,1\N,0,-10.4836771634,-6.6751125246,-6.4140996625\H
 ,0,-10.9474177062,-7.2242854909,-5.6834094179\H,0,-10.9453320701,-5.71
 96757795,-6.457747281\H,0,-10.569439385,-7.1738445651,-7.3042201664\C,
 0,-9.0601871263,-6.30534228,-6.0588323286\H,0,-8.6585182257,-7.0404568
 856,-5.3612052177\C,0,-9.2299115681,-4.8966903969,-5.426352331\C,0,-8.
 2141068209,-6.2320225224,-7.3491845947\H,0,-7.9758766694,-7.2449356582
 ,-7.6917809476\H,0,-8.760932168,-5.6967368246,-8.130104796\O,0,-10.243
 7956848,-4.2603203627,-5.7407524427\C,0,-6.9296770389,-5.4472563452,-7
 .0874357756\O,0,-6.6780222724,-4.3909772446,-7.6121687761\O,0,-6.19136
 67911,-6.0438269838,-6.1365667001\N,0,-8.2340237917,-4.4889862898,-4.6
 475908524\H,0,-7.4229306129,-5.0924588201,-4.5197607335\C,0,-7.9360757
 314,-3.0891743084,-4.3409632697\H,0,-8.5490977203,-2.4630358143,-4.992
 7387337\C,0,-6.4409109476,-2.9240021393,-4.6766792619\C,0,-8.231490257
 ,-2.7456738258,-2.8587011054\H,0,-7.6861691257,-3.4539030369,-2.225517
 5067\H,0,-9.3023422798,-2.9108415131,-2.6940001013\O,0,-5.6823445419,-
 3.9103649546,-4.598854186\C,0,-7.8282674049,-1.3278461451,-2.538122635
 3\C,0,-6.6383783801,-1.0580854418,-1.8494568515\H,0,-6.0448631262,-1.8
 82840946,-1.4630387919\C,0,-8.5699535511,-0.2479465547,-3.0303518561\H
 ,0,-9.5039511398,-0.4275238517,-3.5587470998\C,0,-6.1913751546,0.24437
 41746,-1.6628081275\H,0,-5.2699730973,0.4530699349,-1.1302952051\C,0,-
 8.1310898093,1.0627567272,-2.8589083364\H,0,-8.714889118,1.890818391,-
 3.2534572884\O,0,-6.44237877,2.5658278976,-1.986839231\H,0,-7.00537891
 26,3.2102900186,-2.4436903469\C,0,-6.9338009463,1.3102477427,-2.180905
 0302\N,0,-6.0416493231,-1.7019126936,-5.0073979032\H,0,-6.673265964,-0
 .9044575999,-4.9715258616\C,0,-4.6505890317,-1.3561736139,-5.253761006
 5\H,0,-4.0183815152,-1.9953625427,-4.6323079379\C,0,-4.5011757434,0.11
 9534051,-4.8751150231\C,0,-4.2882587571,-1.5622757697,-6.7518019468\H,
 0,-5.0147122297,-0.9983960641,-7.3459092678\H,0,-4.4330582154,-2.62320
 34268,-6.9809033657\O,0,-5.4324198284,0.9039203546,-5.0680599202\C,0,-
 2.8850717866,-1.1022545213,-7.0562625127\C,0,-2.652857706,0.165790489,
 -7.6063801333\H,0,-3.4998775663,0.7846840799,-7.8917924016\C,0,-1.7780
 987677,-1.8764563026,-6.6932815682\H,0,-1.9283233009,-2.8675431096,-6.
 2708616133\C,0,-1.3632402514,0.6572118973,-7.7750259519\H,0,-1.1847768
 096,1.6420656256,-8.1933748126\C,0,-0.4796356839,-1.3962757263,-6.8500
 444318\H,0,0.3687350582,-2.0049162639,-6.5458798296\O,0,0.972866018,0.
 4275702473,-7.5202954233\H,0,1.6350708086,-0.1931959835,-7.1772627838\
 C,0,-0.2717903546,-0.1197903196,-7.3775928098\N,0,-3.2976388942,0.4655
 34019,-4.3843252551\H,0,-2.5354006063,-0.2069954839,-4.3713720238\C,0,
 -2.8570095708,1.846508376,-4.3123324616\H,0,-3.3966888881,2.4189652666
 ,-5.0722956326\C,0,-1.3558304316,1.8295707231,-4.623485137\C,0,-3.1388
 281949,2.4766807224,-2.9207023215\H,0,-4.2212179339,2.451061691,-2.766
 7765685\H,0,-2.671980789,1.8453720604,-2.1571582525\O,0,-0.6899962679,
 0.8090089851,-4.3989627226\C,0,-2.6043018992,3.8850172037,-2.844299028
 5\C,0,-1.4474593366,4.1723336464,-2.112531886\H,0,-0.9956151308,3.3962
 679767,-1.5034101423\C,0,-3.1813181193,4.9007833465,-3.6201052291\H,0,
 -4.0914420473,4.6956278384,-4.1803482741\C,0,-0.8582438335,5.434453453
 7,-2.1752864638\H,0,0.0505053015,5.6333684056,-1.6167387509\C,0,-2.591
 9928498,6.1649111369,-3.6883997099\H,0,-3.0464441561,6.9415203944,-4.2
 972479112\C,0,-1.4217791867,6.43074805,-2.9736126771\H,0,-0.9560794116
 ,7.4095719284,-3.0340852472\N,0,-0.8398639326,2.965769921,-5.126697477
 3\H,0,-1.4185099791,3.7980512729,-5.1019271899\C,0,0.5900101717,3.1632
 259974,-5.3980506279\H,0,0.9514768987,2.2320692612,-5.8447776647\C,0,1
 .3596699525,3.4144471766,-4.0832806904\C,0,0.7623563452,4.3199156099,-
 6.3713634651\H,0,1.8210487923,4.4686589874,-6.5939389097\H,0,0.2302057
 054,4.1099625883,-7.3038061937\H,0,0.3860520185,5.2501205005,-5.934185
 3124\O,0,1.8861331385,4.5000961176,-3.8237956045\N,0,1.391122418,2.352
 8782261,-3.2476601296\H,0,0.8967753041,1.5061126203,-3.5211634804\C,0,
 1.9008173944,2.4762172894,-1.8864413489\H,0,1.6470955882,3.4840863966,
 -1.5427522614\C,0,3.4356831054,2.3556710883,-1.9074449421\C,0,1.299808
 0193,1.4350582282,-0.944660465\H,0,0.2274735243,1.331796835,-1.1599055
 574\H,0,1.7724531338,0.4704918287,-1.1559006335\O,0,4.0151011438,1.284
 2225847,-1.7040886981\C,0,1.5091158482,1.8288511681,0.5328410865\H,0,2
 .4947214048,2.3050004197,0.6228340531\C,0,0.4804739846,2.8645727254,1.
 0000991426\H,0,-0.5322125172,2.4378111829,0.9929913649\H,0,0.729748345
 9,3.1860820177,2.0136703275\H,0,0.4718846255,3.7564383371,0.3589850257
 \C,0,1.5117703392,0.6075251902,1.4566056072\H,0,0.5309449488,0.1126720
 846,1.4546462658\H,0,1.750768299,0.9139955248,2.4796013363\H,0,2.25917
 74511,-0.1288087921,1.1369554649\N,0,4.0871567945,3.51639181,-2.151968
 2068\H,0,3.5261717149,4.2900531715,-2.5024828228\C,0,5.5493391651,3.59
 86884162,-2.2276066661\H,0,5.9103934347,2.6797102952,-2.704608639\C,0,
 6.0957316447,3.6352253514,-0.7831837155\C,0,5.9700747592,4.8220391087,
 -3.0273777487\H,0,7.0589410611,4.8647265067,-3.1095889594\H,0,5.638204
 5567,5.7391305134,-2.5325940822\H,0,5.5410622316,4.7795420447,-4.03282
 4183\O,0,6.5805715645,4.669085846,-0.2879071562\N,0,5.9368638191,2.484
 7225024,-0.116847239\H,0,5.5100605446,1.7052835081,-0.619588768\C,0,6.
 0803003491,2.3768038527,1.3142607625\H,0,5.7727518926,3.3291874755,1.7
 522749609\C,0,7.5264321405,2.1028711853,1.7105656897\C,0,5.1470431791,
 1.2667678377,1.8783741079\H,0,4.1531233873,1.4498888727,1.469738487\H,
 0,5.0264310782,1.395196444,2.9578549685\O,0,8.4096938218,1.775774902,0
 .9216273705\C,0,5.5955192577,-0.1208488936,1.5683306064\C,0,5.41405247
 76,-0.935610701,0.4719614959\H,0,4.8340071297,-0.7190809266,-0.4154218
 303\N,0,6.409288134,-0.8509490613,2.4220694098\H,0,6.6879147134,-0.589
 8193704,3.3679217566\C,0,6.6587288867,-2.0479771101,1.8128439516\H,0,7
 .2576508986,-2.8175451171,2.2812381415\N,0,6.0805093262,-2.1330133429,
 0.6315350929\N,0,7.7527265853,2.2281780036,3.0526627124\H,0,6.93351339
 2,2.4160307668,3.6199279874\C,0,8.828743965,1.4622803796,3.7045522991\
 H,0,8.9793401456,0.5403315118,3.1323962432\C,0,8.1833923881,1.07150065
 92,5.0425415489\C,0,10.1620786045,2.2250075966,3.7340112288\H,0,10.061
 384867,3.1175467318,4.3672774315\O,0,7.4638957723,0.0777903143,5.10772
 6905\C,0,11.2909550478,1.351588095,4.2698705045\H,0,11.0973214423,1.04
 84498068,5.3050024985\H,0,11.3999766961,0.4503281924,3.6568723006\H,0,
 12.234137985,1.9029656649,4.2369320808\O,0,10.4731078369,2.7217882037,
 2.4293603019\H,0,9.9939486608,2.1712599892,1.7654833263\N,0,8.29478576
 75,1.9903606941,6.0401992479\H,0,8.801673152,2.8385498663,5.8121809023
 \C,0,7.1383481138,2.2937781155,6.9025845956\H,0,6.5015145067,1.4068050
 346,6.9040898747\C,0,6.4637653013,3.4789191601,6.1784069967\C,0,7.5603
 118786,2.65138757,8.3333699485\H,0,8.2300887019,3.5191906263,8.2617177
 232\O,0,7.150813585,4.5075946405,5.9962191328\C,0,6.3320302047,3.05989
 42646,9.1559413134\H,0,5.6042064333,2.2406280293,9.2063341257\H,0,5.82
 93380374,3.9335717833,8.7283993013\H,0,6.6246618136,3.3095196794,10.18
 08438132\C,0,8.3123696643,1.4870704403,8.9841086852\H,0,7.6613120468,0
 .6099661795,9.0840586709\H,0,8.6572097309,1.7646221756,9.9857956091\H,
 0,9.1833860147,1.1921993031,8.3909063377\N,0,5.2323377109,3.2465883105
 ,5.7321169349\H,0,4.8027113545,2.3125210313,5.8289564457\C,0,4.3379551
 293,4.0322297242,4.8737777556\H,0,3.6954207805,4.6619672101,5.50379539
 93\C,0,3.4085103701,2.943668492,4.1689430858\C,0,5.026337906,4.8760800
 099,3.8068743358\H,0,5.9110433047,4.328311483,3.470705319\H,0,4.324836
 7911,4.9024277571,2.9666337071\O,0,2.7735576813,3.3487988968,3.1755049
 424\C,0,5.4451353762,6.2953417748,4.176675702\H,0,6.0800481351,6.28018
 78996,5.0645568927\H,0,4.5626611683,6.8949568668,4.4312220942\C,0,6.15
 97974491,6.9910758312,2.9990076093\H,0,6.7907414892,7.8116922401,3.355
 8525571\H,0,5.4240591401,7.4154113072,2.3114438463\N,0,6.9828609968,6.
 1074913381,2.162491444\H,0,6.6085008883,5.7831817401,1.2701150701\N,0,
 8.6082251186,5.668109501,3.7736560421\H,0,9.5343995882,5.2950545963,3.
 9329156511\H,0,7.9563308995,5.5020174963,4.5465520371\N,0,8.9117743914
 ,4.9891992835,1.5632935328\H,0,9.5639877159,4.2523923769,1.857636562\H
 ,0,8.4854322684,4.8773762592,0.6463394831\C,0,8.1521400954,5.568989690
 9,2.5032182674\O,0,3.4629070537,1.7945016024,4.6810599917\H,0,-5.58245
 9194,-5.3554132059,-5.7618496943\\Version=ES64L-G16RevC.01\HF=-4648.94
 1419\RMSD=7.298e-10\Dipole=-14.7414716,-7.76474,-8.4058898\Quadrupole=
 138.0564391,-55.1926251,-82.863814,226.0892093,216.3625664,116.6241284
 \PG=C01 [X(C64H91N16O17)]\\@
 The archive entry for this job was punched.


 ACTORS ARE SO FORTUNATE.  THEY CAN CHOOSE WHETHER
 THEY WILL APPEAR IN A TRAGEDY OR IN COMEDY,
 WHETHER THEY WILL SUFFER OF MAKE MERRY,
 LAUGH OR SHED TEARS.  BUT IN REAL LIFE IT IS DIFFERENT.
 MOST MEN AND WOMEN ARE FORCED TO PERFORM
 PARTS FOR WHICH THEY HAVE NO QUALIFICATIONS.
 THE WORLD IS A STAGE, BUT THE PLAY IS BADLY CAST.

                                   -- OSCAR WILDE
 Job cpu time:       0 days  0 hours 25 minutes 30.8 seconds.
 Elapsed time:       0 days  0 hours  6 minutes 23.8 seconds.
 File lengths (MBytes):  RWF=   1632 Int=      0 D2E=      0 Chk=    256 Scr=     32
 Normal termination of Gaussian 16 at Wed Aug 10 04:01:28 2022.
