 Entering Gaussian System, Link 0=/opt/software/Gaussian/g16-AVX-C.01/g16/g16
 Input=charge-conf-102.com
 Output=charge-conf-102.log
 Initial command:
 /opt/software/Gaussian/g16-AVX-C.01/g16/l1.exe "/mnt/gs18/scratch/users/kengmith/Gau-24958.inp" -scrdir="/mnt/gs18/scratch/users/kengmith/"
 Entering Link 1 = /opt/software/Gaussian/g16-AVX-C.01/g16/l1.exe PID=     24971.
  
 Copyright (c) 1988-2019, Gaussian, Inc.  All Rights Reserved.
  
 This is part of the Gaussian(R) 16 program.  It is based on
 the Gaussian(R) 09 system (copyright 2009, Gaussian, Inc.),
 the Gaussian(R) 03 system (copyright 2003, Gaussian, Inc.),
 the Gaussian(R) 98 system (copyright 1998, Gaussian, Inc.),
 the Gaussian(R) 94 system (copyright 1995, Gaussian, Inc.),
 the Gaussian 92(TM) system (copyright 1992, Gaussian, Inc.),
 the Gaussian 90(TM) system (copyright 1990, Gaussian, Inc.),
 the Gaussian 88(TM) system (copyright 1988, Gaussian, Inc.),
 the Gaussian 86(TM) system (copyright 1986, Carnegie Mellon
 University), and the Gaussian 82(TM) system (copyright 1983,
 Carnegie Mellon University). Gaussian is a federally registered
 trademark of Gaussian, Inc.
  
 This software contains proprietary and confidential information,
 including trade secrets, belonging to Gaussian, Inc.
  
 This software is provided under written license and may be
 used, copied, transmitted, or stored only in accord with that
 written license.
  
 The following legend is applicable only to US Government
 contracts under FAR:
  
                    RESTRICTED RIGHTS LEGEND
  
 Use, reproduction and disclosure by the US Government is
 subject to restrictions as set forth in subparagraphs (a)
 and (c) of the Commercial Computer Software - Restricted
 Rights clause in FAR 52.227-19.
  
 Gaussian, Inc.
 340 Quinnipiac St., Bldg. 40, Wallingford CT 06492
  
  
 ---------------------------------------------------------------
 Warning -- This program may not be used in any manner that
 competes with the business of Gaussian, Inc. or will provide
 assistance to any competitor of Gaussian, Inc.  The licensee
 of this program is prohibited from giving any competitor of
 Gaussian, Inc. access to this program.  By using this program,
 the user acknowledges that Gaussian, Inc. is engaged in the
 business of creating and licensing software in the field of
 computational chemistry and represents and warrants to the
 licensee that it is not a competitor of Gaussian, Inc. and that
 it will not use this program in any manner prohibited above.
 ---------------------------------------------------------------
  

 Cite this work as:
 Gaussian 16, Revision C.01,
 M. J. Frisch, G. W. Trucks, H. B. Schlegel, G. E. Scuseria, 
 M. A. Robb, J. R. Cheeseman, G. Scalmani, V. Barone, 
 G. A. Petersson, H. Nakatsuji, X. Li, M. Caricato, A. V. Marenich, 
 J. Bloino, B. G. Janesko, R. Gomperts, B. Mennucci, H. P. Hratchian, 
 J. V. Ortiz, A. F. Izmaylov, J. L. Sonnenberg, D. Williams-Young, 
 F. Ding, F. Lipparini, F. Egidi, J. Goings, B. Peng, A. Petrone, 
 T. Henderson, D. Ranasinghe, V. G. Zakrzewski, J. Gao, N. Rega, 
 G. Zheng, W. Liang, M. Hada, M. Ehara, K. Toyota, R. Fukuda, 
 J. Hasegawa, M. Ishida, T. Nakajima, Y. Honda, O. Kitao, H. Nakai, 
 T. Vreven, K. Throssell, J. A. Montgomery, Jr., J. E. Peralta, 
 F. Ogliaro, M. J. Bearpark, J. J. Heyd, E. N. Brothers, K. N. Kudin, 
 V. N. Staroverov, T. A. Keith, R. Kobayashi, J. Normand, 
 K. Raghavachari, A. P. Rendell, J. C. Burant, S. S. Iyengar, 
 J. Tomasi, M. Cossi, J. M. Millam, M. Klene, C. Adamo, R. Cammi, 
 J. W. Ochterski, R. L. Martin, K. Morokuma, O. Farkas, 
 J. B. Foresman, and D. J. Fox, Gaussian, Inc., Wallingford CT, 2019.
 
 ******************************************
 Gaussian 16:  ES64L-G16RevC.01  3-Jul-2019
                13-May-2022 
 ******************************************
 %mem=8gb
 %nproc=4
 Will use up to    4 processors via shared memory.
 %chk=conf-102.chk
 ----------------------------------------------------------------------
 # B3LYP/6-31G* empiricaldispersion=gd3 guess=read geom=check nosymm in
 tegral(ultrafinegrid)
 ----------------------------------------------------------------------
 1/29=2,38=1,172=1/1;
 2/12=2,15=1,40=1/2;
 3/5=1,6=6,7=1,11=2,14=-4,25=1,30=1,74=-5,75=-5,116=-2,124=31/1,2,3;
 4/5=1/1;
 5/5=2,38=6/2;
 6/7=2,8=2,9=2,10=2,28=1/1;
 99/5=1,9=1/99;
 ------------------------------------------------------
 Candidate Structure: Conf:102 Charge calc in gas phase
 ------------------------------------------------------
 Structure from the checkpoint file:  "conf-102.chk"
 Charge =  1 Multiplicity = 1
 Redundant internal coordinates found in file.  (old form).
 N,0,-3.8133836122,-0.1449792699,3.7929069255
 H,0,-4.8379642888,-0.1118429528,3.8106019314
 H,0,-3.5215950131,-0.8992396532,3.1148812135
 H,0,-3.473239276,-0.3427335763,4.7386472369
 C,0,-3.1879540494,1.0974051601,3.1848358311
 H,0,-3.8592552534,1.9434504827,3.3532908997
 C,0,-3.0480636907,0.7034732829,1.6962510813
 C,0,-1.8036927579,1.3224632347,3.8332095654
 H,0,-1.9447657498,1.3278323904,4.9233817687
 H,0,-1.1413058762,0.4864911626,3.5744502744
 O,0,-3.0150447492,-0.5049930206,1.4362092668
 C,0,-1.1561568584,2.65844165,3.4239346051
 H,0,-1.8200652608,3.5020953663,3.6337990629
 H,0,-0.8925347384,2.6635777419,2.3614861967
 C,0,0.1293487415,2.9139987747,4.1927596368
 O,0,0.3406681115,3.8689338081,4.8959799359
 O,0,1.0296882389,1.9189685674,3.9811435739
 N,0,-2.8895874676,1.6839169747,0.7942902348
 H,0,-2.8372808115,2.6423580868,1.1230231543
 C,0,-2.1505937053,1.3993421535,-0.4597904565
 H,0,-2.4812859251,0.4148740113,-0.7954135624
 C,0,-0.6779252625,1.3896147977,-0.0081279845
 C,0,-2.4037656453,2.4468404536,-1.5378028715
 H,0,-2.0542388893,3.4181256442,-1.163723723
 H,0,-3.4864260677,2.5305147373,-1.7032544207
 O,0,-0.0910303659,2.4585842041,0.1960316411
 C,0,-1.679582798,2.1168262954,-2.8145834039
 C,0,-1.0905011429,0.9267998715,-3.1760218673
 H,0,-1.0035587138,-0.0069596941,-2.6386886402
 C,0,-1.4669358464,3.0283538537,-3.9111926076
 C,0,-0.7479715706,2.3210686102,-4.9126763473
 C,0,-1.7961778581,4.3766004698,-4.1358168903
 H,0,-2.3453226136,4.9427957843,-3.3876474594
 N,0,-0.5266617355,1.046338755,-4.4306449236
 H,0,-0.0559590286,0.3058343462,-4.9280012379
 C,0,-0.6951294771,4.2529827721,-6.3108041423
 H,0,-0.3726902694,4.7598835156,-7.2138676406
 C,0,-0.3629062111,2.9159254146,-6.1204867645
 H,0,0.1817238355,2.3578506937,-6.8773223306
 C,0,-1.4013260814,4.9760008758,-5.3255788616
 H,0,-1.6395946363,6.0195976449,-5.5080747805
 N,0,-0.1632115289,0.1837310868,0.2933180713
 H,0,-0.7605823581,-0.6327725264,0.2547611706
 C,0,1.1366142966,0.0447517366,0.9622604656
 H,0,1.2427923543,0.8908672143,1.6495002583
 C,0,2.240016916,0.0881023294,-0.1240253773
 C,0,1.1853421431,-1.2634701956,1.7494168496
 H,0,1.2175434499,-2.0922783954,1.0297372013
 O,0,2.765263747,-0.9305596462,-0.55891566
 C,0,2.4105746765,-1.3214515025,2.6536814865
 H,0,3.3254773056,-1.2559984554,2.0584653579
 H,0,2.4366476055,-2.2696485412,3.2030229735
 H,0,2.3823163339,-0.5004841024,3.377932201
 O,0,-0.0421841222,-1.3305268558,2.5104295446
 H,0,-0.0236721923,-2.1774921057,2.982980082
 N,0,2.5059717434,1.3333652958,-0.5787122823
 H,0,1.9484042845,2.0996870401,-0.2208755803
 C,0,3.312982117,1.542128082,-1.7712067876
 H,0,2.9319667195,0.9028435563,-2.5763068555
 C,0,4.7712380128,1.1261259146,-1.5919279025
 C,0,3.250301035,3.0134522296,-2.221652167
 H,0,3.8273814865,3.0998745318,-3.1474146849
 H,0,3.7471371676,3.644567139,-1.4727855018
 O,0,5.4811039253,0.8099355451,-2.5166122417
 C,0,1.8163398983,3.5095109233,-2.459329582
 H,0,1.2492162515,2.7536888748,-3.0188791838
 H,0,1.2790313063,3.6364441028,-1.5134667253
 C,0,1.757852993,4.8385815791,-3.2167997107
 H,0,0.7285972086,5.2292327068,-3.1547868937
 H,0,2.4237713496,5.569952709,-2.7448749686
 N,0,2.1856548837,4.6516608713,-4.5987524608
 H,0,1.7540218531,3.8413977324,-5.0276875844
 N,0,2.2902014902,6.980532855,-4.9340486457
 H,0,2.3329076717,7.6885602254,-5.658647699
 H,0,1.5479964494,7.1655066041,-4.2685213909
 N,0,2.4372517165,5.5913873287,-6.7799262055
 H,0,2.5706728502,4.611724384,-7.0389425816
 C,0,2.2832212831,5.7090524628,-5.5082276209
 O,0,5.1994801286,1.2232761888,-0.3125444736
 H,0,1.8367179545,2.1537064144,4.4791963871
 H,0,6.1420750428,0.9699321118,-0.327000712
 Recover connectivity data from disk.
                           ----------------------------
                           !    Current Parameters    !
                           ! (Angstroms and Degrees)  !
 --------------------------                            --------------------------
 ! Name  Definition              Value                                          !
 --------------------------------------------------------------------------------
 ! R1    R(1,2)                  1.0253                                         !
 ! R2    R(1,3)                  1.0554                                         !
 ! R3    R(1,4)                  1.0243                                         !
 ! R4    R(1,5)                  1.518                                          !
 ! R5    R(5,6)                  1.0931                                         !
 ! R6    R(5,7)                  1.5462                                         !
 ! R7    R(5,8)                  1.5451                                         !
 ! R8    R(7,11)                 1.2366                                         !
 ! R9    R(7,18)                 1.3416                                         !
 ! R10   R(8,9)                  1.0993                                         !
 ! R11   R(8,10)                 1.0975                                         !
 ! R12   R(8,12)                 1.54                                           !
 ! R13   R(12,13)                1.0939                                         !
 ! R14   R(12,14)                1.0947                                         !
 ! R15   R(12,15)                1.5195                                         !
 ! R16   R(15,16)                1.2046                                         !
 ! R17   R(15,17)                1.3585                                         !
 ! R18   R(17,80)                0.977                                          !
 ! R19   R(18,19)                1.0146                                         !
 ! R20   R(18,20)                1.4832                                         !
 ! R21   R(20,21)                1.0914                                         !
 ! R22   R(20,22)                1.5404                                         !
 ! R23   R(20,23)                1.5243                                         !
 ! R24   R(22,26)                1.2365                                         !
 ! R25   R(22,42)                1.3453                                         !
 ! R26   R(23,24)                1.098                                          !
 ! R27   R(23,25)                1.0984                                         !
 ! R28   R(23,27)                1.5045                                         !
 ! R29   R(27,28)                1.3762                                         !
 ! R30   R(27,30)                1.4418                                         !
 ! R31   R(28,29)                1.0808                                         !
 ! R32   R(28,34)                1.3807                                         !
 ! R33   R(30,31)                1.4213                                         !
 ! R34   R(30,32)                1.4059                                         !
 ! R35   R(31,34)                1.3807                                         !
 ! R36   R(31,38)                1.4003                                         !
 ! R37   R(32,33)                1.0871                                         !
 ! R38   R(32,40)                1.3895                                         !
 ! R39   R(34,35)                1.0086                                         !
 ! R40   R(36,37)                1.0846                                         !
 ! R41   R(36,38)                1.3908                                         !
 ! R42   R(36,40)                1.4114                                         !
 ! R43   R(38,39)                1.0867                                         !
 ! R44   R(40,41)                1.0859                                         !
 ! R45   R(42,43)                1.0124                                         !
 ! R46   R(42,44)                1.4685                                         !
 ! R47   R(44,45)                1.0952                                         !
 ! R48   R(44,46)                1.549                                          !
 ! R49   R(44,47)                1.5276                                         !
 ! R50   R(46,49)                1.2258                                         !
 ! R51   R(46,56)                1.3521                                         !
 ! R52   R(47,48)                1.0981                                         !
 ! R53   R(47,50)                1.5239                                         !
 ! R54   R(47,54)                1.4458                                         !
 ! R55   R(50,51)                1.0934                                         !
 ! R56   R(50,52)                1.0961                                         !
 ! R57   R(50,53)                1.0951                                         !
 ! R58   R(54,55)                0.97                                           !
 ! R59   R(56,57)                1.013                                          !
 ! R60   R(56,58)                1.455                                          !
 ! R61   R(58,59)                1.0964                                         !
 ! R62   R(58,60)                1.527                                          !
 ! R63   R(58,61)                1.54                                           !
 ! R64   R(60,64)                1.2079                                         !
 ! R65   R(60,79)                1.3526                                         !
 ! R66   R(61,62)                1.0943                                         !
 ! R67   R(61,63)                1.0982                                         !
 ! R68   R(61,65)                1.5358                                         !
 ! R69   R(65,66)                1.0982                                         !
 ! R70   R(65,67)                1.0952                                         !
 ! R71   R(65,68)                1.5309                                         !
 ! R72   R(68,69)                1.1026                                         !
 ! R73   R(68,70)                1.0959                                         !
 ! R74   R(68,71)                1.4587                                         !
 ! R75   R(71,72)                1.0133                                         !
 ! R76   R(71,78)                1.3981                                         !
 ! R77   R(73,74)                1.014                                          !
 ! R78   R(73,75)                1.0139                                         !
 ! R79   R(73,78)                1.3951                                         !
 ! R80   R(76,77)                1.0221                                         !
 ! R81   R(76,78)                1.2864                                         !
 ! R82   R(79,81)                0.9762                                         !
 ! A1    A(2,1,3)              108.0885                                         !
 ! A2    A(2,1,4)              108.793                                          !
 ! A3    A(2,1,5)              113.0905                                         !
 ! A4    A(3,1,4)              111.3084                                         !
 ! A5    A(3,1,5)              102.3371                                         !
 ! A6    A(4,1,5)              113.0184                                         !
 ! A7    A(1,5,6)              108.5844                                         !
 ! A8    A(1,5,7)              102.3807                                         !
 ! A9    A(1,5,8)              108.6774                                         !
 ! A10   A(6,5,7)              113.6492                                         !
 ! A11   A(6,5,8)              111.8889                                         !
 ! A12   A(7,5,8)              111.1043                                         !
 ! A13   A(5,7,11)             116.992                                          !
 ! A14   A(5,7,18)             118.1482                                         !
 ! A15   A(11,7,18)            124.7261                                         !
 ! A16   A(5,8,9)              107.5719                                         !
 ! A17   A(5,8,10)             109.3191                                         !
 ! A18   A(5,8,12)             113.0511                                         !
 ! A19   A(9,8,10)             108.36                                           !
 ! A20   A(9,8,12)             108.2572                                         !
 ! A21   A(10,8,12)            110.142                                          !
 ! A22   A(8,12,13)            111.2773                                         !
 ! A23   A(8,12,14)            111.3009                                         !
 ! A24   A(8,12,15)            111.5402                                         !
 ! A25   A(13,12,14)           109.1928                                         !
 ! A26   A(13,12,15)           106.6592                                         !
 ! A27   A(14,12,15)           106.6514                                         !
 ! A28   A(12,15,16)           125.2473                                         !
 ! A29   A(12,15,17)           111.0194                                         !
 ! A30   A(16,15,17)           123.7326                                         !
 ! A31   A(15,17,80)           106.982                                          !
 ! A32   A(7,18,19)            118.5947                                         !
 ! A33   A(7,18,20)            119.1495                                         !
 ! A34   A(19,18,20)           115.437                                          !
 ! A35   A(18,20,21)           106.3864                                         !
 ! A36   A(18,20,22)           103.2754                                         !
 ! A37   A(18,20,23)           112.5429                                         !
 ! A38   A(21,20,22)           111.9713                                         !
 ! A39   A(21,20,23)           110.6135                                         !
 ! A40   A(22,20,23)           111.746                                          !
 ! A41   A(20,22,26)           119.7847                                         !
 ! A42   A(20,22,42)           115.9205                                         !
 ! A43   A(26,22,42)           123.8021                                         !
 ! A44   A(20,23,24)           108.3061                                         !
 ! A45   A(20,23,25)           108.8193                                         !
 ! A46   A(20,23,27)           111.6843                                         !
 ! A47   A(24,23,25)           107.3199                                         !
 ! A48   A(24,23,27)           109.2657                                         !
 ! A49   A(25,23,27)           111.3042                                         !
 ! A50   A(23,27,28)           128.2152                                         !
 ! A51   A(23,27,30)           125.2957                                         !
 ! A52   A(28,27,30)           106.4882                                         !
 ! A53   A(27,28,29)           130.6123                                         !
 ! A54   A(27,28,34)           109.7919                                         !
 ! A55   A(29,28,34)           119.5845                                         !
 ! A56   A(27,30,31)           107.2132                                         !
 ! A57   A(27,30,32)           133.8903                                         !
 ! A58   A(31,30,32)           118.8878                                         !
 ! A59   A(30,31,34)           107.1289                                         !
 ! A60   A(30,31,38)           122.3746                                         !
 ! A61   A(34,31,38)           130.4851                                         !
 ! A62   A(30,32,33)           120.516                                          !
 ! A63   A(30,32,40)           118.9428                                         !
 ! A64   A(33,32,40)           120.54                                           !
 ! A65   A(28,34,31)           109.3737                                         !
 ! A66   A(28,34,35)           125.1076                                         !
 ! A67   A(31,34,35)           125.4856                                         !
 ! A68   A(37,36,38)           119.4859                                         !
 ! A69   A(37,36,40)           119.3746                                         !
 ! A70   A(38,36,40)           121.0954                                         !
 ! A71   A(31,38,36)           117.4338                                         !
 ! A72   A(31,38,39)           121.3572                                         !
 ! A73   A(36,38,39)           121.207                                          !
 ! A74   A(32,40,36)           121.2581                                         !
 ! A75   A(32,40,41)           119.7438                                         !
 ! A76   A(36,40,41)           118.998                                          !
 ! A77   A(22,42,43)           119.2488                                         !
 ! A78   A(22,42,44)           121.7059                                         !
 ! A79   A(43,42,44)           117.6004                                         !
 ! A80   A(42,44,45)           107.3705                                         !
 ! A81   A(42,44,46)           107.9641                                         !
 ! A82   A(42,44,47)           110.1228                                         !
 ! A83   A(45,44,46)           110.4489                                         !
 ! A84   A(45,44,47)           109.584                                          !
 ! A85   A(46,44,47)           111.2611                                         !
 ! A86   A(44,46,49)           122.0566                                         !
 ! A87   A(44,46,56)           113.6858                                         !
 ! A88   A(49,46,56)           124.1769                                         !
 ! A89   A(44,47,48)           108.0348                                         !
 ! A90   A(44,47,50)           111.3466                                         !
 ! A91   A(44,47,54)           106.491                                          !
 ! A92   A(48,47,50)           109.6696                                         !
 ! A93   A(48,47,54)           109.5629                                         !
 ! A94   A(50,47,54)           111.6243                                         !
 ! A95   A(47,50,51)           110.331                                          !
 ! A96   A(47,50,52)           110.4518                                         !
 ! A97   A(47,50,53)           110.0695                                         !
 ! A98   A(51,50,52)           107.7392                                         !
 ! A99   A(51,50,53)           109.6768                                         !
 ! A100  A(52,50,53)           108.5208                                         !
 ! A101  A(47,54,55)           106.3018                                         !
 ! A102  A(46,56,57)           118.0122                                         !
 ! A103  A(46,56,58)           121.1226                                         !
 ! A104  A(57,56,58)           119.0957                                         !
 ! A105  A(56,58,59)           108.9922                                         !
 ! A106  A(56,58,60)           113.2272                                         !
 ! A107  A(56,58,61)           110.7469                                         !
 ! A108  A(59,58,60)           105.025                                          !
 ! A109  A(59,58,61)           109.1565                                         !
 ! A110  A(60,58,61)           109.4809                                         !
 ! A111  A(58,60,64)           122.8666                                         !
 ! A112  A(58,60,79)           113.1927                                         !
 ! A113  A(64,60,79)           123.8367                                         !
 ! A114  A(58,61,62)           107.5436                                         !
 ! A115  A(58,61,63)           109.3413                                         !
 ! A116  A(58,61,65)           113.0696                                         !
 ! A117  A(62,61,63)           107.0331                                         !
 ! A118  A(62,61,65)           109.6295                                         !
 ! A119  A(63,61,65)           110.0185                                         !
 ! A120  A(61,65,66)           109.7989                                         !
 ! A121  A(61,65,67)           111.2132                                         !
 ! A122  A(61,65,68)           113.1195                                         !
 ! A123  A(66,65,67)           105.4536                                         !
 ! A124  A(66,65,68)           109.0068                                         !
 ! A125  A(67,65,68)           107.9363                                         !
 ! A126  A(65,68,69)           108.3859                                         !
 ! A127  A(65,68,70)           110.0656                                         !
 ! A128  A(65,68,71)           110.2618                                         !
 ! A129  A(69,68,70)           107.8506                                         !
 ! A130  A(69,68,71)           111.8663                                         !
 ! A131  A(70,68,71)           108.3775                                         !
 ! A132  A(68,71,72)           112.2452                                         !
 ! A133  A(68,71,78)           122.6723                                         !
 ! A134  A(72,71,78)           111.0458                                         !
 ! A135  A(74,73,75)           111.8703                                         !
 ! A136  A(74,73,78)           110.0282                                         !
 ! A137  A(75,73,78)           115.6423                                         !
 ! A138  A(77,76,78)           110.722                                          !
 ! A139  A(71,78,73)           114.9543                                         !
 ! A140  A(71,78,76)           125.6089                                         !
 ! A141  A(73,78,76)           119.3158                                         !
 ! A142  A(60,79,81)           105.8467                                         !
 ! D1    D(2,1,5,6)             28.4814                                         !
 ! D2    D(2,1,5,7)            -91.9886                                         !
 ! D3    D(2,1,5,8)            150.4088                                         !
 ! D4    D(3,1,5,6)            144.5057                                         !
 ! D5    D(3,1,5,7)             24.0356                                         !
 ! D6    D(3,1,5,8)            -93.567                                          !
 ! D7    D(4,1,5,6)            -95.6875                                         !
 ! D8    D(4,1,5,7)            143.8425                                         !
 ! D9    D(4,1,5,8)             26.2399                                         !
 ! D10   D(1,5,7,11)           -22.8763                                         !
 ! D11   D(1,5,7,18)           161.1249                                         !
 ! D12   D(6,5,7,11)          -139.7696                                         !
 ! D13   D(6,5,7,18)            44.2316                                         !
 ! D14   D(8,5,7,11)            92.9826                                         !
 ! D15   D(8,5,7,18)           -83.0161                                         !
 ! D16   D(1,5,8,9)            -53.0568                                         !
 ! D17   D(1,5,8,10)            64.4037                                         !
 ! D18   D(1,5,8,12)          -172.5215                                         !
 ! D19   D(6,5,8,9)             66.8355                                         !
 ! D20   D(6,5,8,10)          -175.704                                          !
 ! D21   D(6,5,8,12)           -52.6292                                         !
 ! D22   D(7,5,8,9)           -164.9616                                         !
 ! D23   D(7,5,8,10)           -47.5012                                         !
 ! D24   D(7,5,8,12)            75.5737                                         !
 ! D25   D(5,7,18,19)            1.9473                                         !
 ! D26   D(5,7,18,20)          151.7318                                         !
 ! D27   D(11,7,18,19)        -173.7141                                         !
 ! D28   D(11,7,18,20)         -23.9295                                         !
 ! D29   D(5,8,12,13)           54.9024                                         !
 ! D30   D(5,8,12,14)          -67.1371                                         !
 ! D31   D(5,8,12,15)          173.8797                                         !
 ! D32   D(9,8,12,13)          -64.167                                          !
 ! D33   D(9,8,12,14)          173.7935                                         !
 ! D34   D(9,8,12,15)           54.8103                                         !
 ! D35   D(10,8,12,13)         177.5201                                         !
 ! D36   D(10,8,12,14)          55.4806                                         !
 ! D37   D(10,8,12,15)         -63.5026                                         !
 ! D38   D(8,12,15,16)        -121.2818                                         !
 ! D39   D(8,12,15,17)          59.0118                                         !
 ! D40   D(13,12,15,16)          0.4091                                         !
 ! D41   D(13,12,15,17)       -179.2973                                         !
 ! D42   D(14,12,15,16)        117.0035                                         !
 ! D43   D(14,12,15,17)        -62.703                                          !
 ! D44   D(12,15,17,80)        178.459                                          !
 ! D45   D(16,15,17,80)         -1.2527                                         !
 ! D46   D(7,18,20,21)          41.6934                                         !
 ! D47   D(7,18,20,22)         -76.3454                                         !
 ! D48   D(7,18,20,23)         162.9847                                         !
 ! D49   D(19,18,20,21)       -167.6014                                         !
 ! D50   D(19,18,20,22)         74.3598                                         !
 ! D51   D(19,18,20,23)        -46.3102                                         !
 ! D52   D(18,20,22,26)        -77.4839                                         !
 ! D53   D(18,20,22,42)         94.7686                                         !
 ! D54   D(21,20,22,26)        168.4527                                         !
 ! D55   D(21,20,22,42)        -19.2949                                         !
 ! D56   D(23,20,22,26)         43.7271                                         !
 ! D57   D(23,20,22,42)       -144.0205                                         !
 ! D58   D(18,20,23,24)         61.4095                                         !
 ! D59   D(18,20,23,25)        -54.9522                                         !
 ! D60   D(18,20,23,27)       -178.2222                                         !
 ! D61   D(21,20,23,24)       -179.7429                                         !
 ! D62   D(21,20,23,25)         63.8953                                         !
 ! D63   D(21,20,23,27)        -59.3746                                         !
 ! D64   D(22,20,23,24)        -54.2644                                         !
 ! D65   D(22,20,23,25)       -170.6262                                         !
 ! D66   D(22,20,23,27)         66.1038                                         !
 ! D67   D(20,22,42,43)         -2.8783                                         !
 ! D68   D(20,22,42,44)       -168.8304                                         !
 ! D69   D(26,22,42,43)        169.0275                                         !
 ! D70   D(26,22,42,44)          3.0754                                         !
 ! D71   D(20,23,27,28)         14.0727                                         !
 ! D72   D(20,23,27,30)       -165.5424                                         !
 ! D73   D(24,23,27,28)        133.8776                                         !
 ! D74   D(24,23,27,30)        -45.7375                                         !
 ! D75   D(25,23,27,28)       -107.7759                                         !
 ! D76   D(25,23,27,30)         72.609                                          !
 ! D77   D(23,27,28,29)         -0.9635                                         !
 ! D78   D(23,27,28,34)       -179.7088                                         !
 ! D79   D(30,27,28,29)        178.7089                                         !
 ! D80   D(30,27,28,34)         -0.0365                                         !
 ! D81   D(23,27,30,31)       -179.9024                                         !
 ! D82   D(23,27,30,32)          1.2228                                         !
 ! D83   D(28,27,30,31)          0.413                                          !
 ! D84   D(28,27,30,32)       -178.4618                                         !
 ! D85   D(27,28,34,31)         -0.3697                                         !
 ! D86   D(27,28,34,35)       -178.3682                                         !
 ! D87   D(29,28,34,31)       -179.2744                                         !
 ! D88   D(29,28,34,35)          2.7271                                         !
 ! D89   D(27,30,31,34)         -0.6328                                         !
 ! D90   D(27,30,31,38)       -179.5224                                         !
 ! D91   D(32,30,31,34)        178.441                                          !
 ! D92   D(32,30,31,38)         -0.4486                                         !
 ! D93   D(27,30,32,33)         -1.2132                                         !
 ! D94   D(27,30,32,40)        178.3929                                         !
 ! D95   D(31,30,32,33)       -179.9856                                         !
 ! D96   D(31,30,32,40)         -0.3796                                         !
 ! D97   D(30,31,34,28)          0.6217                                         !
 ! D98   D(30,31,34,35)        178.6109                                         !
 ! D99   D(38,31,34,28)        179.3887                                         !
 ! D100  D(38,31,34,35)         -2.6222                                         !
 ! D101  D(30,31,38,36)          0.842                                          !
 ! D102  D(30,31,38,39)       -179.6512                                         !
 ! D103  D(34,31,38,36)       -177.7628                                         !
 ! D104  D(34,31,38,39)          1.744                                          !
 ! D105  D(30,32,40,36)          0.7931                                         !
 ! D106  D(30,32,40,41)       -179.3578                                         !
 ! D107  D(33,32,40,36)       -179.601                                          !
 ! D108  D(33,32,40,41)          0.2481                                         !
 ! D109  D(37,36,38,31)        177.1432                                         !
 ! D110  D(37,36,38,39)         -2.3644                                         !
 ! D111  D(40,36,38,31)         -0.4233                                         !
 ! D112  D(40,36,38,39)       -179.9309                                         !
 ! D113  D(37,36,40,32)       -177.9596                                         !
 ! D114  D(37,36,40,41)          2.1901                                         !
 ! D115  D(38,36,40,32)         -0.3905                                         !
 ! D116  D(38,36,40,41)        179.7593                                         !
 ! D117  D(22,42,44,45)         34.1832                                         !
 ! D118  D(22,42,44,46)        -84.9113                                         !
 ! D119  D(22,42,44,47)        153.4352                                         !
 ! D120  D(43,42,44,45)       -131.9904                                         !
 ! D121  D(43,42,44,46)        108.9152                                         !
 ! D122  D(43,42,44,47)        -12.7384                                         !
 ! D123  D(42,44,46,49)        -99.4677                                         !
 ! D124  D(42,44,46,56)         77.3921                                         !
 ! D125  D(45,44,46,49)        143.4126                                         !
 ! D126  D(45,44,46,56)        -39.7276                                         !
 ! D127  D(47,44,46,49)         21.4787                                         !
 ! D128  D(47,44,46,56)       -161.6615                                         !
 ! D129  D(42,44,47,48)         69.8424                                         !
 ! D130  D(42,44,47,50)       -169.6728                                         !
 ! D131  D(42,44,47,54)        -47.7797                                         !
 ! D132  D(45,44,47,48)       -172.2638                                         !
 ! D133  D(45,44,47,50)        -51.7791                                         !
 ! D134  D(45,44,47,54)         70.1141                                         !
 ! D135  D(46,44,47,48)        -49.8292                                         !
 ! D136  D(46,44,47,50)         70.6555                                         !
 ! D137  D(46,44,47,54)       -167.4513                                         !
 ! D138  D(44,46,56,57)         -3.0951                                         !
 ! D139  D(44,46,56,58)       -167.8056                                         !
 ! D140  D(49,46,56,57)        173.688                                          !
 ! D141  D(49,46,56,58)          8.9774                                         !
 ! D142  D(44,47,50,51)        -60.388                                          !
 ! D143  D(44,47,50,52)       -179.3982                                         !
 ! D144  D(44,47,50,53)         60.788                                          !
 ! D145  D(48,47,50,51)         59.1299                                         !
 ! D146  D(48,47,50,52)        -59.8803                                         !
 ! D147  D(48,47,50,53)       -179.694                                          !
 ! D148  D(54,47,50,51)       -179.2549                                         !
 ! D149  D(54,47,50,52)         61.7349                                         !
 ! D150  D(54,47,50,53)        -58.0789                                         !
 ! D151  D(44,47,54,55)        177.9091                                         !
 ! D152  D(48,47,54,55)         61.3029                                         !
 ! D153  D(50,47,54,55)        -60.374                                          !
 ! D154  D(46,56,58,59)         49.4124                                         !
 ! D155  D(46,56,58,60)        -67.0785                                         !
 ! D156  D(46,56,58,61)        169.5106                                         !
 ! D157  D(57,56,58,59)       -115.136                                          !
 ! D158  D(57,56,58,60)        128.3731                                         !
 ! D159  D(57,56,58,61)          4.9621                                         !
 ! D160  D(56,58,60,64)        155.409                                          !
 ! D161  D(56,58,60,79)        -28.1711                                         !
 ! D162  D(59,58,60,64)         36.6011                                         !
 ! D163  D(59,58,60,79)       -146.979                                          !
 ! D164  D(61,58,60,64)        -80.4863                                         !
 ! D165  D(61,58,60,79)         95.9336                                         !
 ! D166  D(56,58,61,62)       -176.9792                                         !
 ! D167  D(56,58,61,63)         67.1367                                         !
 ! D168  D(56,58,61,65)        -55.8082                                         !
 ! D169  D(59,58,61,62)        -56.9792                                         !
 ! D170  D(59,58,61,63)       -172.8634                                         !
 ! D171  D(59,58,61,65)         64.1918                                         !
 ! D172  D(60,58,61,62)         57.4764                                         !
 ! D173  D(60,58,61,63)        -58.4078                                         !
 ! D174  D(60,58,61,65)        178.6474                                         !
 ! D175  D(58,60,79,81)       -177.7656                                         !
 ! D176  D(64,60,79,81)         -1.3859                                         !
 ! D177  D(58,61,65,66)        -44.2341                                         !
 ! D178  D(58,61,65,67)         72.0941                                         !
 ! D179  D(58,61,65,68)       -166.2441                                         !
 ! D180  D(62,61,65,66)         75.7497                                         !
 ! D181  D(62,61,65,67)       -167.9221                                         !
 ! D182  D(62,61,65,68)        -46.2604                                         !
 ! D183  D(63,61,65,66)       -166.8025                                         !
 ! D184  D(63,61,65,67)        -50.4742                                         !
 ! D185  D(63,61,65,68)         71.1875                                         !
 ! D186  D(61,65,68,69)       -167.9161                                         !
 ! D187  D(61,65,68,70)        -50.1859                                         !
 ! D188  D(61,65,68,71)         69.3277                                         !
 ! D189  D(66,65,68,69)         69.6314                                         !
 ! D190  D(66,65,68,70)       -172.6384                                         !
 ! D191  D(66,65,68,71)        -53.1248                                         !
 ! D192  D(67,65,68,69)        -44.4301                                         !
 ! D193  D(67,65,68,70)         73.3                                            !
 ! D194  D(67,65,68,71)       -167.1863                                         !
 ! D195  D(65,68,71,72)         46.3279                                         !
 ! D196  D(65,68,71,78)       -177.3507                                         !
 ! D197  D(69,68,71,72)        -74.3647                                         !
 ! D198  D(69,68,71,78)         61.9566                                         !
 ! D199  D(70,68,71,72)        166.8601                                         !
 ! D200  D(70,68,71,78)        -56.8185                                         !
 ! D201  D(68,71,78,73)         16.1736                                         !
 ! D202  D(68,71,78,76)       -167.8756                                         !
 ! D203  D(72,71,78,73)        152.9459                                         !
 ! D204  D(72,71,78,76)        -31.1033                                         !
 ! D205  D(74,73,78,71)       -178.1841                                         !
 ! D206  D(74,73,78,76)          5.591                                          !
 ! D207  D(75,73,78,71)        -50.248                                          !
 ! D208  D(75,73,78,76)        133.5271                                         !
 ! D209  D(77,76,78,71)         -5.4534                                         !
 ! D210  D(77,76,78,73)        170.336                                          !
 --------------------------------------------------------------------------------
 Symmetry turned off by external request.
 Stoichiometry    C26H39N8O8(1+)
 Framework group  C1[X(C26H39N8O8)]
 Deg. of freedom   237
 Full point group                 C1      NOp   1
                          Input orientation:                          
 ---------------------------------------------------------------------
 Center     Atomic      Atomic             Coordinates (Angstroms)
 Number     Number       Type             X           Y           Z
 ---------------------------------------------------------------------
      1          7           0       -3.813384   -0.144979    3.792907
      2          1           0       -4.837964   -0.111843    3.810602
      3          1           0       -3.521595   -0.899240    3.114881
      4          1           0       -3.473239   -0.342734    4.738647
      5          6           0       -3.187954    1.097405    3.184836
      6          1           0       -3.859255    1.943450    3.353291
      7          6           0       -3.048064    0.703473    1.696251
      8          6           0       -1.803693    1.322463    3.833210
      9          1           0       -1.944766    1.327832    4.923382
     10          1           0       -1.141306    0.486491    3.574450
     11          8           0       -3.015045   -0.504993    1.436209
     12          6           0       -1.156157    2.658442    3.423935
     13          1           0       -1.820065    3.502095    3.633799
     14          1           0       -0.892535    2.663578    2.361486
     15          6           0        0.129349    2.913999    4.192760
     16          8           0        0.340668    3.868934    4.895980
     17          8           0        1.029688    1.918969    3.981144
     18          7           0       -2.889587    1.683917    0.794290
     19          1           0       -2.837281    2.642358    1.123023
     20          6           0       -2.150594    1.399342   -0.459790
     21          1           0       -2.481286    0.414874   -0.795414
     22          6           0       -0.677925    1.389615   -0.008128
     23          6           0       -2.403766    2.446840   -1.537803
     24          1           0       -2.054239    3.418126   -1.163724
     25          1           0       -3.486426    2.530515   -1.703254
     26          8           0       -0.091030    2.458584    0.196032
     27          6           0       -1.679583    2.116826   -2.814583
     28          6           0       -1.090501    0.926800   -3.176022
     29          1           0       -1.003559   -0.006960   -2.638689
     30          6           0       -1.466936    3.028354   -3.911193
     31          6           0       -0.747972    2.321069   -4.912676
     32          6           0       -1.796178    4.376600   -4.135817
     33          1           0       -2.345323    4.942796   -3.387647
     34          7           0       -0.526662    1.046339   -4.430645
     35          1           0       -0.055959    0.305834   -4.928001
     36          6           0       -0.695129    4.252983   -6.310804
     37          1           0       -0.372690    4.759884   -7.213868
     38          6           0       -0.362906    2.915925   -6.120487
     39          1           0        0.181724    2.357851   -6.877322
     40          6           0       -1.401326    4.976001   -5.325579
     41          1           0       -1.639595    6.019598   -5.508075
     42          7           0       -0.163212    0.183731    0.293318
     43          1           0       -0.760582   -0.632773    0.254761
     44          6           0        1.136614    0.044752    0.962260
     45          1           0        1.242792    0.890867    1.649500
     46          6           0        2.240017    0.088102   -0.124025
     47          6           0        1.185342   -1.263470    1.749417
     48          1           0        1.217543   -2.092278    1.029737
     49          8           0        2.765264   -0.930560   -0.558916
     50          6           0        2.410575   -1.321452    2.653681
     51          1           0        3.325477   -1.255998    2.058465
     52          1           0        2.436648   -2.269649    3.203023
     53          1           0        2.382316   -0.500484    3.377932
     54          8           0       -0.042184   -1.330527    2.510430
     55          1           0       -0.023672   -2.177492    2.982980
     56          7           0        2.505972    1.333365   -0.578712
     57          1           0        1.948404    2.099687   -0.220876
     58          6           0        3.312982    1.542128   -1.771207
     59          1           0        2.931967    0.902844   -2.576307
     60          6           0        4.771238    1.126126   -1.591928
     61          6           0        3.250301    3.013452   -2.221652
     62          1           0        3.827381    3.099875   -3.147415
     63          1           0        3.747137    3.644567   -1.472786
     64          8           0        5.481104    0.809936   -2.516612
     65          6           0        1.816340    3.509511   -2.459330
     66          1           0        1.249216    2.753689   -3.018879
     67          1           0        1.279031    3.636444   -1.513467
     68          6           0        1.757853    4.838582   -3.216800
     69          1           0        0.728597    5.229233   -3.154787
     70          1           0        2.423771    5.569953   -2.744875
     71          7           0        2.185655    4.651661   -4.598752
     72          1           0        1.754022    3.841398   -5.027688
     73          7           0        2.290201    6.980533   -4.934049
     74          1           0        2.332908    7.688560   -5.658648
     75          1           0        1.547996    7.165507   -4.268521
     76          7           0        2.437252    5.591387   -6.779926
     77          1           0        2.570673    4.611724   -7.038943
     78          6           0        2.283221    5.709052   -5.508228
     79          8           0        5.199480    1.223276   -0.312544
     80          1           0        1.836718    2.153706    4.479196
     81          1           0        6.142075    0.969932   -0.327001
 ---------------------------------------------------------------------
 Rotational constants (GHZ):           0.1109244           0.0549221           0.0461744
 Standard basis: 6-31G(d) (6D, 7F)
   708 basis functions,  1332 primitive gaussians,   708 cartesian basis functions
   157 alpha electrons      157 beta electrons
       nuclear repulsion energy      5519.8036077575 Hartrees.
 NAtoms=   81 NActive=   81 NUniq=   81 SFac= 1.00D+00 NAtFMM=   60 NAOKFM=T Big=T
 Integral buffers will be    131072 words long.
 Raffenetti 2 integral format.
 Two-electron integral symmetry is turned off.
 Nuclear repulsion after empirical dispersion term =     5519.6841369390 Hartrees.
 One-electron integrals computed using PRISM.
 NBasis=   708 RedAO= T EigKep=  3.67D-04  NBF=   708
 NBsUse=   708 1.00D-06 EigRej= -1.00D+00 NBFU=   708
 Initial guess from the checkpoint file:  "conf-102.chk"
 B after Tr=     0.000000    0.000000    0.000000
         Rot=    1.000000    0.000000    0.000000    0.000000 Ang=   0.00 deg.
 Requested convergence on RMS density matrix=1.00D-08 within 128 cycles.
 Requested convergence on MAX density matrix=1.00D-06.
 Requested convergence on             energy=1.00D-06.
 No special actions if energy rises.
 SCF Done:  E(RB3LYP) =  -2054.00622099     A.U. after    1 cycles
            NFock=  1  Conv=0.49D-08     -V/T= 2.0093

 **********************************************************************

            Population analysis using the SCF Density.

 **********************************************************************

 Alpha  occ. eigenvalues --  -19.31055 -19.29735 -19.26560 -19.25781 -19.25186
 Alpha  occ. eigenvalues --  -19.24068 -19.20086 -19.19703 -14.62992 -14.52832
 Alpha  occ. eigenvalues --  -14.48523 -14.46318 -14.43854 -14.39229 -14.38229
 Alpha  occ. eigenvalues --  -14.31939 -10.46488 -10.43666 -10.43617 -10.41091
 Alpha  occ. eigenvalues --  -10.38004 -10.37227 -10.36712 -10.36037 -10.34531
 Alpha  occ. eigenvalues --  -10.33500 -10.33441 -10.31859 -10.30918 -10.30850
 Alpha  occ. eigenvalues --  -10.30528 -10.29942 -10.27713 -10.27607 -10.27104
 Alpha  occ. eigenvalues --  -10.26469 -10.26393 -10.26349 -10.26067 -10.25619
 Alpha  occ. eigenvalues --  -10.25500 -10.25443  -1.22273  -1.21695  -1.16920
 Alpha  occ. eigenvalues --   -1.16558  -1.16030  -1.13402  -1.12912  -1.11911
 Alpha  occ. eigenvalues --   -1.09083  -1.07531  -1.06254  -1.04464  -1.01583
 Alpha  occ. eigenvalues --   -1.00793  -0.96986  -0.93197  -0.92413  -0.91393
 Alpha  occ. eigenvalues --   -0.89082  -0.88882  -0.88211  -0.86308  -0.85809
 Alpha  occ. eigenvalues --   -0.81769  -0.81318  -0.81092  -0.80267  -0.79517
 Alpha  occ. eigenvalues --   -0.76932  -0.76773  -0.75292  -0.74781  -0.73378
 Alpha  occ. eigenvalues --   -0.72453  -0.72330  -0.70501  -0.70163  -0.68588
 Alpha  occ. eigenvalues --   -0.67752  -0.66984  -0.66648  -0.65939  -0.65780
 Alpha  occ. eigenvalues --   -0.64985  -0.64280  -0.63987  -0.63148  -0.62558
 Alpha  occ. eigenvalues --   -0.62229  -0.61288  -0.60121  -0.59577  -0.59164
 Alpha  occ. eigenvalues --   -0.58724  -0.58597  -0.57414  -0.57210  -0.56676
 Alpha  occ. eigenvalues --   -0.56104  -0.55540  -0.55224  -0.54905  -0.54717
 Alpha  occ. eigenvalues --   -0.54509  -0.53831  -0.53438  -0.53108  -0.52561
 Alpha  occ. eigenvalues --   -0.52308  -0.51994  -0.51527  -0.51040  -0.50760
 Alpha  occ. eigenvalues --   -0.50709  -0.50623  -0.50328  -0.50052  -0.49618
 Alpha  occ. eigenvalues --   -0.49188  -0.48962  -0.48449  -0.48365  -0.48120
 Alpha  occ. eigenvalues --   -0.48001  -0.47899  -0.47134  -0.46300  -0.46179
 Alpha  occ. eigenvalues --   -0.45864  -0.44230  -0.44032  -0.43546  -0.43111
 Alpha  occ. eigenvalues --   -0.43063  -0.42875  -0.42687  -0.41616  -0.41238
 Alpha  occ. eigenvalues --   -0.40941  -0.40743  -0.39793  -0.38833  -0.38616
 Alpha  occ. eigenvalues --   -0.38378  -0.37709  -0.37525  -0.35427  -0.35211
 Alpha  occ. eigenvalues --   -0.33401  -0.32262  -0.31054  -0.30133  -0.29519
 Alpha  occ. eigenvalues --   -0.28453  -0.26079
 Alpha virt. eigenvalues --   -0.16043  -0.13477  -0.10720  -0.10364  -0.09076
 Alpha virt. eigenvalues --   -0.08707  -0.07554  -0.06711  -0.05183  -0.05134
 Alpha virt. eigenvalues --   -0.04979  -0.03842  -0.03712  -0.03089  -0.02527
 Alpha virt. eigenvalues --   -0.02136  -0.01177  -0.00257   0.00193   0.01031
 Alpha virt. eigenvalues --    0.01469   0.01737   0.02136   0.02558   0.02815
 Alpha virt. eigenvalues --    0.03483   0.03737   0.04032   0.04129   0.04803
 Alpha virt. eigenvalues --    0.04981   0.05448   0.06047   0.06353   0.06525
 Alpha virt. eigenvalues --    0.06601   0.06831   0.07229   0.07792   0.08133
 Alpha virt. eigenvalues --    0.08594   0.08814   0.09149   0.09255   0.09615
 Alpha virt. eigenvalues --    0.09807   0.10088   0.10589   0.10798   0.11167
 Alpha virt. eigenvalues --    0.11470   0.11712   0.11802   0.12392   0.12771
 Alpha virt. eigenvalues --    0.12848   0.13511   0.13717   0.14518   0.15120
 Alpha virt. eigenvalues --    0.15342   0.16042   0.16205   0.16619   0.17325
 Alpha virt. eigenvalues --    0.17694   0.18346   0.18566   0.19292   0.19514
 Alpha virt. eigenvalues --    0.19835   0.20718   0.21466   0.22008   0.23657
 Alpha virt. eigenvalues --    0.24017   0.25048   0.25254   0.25969   0.26994
 Alpha virt. eigenvalues --    0.27958   0.28604   0.29209   0.30319   0.30732
 Alpha virt. eigenvalues --    0.31912   0.32718   0.33001   0.33739   0.34890
 Alpha virt. eigenvalues --    0.35158   0.35561   0.37497   0.38135   0.39078
 Alpha virt. eigenvalues --    0.40234   0.41584   0.41783   0.42248   0.42756
 Alpha virt. eigenvalues --    0.43104   0.43571   0.43750   0.44107   0.44648
 Alpha virt. eigenvalues --    0.45200   0.45772   0.46750   0.46948   0.47160
 Alpha virt. eigenvalues --    0.48016   0.48302   0.48392   0.48619   0.48770
 Alpha virt. eigenvalues --    0.49121   0.49363   0.49770   0.50743   0.51404
 Alpha virt. eigenvalues --    0.51798   0.51862   0.52554   0.52844   0.53487
 Alpha virt. eigenvalues --    0.53712   0.54157   0.54673   0.54972   0.55188
 Alpha virt. eigenvalues --    0.55774   0.55874   0.56119   0.56384   0.57064
 Alpha virt. eigenvalues --    0.57750   0.57999   0.58313   0.58635   0.58839
 Alpha virt. eigenvalues --    0.59317   0.59487   0.59878   0.60045   0.60307
 Alpha virt. eigenvalues --    0.60916   0.61392   0.61701   0.62440   0.62666
 Alpha virt. eigenvalues --    0.63175   0.64533   0.64593   0.65118   0.65830
 Alpha virt. eigenvalues --    0.66256   0.66651   0.67023   0.67550   0.68017
 Alpha virt. eigenvalues --    0.68421   0.68959   0.68983   0.69242   0.70099
 Alpha virt. eigenvalues --    0.70416   0.70769   0.71302   0.71488   0.72087
 Alpha virt. eigenvalues --    0.72277   0.72421   0.72938   0.73413   0.73551
 Alpha virt. eigenvalues --    0.74234   0.74715   0.75050   0.75363   0.75595
 Alpha virt. eigenvalues --    0.75810   0.76281   0.76453   0.76613   0.76877
 Alpha virt. eigenvalues --    0.77657   0.78243   0.78582   0.78781   0.78948
 Alpha virt. eigenvalues --    0.79035   0.79792   0.80283   0.80721   0.80997
 Alpha virt. eigenvalues --    0.81031   0.81399   0.81821   0.82108   0.82435
 Alpha virt. eigenvalues --    0.82867   0.82933   0.83791   0.84581   0.85078
 Alpha virt. eigenvalues --    0.85340   0.85623   0.85817   0.86010   0.86056
 Alpha virt. eigenvalues --    0.86552   0.86921   0.87233   0.87953   0.88577
 Alpha virt. eigenvalues --    0.89279   0.89592   0.89875   0.90416   0.90973
 Alpha virt. eigenvalues --    0.91427   0.91820   0.92618   0.93018   0.93713
 Alpha virt. eigenvalues --    0.93952   0.95101   0.95914   0.96087   0.96488
 Alpha virt. eigenvalues --    0.96634   0.97337   0.97675   0.98610   0.99341
 Alpha virt. eigenvalues --    0.99747   1.00529   1.01722   1.02391   1.02947
 Alpha virt. eigenvalues --    1.03658   1.04329   1.04859   1.05271   1.05831
 Alpha virt. eigenvalues --    1.06227   1.07663   1.07970   1.09481   1.09772
 Alpha virt. eigenvalues --    1.10729   1.11329   1.11972   1.12286   1.13273
 Alpha virt. eigenvalues --    1.14068   1.14628   1.15533   1.16024   1.16578
 Alpha virt. eigenvalues --    1.17009   1.17660   1.18012   1.18774   1.19780
 Alpha virt. eigenvalues --    1.20188   1.21126   1.21914   1.22467   1.23653
 Alpha virt. eigenvalues --    1.25109   1.26038   1.26952   1.27925   1.28115
 Alpha virt. eigenvalues --    1.28558   1.29773   1.30543   1.30890   1.31537
 Alpha virt. eigenvalues --    1.31674   1.32274   1.32757   1.33221   1.34192
 Alpha virt. eigenvalues --    1.34582   1.35051   1.35274   1.35920   1.36517
 Alpha virt. eigenvalues --    1.37589   1.38062   1.38329   1.39060   1.39698
 Alpha virt. eigenvalues --    1.40247   1.41248   1.42384   1.42488   1.43390
 Alpha virt. eigenvalues --    1.44363   1.44774   1.46102   1.46990   1.49243
 Alpha virt. eigenvalues --    1.49839   1.50746   1.52634   1.54243   1.54835
 Alpha virt. eigenvalues --    1.55177   1.56637   1.56979   1.58285   1.58451
 Alpha virt. eigenvalues --    1.59266   1.60012   1.60456   1.61124   1.61537
 Alpha virt. eigenvalues --    1.61867   1.62906   1.63736   1.64252   1.64997
 Alpha virt. eigenvalues --    1.66211   1.66287   1.66962   1.67796   1.68274
 Alpha virt. eigenvalues --    1.68516   1.69178   1.69556   1.70101   1.70401
 Alpha virt. eigenvalues --    1.70530   1.71289   1.71654   1.72063   1.72170
 Alpha virt. eigenvalues --    1.72721   1.73188   1.73739   1.74197   1.74983
 Alpha virt. eigenvalues --    1.75161   1.75427   1.76459   1.76604   1.76893
 Alpha virt. eigenvalues --    1.77974   1.78373   1.78930   1.80119   1.80279
 Alpha virt. eigenvalues --    1.80644   1.80952   1.81205   1.81755   1.82456
 Alpha virt. eigenvalues --    1.83301   1.83740   1.84359   1.85163   1.85915
 Alpha virt. eigenvalues --    1.86350   1.86531   1.86957   1.87504   1.88216
 Alpha virt. eigenvalues --    1.88848   1.89195   1.90050   1.90182   1.90664
 Alpha virt. eigenvalues --    1.91317   1.92057   1.92444   1.93396   1.94236
 Alpha virt. eigenvalues --    1.94728   1.95211   1.95570   1.95832   1.96852
 Alpha virt. eigenvalues --    1.97257   1.97804   1.98271   1.98767   1.98806
 Alpha virt. eigenvalues --    1.99923   2.00128   2.00676   2.01306   2.02279
 Alpha virt. eigenvalues --    2.02832   2.03387   2.04284   2.06554   2.07133
 Alpha virt. eigenvalues --    2.07822   2.08426   2.08868   2.09639   2.10396
 Alpha virt. eigenvalues --    2.10718   2.11134   2.11458   2.13582   2.13615
 Alpha virt. eigenvalues --    2.14314   2.15427   2.15897   2.17744   2.18003
 Alpha virt. eigenvalues --    2.18326   2.19401   2.20284   2.21273   2.21903
 Alpha virt. eigenvalues --    2.22361   2.22875   2.23619   2.24062   2.24270
 Alpha virt. eigenvalues --    2.25397   2.26056   2.26949   2.27594   2.29691
 Alpha virt. eigenvalues --    2.30501   2.30762   2.31683   2.31936   2.32705
 Alpha virt. eigenvalues --    2.33364   2.33774   2.36082   2.36946   2.37211
 Alpha virt. eigenvalues --    2.37513   2.38918   2.39094   2.40408   2.41308
 Alpha virt. eigenvalues --    2.42662   2.43578   2.44558   2.45180   2.45388
 Alpha virt. eigenvalues --    2.46856   2.47214   2.47954   2.48505   2.49391
 Alpha virt. eigenvalues --    2.50299   2.50807   2.51924   2.53785   2.54341
 Alpha virt. eigenvalues --    2.54848   2.55385   2.56030   2.56765   2.57450
 Alpha virt. eigenvalues --    2.58645   2.59188   2.59515   2.60158   2.61059
 Alpha virt. eigenvalues --    2.61874   2.62390   2.63871   2.64760   2.65586
 Alpha virt. eigenvalues --    2.66387   2.67799   2.68050   2.69798   2.71282
 Alpha virt. eigenvalues --    2.71544   2.72371   2.73576   2.74012   2.75238
 Alpha virt. eigenvalues --    2.77375   2.78291   2.79887   2.80725   2.83013
 Alpha virt. eigenvalues --    2.85505   2.86373   2.86448   2.87462   2.89219
 Alpha virt. eigenvalues --    2.92213   2.93678   2.95383   2.95667   2.96547
 Alpha virt. eigenvalues --    2.97244   2.99744   3.01667   3.03983   3.05016
 Alpha virt. eigenvalues --    3.07272   3.11994   3.17582   3.36846   3.60704
 Alpha virt. eigenvalues --    3.72265   3.76192   3.78171   3.78866   3.86971
 Alpha virt. eigenvalues --    3.90446   3.94323   3.97606   3.97921   3.99466
 Alpha virt. eigenvalues --    4.00289   4.02584   4.05873   4.07728   4.10127
 Alpha virt. eigenvalues --    4.13118   4.14253   4.15001   4.15930   4.16310
 Alpha virt. eigenvalues --    4.17140   4.18430   4.22895   4.23684   4.25476
 Alpha virt. eigenvalues --    4.27503   4.28693   4.29788   4.33413   4.34965
 Alpha virt. eigenvalues --    4.35927   4.37705   4.42093   4.47626   4.49716
 Alpha virt. eigenvalues --    4.50446   4.52052   4.57225   4.58517   4.64696
 Alpha virt. eigenvalues --    4.73567
          Condensed to atoms (all electrons):
 Mulliken charges:
               1
     1  N   -0.747520
     2  H    0.423506
     3  H    0.436258
     4  H    0.418635
     5  C   -0.120353
     6  H    0.216156
     7  C    0.659388
     8  C   -0.329809
     9  H    0.175744
    10  H    0.244666
    11  O   -0.527849
    12  C   -0.393328
    13  H    0.186166
    14  H    0.221640
    15  C    0.576708
    16  O   -0.418387
    17  O   -0.559353
    18  N   -0.590359
    19  H    0.360489
    20  C   -0.080174
    21  H    0.195231
    22  C    0.648055
    23  C   -0.348087
    24  H    0.172339
    25  H    0.174870
    26  O   -0.557551
    27  C    0.076165
    28  C   -0.009627
    29  H    0.146922
    30  C    0.081631
    31  C    0.314658
    32  C   -0.212091
    33  H    0.124670
    34  N   -0.691723
    35  H    0.343075
    36  C   -0.135135
    37  H    0.172691
    38  C   -0.210315
    39  H    0.146688
    40  C   -0.144306
    41  H    0.142116
    42  N   -0.591923
    43  H    0.363614
    44  C   -0.088129
    45  H    0.192374
    46  C    0.647035
    47  C    0.110537
    48  H    0.167378
    49  O   -0.523076
    50  C   -0.480506
    51  H    0.200206
    52  H    0.153128
    53  H    0.151696
    54  O   -0.655516
    55  H    0.402834
    56  N   -0.625670
    57  H    0.371010
    58  C   -0.009033
    59  H    0.176983
    60  C    0.602002
    61  C   -0.309961
    62  H    0.199927
    63  H    0.155540
    64  O   -0.457106
    65  C   -0.322835
    66  H    0.156206
    67  H    0.156122
    68  C   -0.131285
    69  H    0.133808
    70  H    0.166486
    71  N   -0.598748
    72  H    0.320112
    73  N   -0.742510
    74  H    0.339751
    75  H    0.316627
    76  N   -0.650431
    77  H    0.261320
    78  C    0.580367
    79  O   -0.569601
    80  H    0.431174
    81  H    0.417591
 Sum of Mulliken charges =   1.00000
 Mulliken charges with hydrogens summed into heavy atoms:
               1
     1  N    0.530880
     5  C    0.095803
     7  C    0.659388
     8  C    0.090602
    11  O   -0.527849
    12  C    0.014478
    15  C    0.576708
    16  O   -0.418387
    17  O   -0.128179
    18  N   -0.229870
    20  C    0.115058
    22  C    0.648055
    23  C   -0.000878
    26  O   -0.557551
    27  C    0.076165
    28  C    0.137295
    30  C    0.081631
    31  C    0.314658
    32  C   -0.087421
    34  N   -0.348648
    36  C    0.037556
    38  C   -0.063626
    40  C   -0.002190
    42  N   -0.228309
    44  C    0.104245
    46  C    0.647035
    47  C    0.277914
    49  O   -0.523076
    50  C    0.024523
    54  O   -0.252682
    56  N   -0.254660
    58  C    0.167950
    60  C    0.602002
    61  C    0.045506
    64  O   -0.457106
    65  C   -0.010508
    68  C    0.169009
    71  N   -0.278636
    73  N   -0.086132
    76  N   -0.389111
    78  C    0.580367
    79  O   -0.152010
 Electronic spatial extent (au):  <R**2>=          29719.6825
 Charge=              1.0000 electrons
 Dipole moment (field-independent basis, Debye):
    X=            -16.4847    Y=              0.8556    Z=             16.0788  Tot=             23.0435
 Quadrupole moment (field-independent basis, Debye-Ang):
   XX=           -193.2409   YY=           -234.0433   ZZ=           -189.7876
   XY=            -18.3035   XZ=            -25.1584   YZ=              3.8348
 Traceless Quadrupole moment (field-independent basis, Debye-Ang):
   XX=             12.4497   YY=            -28.3527   ZZ=             15.9030
   XY=            -18.3035   XZ=            -25.1584   YZ=              3.8348
 Octapole moment (field-independent basis, Debye-Ang**2):
  XXX=           -486.1761  YYY=          -1446.2778  ZZZ=           1030.4768  XYY=           -205.4773
  XXY=           -493.9484  XXZ=            618.3196  XZZ=           -389.9569  YZZ=           -708.1278
  YYZ=            273.0498  XYZ=             84.5238
 Hexadecapole moment (field-independent basis, Debye-Ang**3):
 XXXX=          -7255.1257 YYYY=         -11633.9708 ZZZZ=         -17447.7519 XXXY=           -958.2222
 XXXZ=           1248.0396 YYYX=          -1420.9891 YYYZ=           4112.8047 ZZZX=           1411.4371
 ZZZY=           5359.6980 XXYY=          -3718.5390 XXZZ=          -4035.8799 YYZZ=          -6017.1455
 XXYZ=           1917.9760 YYXZ=           1080.2997 ZZXY=           -942.6414
 N-N= 5.519684136939D+03 E-N=-1.579765828018D+04  KE= 2.035161836768D+03
 Unable to Open any file for archive entry.
 1\1\GINC-QML-003\SP\RB3LYP\6-31G(d)\C26H39N8O8(1+)\KENGMITH\13-May-202
 2\0\\# B3LYP/6-31G* empiricaldispersion=gd3 guess=read geom=check nosy
 mm integral(ultrafinegrid)\\Candidate Structure: Conf:102 Charge calc 
 in gas phase\\1,1\N,0,-3.8133836122,-0.1449792699,3.7929069255\H,0,-4.
 8379642888,-0.1118429528,3.8106019314\H,0,-3.5215950131,-0.8992396532,
 3.1148812135\H,0,-3.473239276,-0.3427335763,4.7386472369\C,0,-3.187954
 0494,1.0974051601,3.1848358311\H,0,-3.8592552534,1.9434504827,3.353290
 8997\C,0,-3.0480636907,0.7034732829,1.6962510813\C,0,-1.8036927579,1.3
 224632347,3.8332095654\H,0,-1.9447657498,1.3278323904,4.9233817687\H,0
 ,-1.1413058762,0.4864911626,3.5744502744\O,0,-3.0150447492,-0.50499302
 06,1.4362092668\C,0,-1.1561568584,2.65844165,3.4239346051\H,0,-1.82006
 52608,3.5020953663,3.6337990629\H,0,-0.8925347384,2.6635777419,2.36148
 61967\C,0,0.1293487415,2.9139987747,4.1927596368\O,0,0.3406681115,3.86
 89338081,4.8959799359\O,0,1.0296882389,1.9189685674,3.9811435739\N,0,-
 2.8895874676,1.6839169747,0.7942902348\H,0,-2.8372808115,2.6423580868,
 1.1230231543\C,0,-2.1505937053,1.3993421535,-0.4597904565\H,0,-2.48128
 59251,0.4148740113,-0.7954135624\C,0,-0.6779252625,1.3896147977,-0.008
 1279845\C,0,-2.4037656453,2.4468404536,-1.5378028715\H,0,-2.0542388893
 ,3.4181256442,-1.163723723\H,0,-3.4864260677,2.5305147373,-1.703254420
 7\O,0,-0.0910303659,2.4585842041,0.1960316411\C,0,-1.679582798,2.11682
 62954,-2.8145834039\C,0,-1.0905011429,0.9267998715,-3.1760218673\H,0,-
 1.0035587138,-0.0069596941,-2.6386886402\C,0,-1.4669358464,3.028353853
 7,-3.9111926076\C,0,-0.7479715706,2.3210686102,-4.9126763473\C,0,-1.79
 61778581,4.3766004698,-4.1358168903\H,0,-2.3453226136,4.9427957843,-3.
 3876474594\N,0,-0.5266617355,1.046338755,-4.4306449236\H,0,-0.05595902
 86,0.3058343462,-4.9280012379\C,0,-0.6951294771,4.2529827721,-6.310804
 1423\H,0,-0.3726902694,4.7598835156,-7.2138676406\C,0,-0.3629062111,2.
 9159254146,-6.1204867645\H,0,0.1817238355,2.3578506937,-6.8773223306\C
 ,0,-1.4013260814,4.9760008758,-5.3255788616\H,0,-1.6395946363,6.019597
 6449,-5.5080747805\N,0,-0.1632115289,0.1837310868,0.2933180713\H,0,-0.
 7605823581,-0.6327725264,0.2547611706\C,0,1.1366142966,0.0447517366,0.
 9622604656\H,0,1.2427923543,0.8908672143,1.6495002583\C,0,2.240016916,
 0.0881023294,-0.1240253773\C,0,1.1853421431,-1.2634701956,1.7494168496
 \H,0,1.2175434499,-2.0922783954,1.0297372013\O,0,2.765263747,-0.930559
 6462,-0.55891566\C,0,2.4105746765,-1.3214515025,2.6536814865\H,0,3.325
 4773056,-1.2559984554,2.0584653579\H,0,2.4366476055,-2.2696485412,3.20
 30229735\H,0,2.3823163339,-0.5004841024,3.377932201\O,0,-0.0421841222,
 -1.3305268558,2.5104295446\H,0,-0.0236721923,-2.1774921057,2.982980082
 \N,0,2.5059717434,1.3333652958,-0.5787122823\H,0,1.9484042845,2.099687
 0401,-0.2208755803\C,0,3.312982117,1.542128082,-1.7712067876\H,0,2.931
 9667195,0.9028435563,-2.5763068555\C,0,4.7712380128,1.1261259146,-1.59
 19279025\C,0,3.250301035,3.0134522296,-2.221652167\H,0,3.8273814865,3.
 0998745318,-3.1474146849\H,0,3.7471371676,3.644567139,-1.4727855018\O,
 0,5.4811039253,0.8099355451,-2.5166122417\C,0,1.8163398983,3.509510923
 3,-2.459329582\H,0,1.2492162515,2.7536888748,-3.0188791838\H,0,1.27903
 13063,3.6364441028,-1.5134667253\C,0,1.757852993,4.8385815791,-3.21679
 97107\H,0,0.7285972086,5.2292327068,-3.1547868937\H,0,2.4237713496,5.5
 69952709,-2.7448749686\N,0,2.1856548837,4.6516608713,-4.5987524608\H,0
 ,1.7540218531,3.8413977324,-5.0276875844\N,0,2.2902014902,6.980532855,
 -4.9340486457\H,0,2.3329076717,7.6885602254,-5.658647699\H,0,1.5479964
 494,7.1655066041,-4.2685213909\N,0,2.4372517165,5.5913873287,-6.779926
 2055\H,0,2.5706728502,4.611724384,-7.0389425816\C,0,2.2832212831,5.709
 0524628,-5.5082276209\O,0,5.1994801286,1.2232761888,-0.3125444736\H,0,
 1.8367179545,2.1537064144,4.4791963871\H,0,6.1420750428,0.9699321118,-
 0.327000712\\Version=ES64L-G16RevC.01\HF=-2054.006221\RMSD=4.902e-09\D
 ipole=-7.1924763,-3.4276536,7.9229182\Quadrupole=9.25608,-21.0795694,1
 1.8234894,-13.6082091,-18.7046464,2.8510602\PG=C01 [X(C26H39N8O8)]\\@
 The archive entry for this job was punched.


 A politician is a person who can make waves and then
 make you think he's the only one who can save the ship.
 -- Ivern Ball
 Job cpu time:       0 days  0 hours  3 minutes 34.8 seconds.
 Elapsed time:       0 days  0 hours  0 minutes 54.6 seconds.
 File lengths (MBytes):  RWF=    376 Int=      0 D2E=      0 Chk=     56 Scr=     16
 Normal termination of Gaussian 16 at Fri May 13 04:40:24 2022.
