 Entering Gaussian System, Link 0=/opt/software/Gaussian/g16-AVX2-C.01/g16/g16
 Input=charge-conf-34.com
 Output=charge-conf-34.log
 Initial command:
 /opt/software/Gaussian/g16-AVX2-C.01/g16/l1.exe "/mnt/gs18/scratch/users/kengmith/Gau-69205.inp" -scrdir="/mnt/gs18/scratch/users/kengmith/"
 Entering Link 1 = /opt/software/Gaussian/g16-AVX2-C.01/g16/l1.exe PID=     69353.
  
 Copyright (c) 1988-2019, Gaussian, Inc.  All Rights Reserved.
  
 This is part of the Gaussian(R) 16 program.  It is based on
 the Gaussian(R) 09 system (copyright 2009, Gaussian, Inc.),
 the Gaussian(R) 03 system (copyright 2003, Gaussian, Inc.),
 the Gaussian(R) 98 system (copyright 1998, Gaussian, Inc.),
 the Gaussian(R) 94 system (copyright 1995, Gaussian, Inc.),
 the Gaussian 92(TM) system (copyright 1992, Gaussian, Inc.),
 the Gaussian 90(TM) system (copyright 1990, Gaussian, Inc.),
 the Gaussian 88(TM) system (copyright 1988, Gaussian, Inc.),
 the Gaussian 86(TM) system (copyright 1986, Carnegie Mellon
 University), and the Gaussian 82(TM) system (copyright 1983,
 Carnegie Mellon University). Gaussian is a federally registered
 trademark of Gaussian, Inc.
  
 This software contains proprietary and confidential information,
 including trade secrets, belonging to Gaussian, Inc.
  
 This software is provided under written license and may be
 used, copied, transmitted, or stored only in accord with that
 written license.
  
 The following legend is applicable only to US Government
 contracts under FAR:
  
                    RESTRICTED RIGHTS LEGEND
  
 Use, reproduction and disclosure by the US Government is
 subject to restrictions as set forth in subparagraphs (a)
 and (c) of the Commercial Computer Software - Restricted
 Rights clause in FAR 52.227-19.
  
 Gaussian, Inc.
 340 Quinnipiac St., Bldg. 40, Wallingford CT 06492
  
  
 ---------------------------------------------------------------
 Warning -- This program may not be used in any manner that
 competes with the business of Gaussian, Inc. or will provide
 assistance to any competitor of Gaussian, Inc.  The licensee
 of this program is prohibited from giving any competitor of
 Gaussian, Inc. access to this program.  By using this program,
 the user acknowledges that Gaussian, Inc. is engaged in the
 business of creating and licensing software in the field of
 computational chemistry and represents and warrants to the
 licensee that it is not a competitor of Gaussian, Inc. and that
 it will not use this program in any manner prohibited above.
 ---------------------------------------------------------------
  

 Cite this work as:
 Gaussian 16, Revision C.01,
 M. J. Frisch, G. W. Trucks, H. B. Schlegel, G. E. Scuseria, 
 M. A. Robb, J. R. Cheeseman, G. Scalmani, V. Barone, 
 G. A. Petersson, H. Nakatsuji, X. Li, M. Caricato, A. V. Marenich, 
 J. Bloino, B. G. Janesko, R. Gomperts, B. Mennucci, H. P. Hratchian, 
 J. V. Ortiz, A. F. Izmaylov, J. L. Sonnenberg, D. Williams-Young, 
 F. Ding, F. Lipparini, F. Egidi, J. Goings, B. Peng, A. Petrone, 
 T. Henderson, D. Ranasinghe, V. G. Zakrzewski, J. Gao, N. Rega, 
 G. Zheng, W. Liang, M. Hada, M. Ehara, K. Toyota, R. Fukuda, 
 J. Hasegawa, M. Ishida, T. Nakajima, Y. Honda, O. Kitao, H. Nakai, 
 T. Vreven, K. Throssell, J. A. Montgomery, Jr., J. E. Peralta, 
 F. Ogliaro, M. J. Bearpark, J. J. Heyd, E. N. Brothers, K. N. Kudin, 
 V. N. Staroverov, T. A. Keith, R. Kobayashi, J. Normand, 
 K. Raghavachari, A. P. Rendell, J. C. Burant, S. S. Iyengar, 
 J. Tomasi, M. Cossi, J. M. Millam, M. Klene, C. Adamo, R. Cammi, 
 J. W. Ochterski, R. L. Martin, K. Morokuma, O. Farkas, 
 J. B. Foresman, and D. J. Fox, Gaussian, Inc., Wallingford CT, 2019.
 
 ******************************************
 Gaussian 16:  ES64L-G16RevC.01  3-Jul-2019
                13-May-2022 
 ******************************************
 %mem=8gb
 %nproc=4
 Will use up to    4 processors via shared memory.
 %chk=conf-34.chk
 ----------------------------------------------------------------------
 # B3LYP/6-31G* empiricaldispersion=gd3 guess=read geom=check nosymm in
 tegral(ultrafinegrid)
 ----------------------------------------------------------------------
 1/29=2,38=1,172=1/1;
 2/12=2,15=1,40=1/2;
 3/5=1,6=6,7=1,11=2,14=-4,25=1,30=1,74=-5,75=-5,116=-2,124=31/1,2,3;
 4/5=1/1;
 5/5=2,38=6/2;
 6/7=2,8=2,9=2,10=2,28=1/1;
 99/5=1,9=1/99;
 -----------------------------------------------------
 Candidate Structure: Conf:34 Charge calc in gas phase
 -----------------------------------------------------
 Structure from the checkpoint file:  "conf-34.chk"
 Charge =  1 Multiplicity = 1
 Redundant internal coordinates found in file.  (old form).
 N,0,-5.6631429084,2.3930322959,0.5821035606
 H,0,-5.9089350239,1.574429309,-0.0177843289
 H,0,-5.7412908293,2.0804467039,1.5617019959
 H,0,-6.2947958808,3.1680612287,0.3509884529
 C,0,-4.2185367872,2.7714182862,0.3357583029
 H,0,-4.0833028302,2.8524001262,-0.7439639079
 C,0,-3.4424567807,1.576441132,0.918377013
 C,0,-3.8044309591,4.0731409387,1.0302372351
 H,0,-3.7420241469,3.9060207583,2.1114334077
 H,0,-2.790336226,4.2795625836,0.6691879265
 O,0,-3.8546962049,1.0711077031,1.964747182
 C,0,-4.7009659786,5.3060637394,0.7687728497
 H,0,-4.176000866,6.199946669,1.1119070858
 H,0,-5.6383698409,5.2343418207,1.3319811068
 C,0,-5.020334614,5.491442845,-0.6983032205
 O,0,-4.4278858332,6.1690822832,-1.494261785
 O,0,-6.1072894469,4.7196423712,-1.0532453742
 N,0,-2.3870317791,1.1935682244,0.1897554912
 H,0,-2.278444067,1.65814586,-0.7348054131
 C,0,-1.781484077,-0.1073519421,0.3661032666
 H,0,-1.9993788105,-0.4379029086,1.386966357
 C,0,-0.2596789212,0.0355326962,0.2044959275
 C,0,-2.4180159221,-1.1178873318,-0.653888173
 H,0,-2.1400981738,-2.1408331767,-0.3709482394
 H,0,-1.9914855809,-0.9260276001,-1.6450734448
 O,0,0.2916020735,1.1325737926,0.2014789778
 C,0,-3.9110542342,-0.9896726954,-0.6785002956
 C,0,-4.6400416943,-0.2304752138,-1.5448948427
 H,0,-4.3123561289,0.3182150135,-2.4175346547
 C,0,-4.8319498184,-1.4842410861,0.3279947995
 C,0,-6.1129733675,-0.9833077592,0.0097241674
 C,0,-4.6740993919,-2.2861526818,1.4666715697
 H,0,-3.6961189195,-2.6681443584,1.7452111564
 N,0,-5.9786372574,-0.1269839389,-1.1064001185
 H,0,-6.7272256752,-0.0806168214,-1.7909609043
 C,0,-7.0673004006,-2.0942650809,1.8836922981
 H,0,-7.9260864162,-2.3548365044,2.494801929
 C,0,-7.24478062,-1.2767704218,0.7690614262
 H,0,-8.2266064917,-0.8956224618,0.5005144053
 C,0,-5.7952911324,-2.5867736456,2.2318964488
 H,0,-5.6922005029,-3.2120844028,3.1133785163
 N,0,0.4496035606,-1.1305558331,0.0983767246
 H,0,-0.066733659,-1.9188781531,-0.2757543717
 C,0,1.8308378428,-1.0558208736,-0.3826849402
 H,0,2.3657262969,-0.3493523016,0.2571116931
 C,0,1.8130210021,-0.5440245844,-1.836940836
 C,0,2.4830053795,-2.4485561434,-0.2139619064
 H,0,1.889680509,-3.1691733629,-0.8074981296
 O,0,0.838626146,-0.7250090721,-2.5639487466
 C,0,3.9331535206,-2.5012419311,-0.6758531624
 H,0,4.0304672201,-2.3297987159,-1.7507457249
 H,0,4.3417534103,-3.487266938,-0.4401357817
 H,0,4.5319310876,-1.7558831863,-0.1401649457
 O,0,2.4830079269,-2.8048131776,1.1594377623
 H,0,1.5981489085,-2.627035792,1.5180011206
 N,0,2.9255990962,0.1294617789,-2.2201500091
 H,0,3.7385408153,0.1434597605,-1.6155124254
 C,0,3.1386239803,0.604997942,-3.5759333695
 H,0,2.5048185569,0.0169508156,-4.2477932105
 C,0,4.6000456395,0.3580563585,-3.9315119867
 C,0,2.7852001108,2.1049064212,-3.7319203163
 H,0,3.0492874617,2.4220778305,-4.7472109133
 H,0,3.4124789812,2.6813582977,-3.0379935642
 O,0,5.4505660589,0.019019415,-3.1374765196
 C,0,1.3047130531,2.3691045767,-3.4495649044
 H,0,0.6887706859,1.8423463525,-4.1898491405
 H,0,1.0384673516,1.9490572407,-2.4743744482
 C,0,0.9364446447,3.8579961154,-3.4482211291
 H,0,1.5159230672,4.3961851176,-2.6889848558
 H,0,1.1766576137,4.3341466523,-4.4040950181
 N,0,-0.5064066406,4.0755396022,-3.2153529794
 H,0,-1.0537155506,3.9675007514,-4.0619405051
 N,0,-0.5293687195,3.7225407453,-0.901222214
 H,0,-0.4431686887,2.9191342373,-0.2785283374
 H,0,0.2889672264,4.3149633611,-0.908343001
 N,0,-2.2018039506,2.7574093467,-2.1717397335
 H,0,-2.4412858714,2.5313139961,-3.1357819122
 C,0,-1.1139862111,3.4758305524,-2.1218828359
 O,0,4.8352112229,0.5960117953,-5.234289692
 H,0,-6.2699823034,4.876375333,-2.0035082634
 H,0,5.7874657939,0.4459174601,-5.3911329441
 Recover connectivity data from disk.
                           ----------------------------
                           !    Current Parameters    !
                           ! (Angstroms and Degrees)  !
 --------------------------                            --------------------------
 ! Name  Definition              Value                                          !
 --------------------------------------------------------------------------------
 ! R1    R(1,2)                  1.0442                                         !
 ! R2    R(1,3)                  1.0312                                         !
 ! R3    R(1,4)                  1.0262                                         !
 ! R4    R(1,5)                  1.5135                                         !
 ! R5    R(5,6)                  1.0912                                         !
 ! R6    R(5,7)                  1.5394                                         !
 ! R7    R(5,8)                  1.5324                                         !
 ! R8    R(7,11)                 1.233                                          !
 ! R9    R(7,18)                 1.3384                                         !
 ! R10   R(8,9)                  1.0958                                         !
 ! R11   R(8,10)                 1.0961                                         !
 ! R12   R(8,12)                 1.5467                                         !
 ! R13   R(12,13)                1.092                                          !
 ! R14   R(12,14)                1.0959                                         !
 ! R15   R(12,15)                1.5128                                         !
 ! R16   R(15,16)                1.2016                                         !
 ! R17   R(15,17)                1.3795                                         !
 ! R18   R(17,80)                0.9767                                         !
 ! R19   R(18,19)                1.0404                                         !
 ! R20   R(18,20)                1.4457                                         !
 ! R21   R(20,21)                1.0949                                         !
 ! R22   R(20,22)                1.537                                          !
 ! R23   R(20,23)                1.5706                                         !
 ! R24   R(22,26)                1.2278                                         !
 ! R25   R(22,42)                1.369                                          !
 ! R26   R(23,24)                1.0971                                         !
 ! R27   R(23,25)                1.096                                          !
 ! R28   R(23,27)                1.4987                                         !
 ! R29   R(27,28)                1.3632                                         !
 ! R30   R(27,30)                1.4511                                         !
 ! R31   R(28,29)                1.0816                                         !
 ! R32   R(28,34)                1.4124                                         !
 ! R33   R(30,31)                1.4118                                         !
 ! R34   R(30,32)                1.4016                                         !
 ! R35   R(31,34)                1.4132                                         !
 ! R36   R(31,38)                1.3942                                         !
 ! R37   R(32,33)                1.0863                                         !
 ! R38   R(32,40)                1.3903                                         !
 ! R39   R(34,35)                1.0155                                         !
 ! R40   R(36,37)                1.0858                                         !
 ! R41   R(36,38)                1.3936                                         !
 ! R42   R(36,40)                1.4078                                         !
 ! R43   R(38,39)                1.0869                                         !
 ! R44   R(40,41)                1.0857                                         !
 ! R45   R(42,43)                1.0139                                         !
 ! R46   R(42,44)                1.4645                                         !
 ! R47   R(44,45)                1.093                                          !
 ! R48   R(44,46)                1.5418                                         !
 ! R49   R(44,47)                1.5471                                         !
 ! R50   R(46,49)                1.2291                                         !
 ! R51   R(46,56)                1.3558                                         !
 ! R52   R(47,48)                1.1062                                         !
 ! R53   R(47,50)                1.5228                                         !
 ! R54   R(47,54)                1.4189                                         !
 ! R55   R(50,51)                1.0928                                         !
 ! R56   R(50,52)                1.0931                                         !
 ! R57   R(50,53)                1.0959                                         !
 ! R58   R(54,55)                0.9712                                         !
 ! R59   R(56,57)                1.0132                                         !
 ! R60   R(56,58)                1.4525                                         !
 ! R61   R(58,59)                1.0949                                         !
 ! R62   R(58,60)                1.5242                                         !
 ! R63   R(58,61)                1.5489                                         !
 ! R64   R(60,64)                1.212                                          !
 ! R65   R(60,79)                1.345                                          !
 ! R66   R(61,62)                1.096                                          !
 ! R67   R(61,63)                1.0988                                         !
 ! R68   R(61,65)                1.5302                                         !
 ! R69   R(65,66)                1.0977                                         !
 ! R70   R(65,67)                1.0947                                         !
 ! R71   R(65,68)                1.5338                                         !
 ! R72   R(68,69)                1.0963                                         !
 ! R73   R(68,70)                1.0946                                         !
 ! R74   R(68,71)                1.4776                                         !
 ! R75   R(71,72)                1.0139                                         !
 ! R76   R(71,78)                1.3873                                         !
 ! R77   R(73,74)                1.0201                                         !
 ! R78   R(73,75)                1.0103                                         !
 ! R79   R(73,78)                1.3757                                         !
 ! R80   R(76,77)                1.0187                                         !
 ! R81   R(76,78)                1.3046                                         !
 ! R82   R(79,81)                0.9767                                         !
 ! A1    A(2,1,3)              106.8734                                         !
 ! A2    A(2,1,4)              108.5298                                         !
 ! A3    A(2,1,5)              109.0958                                         !
 ! A4    A(3,1,4)              113.3424                                         !
 ! A5    A(3,1,5)              107.6214                                         !
 ! A6    A(4,1,5)              111.2251                                         !
 ! A7    A(1,5,6)              107.3316                                         !
 ! A8    A(1,5,7)              103.0335                                         !
 ! A9    A(1,5,8)              113.3617                                         !
 ! A10   A(6,5,7)              111.6931                                         !
 ! A11   A(6,5,8)              110.604                                          !
 ! A12   A(7,5,8)              110.5883                                         !
 ! A13   A(5,7,11)             118.0857                                         !
 ! A14   A(5,7,18)             114.4294                                         !
 ! A15   A(11,7,18)            127.4745                                         !
 ! A16   A(5,8,9)              109.4503                                         !
 ! A17   A(5,8,10)             105.1127                                         !
 ! A18   A(5,8,12)             116.3522                                         !
 ! A19   A(9,8,10)             107.5202                                         !
 ! A20   A(9,8,12)             108.746                                          !
 ! A21   A(10,8,12)            109.2985                                         !
 ! A22   A(8,12,13)            108.7085                                         !
 ! A23   A(8,12,14)            110.9012                                         !
 ! A24   A(8,12,15)            112.5805                                         !
 ! A25   A(13,12,14)           107.6558                                         !
 ! A26   A(13,12,15)           107.8132                                         !
 ! A27   A(14,12,15)           109.0148                                         !
 ! A28   A(12,15,16)           127.4031                                         !
 ! A29   A(12,15,17)           110.3214                                         !
 ! A30   A(16,15,17)           122.2472                                         !
 ! A31   A(15,17,80)           106.9645                                         !
 ! A32   A(7,18,19)            115.9978                                         !
 ! A33   A(7,18,20)            121.4186                                         !
 ! A34   A(19,18,20)           117.8064                                         !
 ! A35   A(18,20,21)           107.579                                          !
 ! A36   A(18,20,22)           108.5558                                         !
 ! A37   A(18,20,23)           109.2683                                         !
 ! A38   A(21,20,22)           108.852                                          !
 ! A39   A(21,20,23)           109.3055                                         !
 ! A40   A(22,20,23)           113.1289                                         !
 ! A41   A(20,22,26)           121.8629                                         !
 ! A42   A(20,22,42)           116.2282                                         !
 ! A43   A(26,22,42)           121.8887                                         !
 ! A44   A(20,23,24)           109.2541                                         !
 ! A45   A(20,23,25)           108.48                                           !
 ! A46   A(20,23,27)           111.0612                                         !
 ! A47   A(24,23,25)           107.3294                                         !
 ! A48   A(24,23,27)           109.6545                                         !
 ! A49   A(25,23,27)           110.9693                                         !
 ! A50   A(23,27,28)           126.2131                                         !
 ! A51   A(23,27,30)           126.275                                          !
 ! A52   A(28,27,30)           106.9335                                         !
 ! A53   A(27,28,29)           129.2895                                         !
 ! A54   A(27,28,34)           110.5058                                         !
 ! A55   A(29,28,34)           120.0285                                         !
 ! A56   A(27,30,31)           107.3696                                         !
 ! A57   A(27,30,32)           133.3939                                         !
 ! A58   A(31,30,32)           119.2304                                         !
 ! A59   A(30,31,34)           107.8661                                         !
 ! A60   A(30,31,38)           122.6248                                         !
 ! A61   A(34,31,38)           129.4116                                         !
 ! A62   A(30,32,33)           120.7241                                         !
 ! A63   A(30,32,40)           118.687                                          !
 ! A64   A(33,32,40)           120.5887                                         !
 ! A65   A(28,34,31)           106.9116                                         !
 ! A66   A(28,34,35)           119.52                                           !
 ! A67   A(31,34,35)           119.3422                                         !
 ! A68   A(37,36,38)           119.3545                                         !
 ! A69   A(37,36,40)           119.4394                                         !
 ! A70   A(38,36,40)           121.206                                          !
 ! A71   A(31,38,36)           117.1103                                         !
 ! A72   A(31,38,39)           121.6646                                         !
 ! A73   A(36,38,39)           121.2217                                         !
 ! A74   A(32,40,36)           121.1226                                         !
 ! A75   A(32,40,41)           119.6595                                         !
 ! A76   A(36,40,41)           119.2178                                         !
 ! A77   A(22,42,43)           115.279                                          !
 ! A78   A(22,42,44)           118.076                                          !
 ! A79   A(43,42,44)           113.5006                                         !
 ! A80   A(42,44,45)           107.5938                                         !
 ! A81   A(42,44,46)           108.4133                                         !
 ! A82   A(42,44,47)           108.4097                                         !
 ! A83   A(45,44,46)           110.0743                                         !
 ! A84   A(45,44,47)           108.1647                                         !
 ! A85   A(46,44,47)           113.9894                                         !
 ! A86   A(44,46,49)           121.2107                                         !
 ! A87   A(44,46,56)           114.961                                          !
 ! A88   A(49,46,56)           123.8137                                         !
 ! A89   A(44,47,48)           107.5676                                         !
 ! A90   A(44,47,50)           113.5461                                         !
 ! A91   A(44,47,54)           109.366                                          !
 ! A92   A(48,47,50)           108.9952                                         !
 ! A93   A(48,47,54)           110.843                                          !
 ! A94   A(50,47,54)           106.5531                                         !
 ! A95   A(47,50,51)           112.1914                                         !
 ! A96   A(47,50,52)           108.7701                                         !
 ! A97   A(47,50,53)           110.3955                                         !
 ! A98   A(51,50,52)           108.6838                                         !
 ! A99   A(51,50,53)           108.9916                                         !
 ! A100  A(52,50,53)           107.6904                                         !
 ! A101  A(47,54,55)           108.1448                                         !
 ! A102  A(46,56,57)           119.7738                                         !
 ! A103  A(46,56,58)           123.1482                                         !
 ! A104  A(57,56,58)           115.7738                                         !
 ! A105  A(56,58,59)           108.1816                                         !
 ! A106  A(56,58,60)           107.7787                                         !
 ! A107  A(56,58,61)           112.1846                                         !
 ! A108  A(59,58,60)           108.9565                                         !
 ! A109  A(59,58,61)           109.0385                                         !
 ! A110  A(60,58,61)           110.621                                          !
 ! A111  A(58,60,64)           124.4269                                         !
 ! A112  A(58,60,79)           111.4035                                         !
 ! A113  A(64,60,79)           124.1509                                         !
 ! A114  A(58,61,62)           108.5761                                         !
 ! A115  A(58,61,63)           108.3113                                         !
 ! A116  A(58,61,65)           111.6785                                         !
 ! A117  A(62,61,63)           107.1974                                         !
 ! A118  A(62,61,65)           110.7393                                         !
 ! A119  A(63,61,65)           110.1963                                         !
 ! A120  A(61,65,66)           109.61                                           !
 ! A121  A(61,65,67)           109.4787                                         !
 ! A122  A(61,65,68)           113.5836                                         !
 ! A123  A(66,65,67)           106.2709                                         !
 ! A124  A(66,65,68)           109.3724                                         !
 ! A125  A(67,65,68)           108.259                                          !
 ! A126  A(65,68,69)           110.5022                                         !
 ! A127  A(65,68,70)           111.643                                          !
 ! A128  A(65,68,71)           112.1798                                         !
 ! A129  A(69,68,70)           105.9758                                         !
 ! A130  A(69,68,71)           109.5555                                         !
 ! A131  A(70,68,71)           106.7306                                         !
 ! A132  A(68,71,72)           112.3235                                         !
 ! A133  A(68,71,78)           119.2251                                         !
 ! A134  A(72,71,78)           112.0664                                         !
 ! A135  A(74,73,75)           113.4329                                         !
 ! A136  A(74,73,78)           115.8668                                         !
 ! A137  A(75,73,78)           116.3025                                         !
 ! A138  A(77,76,78)           110.7563                                         !
 ! A139  A(71,78,73)           115.832                                          !
 ! A140  A(71,78,76)           124.9691                                         !
 ! A141  A(73,78,76)           119.1436                                         !
 ! A142  A(60,79,81)           107.3866                                         !
 ! D1    D(2,1,5,6)             50.1055                                         !
 ! D2    D(2,1,5,7)            -67.909                                          !
 ! D3    D(2,1,5,8)            172.5418                                         !
 ! D4    D(3,1,5,6)            165.7156                                         !
 ! D5    D(3,1,5,7)             47.7012                                         !
 ! D6    D(3,1,5,8)            -71.848                                          !
 ! D7    D(4,1,5,6)            -69.5797                                         !
 ! D8    D(4,1,5,7)            172.4059                                         !
 ! D9    D(4,1,5,8)             52.8566                                         !
 ! D10   D(1,5,7,11)           -39.2193                                         !
 ! D11   D(1,5,7,18)           139.6968                                         !
 ! D12   D(6,5,7,11)          -154.1279                                         !
 ! D13   D(6,5,7,18)            24.7882                                         !
 ! D14   D(8,5,7,11)            82.2301                                         !
 ! D15   D(8,5,7,18)           -98.8539                                         !
 ! D16   D(1,5,8,9)             71.3788                                         !
 ! D17   D(1,5,8,10)          -173.4029                                         !
 ! D18   D(1,5,8,12)           -52.3515                                         !
 ! D19   D(6,5,8,9)           -168.0192                                         !
 ! D20   D(6,5,8,10)           -52.8009                                         !
 ! D21   D(6,5,8,12)            68.2505                                         !
 ! D22   D(7,5,8,9)            -43.7515                                         !
 ! D23   D(7,5,8,10)            71.4668                                         !
 ! D24   D(7,5,8,12)          -167.4818                                         !
 ! D25   D(5,7,18,19)           -7.3427                                         !
 ! D26   D(5,7,18,20)         -162.3109                                         !
 ! D27   D(11,7,18,19)         171.4523                                         !
 ! D28   D(11,7,18,20)          16.4841                                         !
 ! D29   D(5,8,12,13)         -166.5131                                         !
 ! D30   D(5,8,12,14)           75.3163                                         !
 ! D31   D(5,8,12,15)          -47.1314                                         !
 ! D32   D(9,8,12,13)           69.3938                                         !
 ! D33   D(9,8,12,14)          -48.7768                                         !
 ! D34   D(9,8,12,15)         -171.2245                                         !
 ! D35   D(10,8,12,13)         -47.7143                                         !
 ! D36   D(10,8,12,14)        -165.8849                                         !
 ! D37   D(10,8,12,15)          71.6673                                         !
 ! D38   D(8,12,15,16)         -93.3218                                         !
 ! D39   D(8,12,15,17)          84.7576                                         !
 ! D40   D(13,12,15,16)         26.5791                                         !
 ! D41   D(13,12,15,17)       -155.3415                                         !
 ! D42   D(14,12,15,16)        143.1746                                         !
 ! D43   D(14,12,15,17)        -38.746                                          !
 ! D44   D(12,15,17,80)        179.9567                                         !
 ! D45   D(16,15,17,80)         -1.8472                                         !
 ! D46   D(7,18,20,21)         -25.2906                                         !
 ! D47   D(7,18,20,22)        -142.9289                                         !
 ! D48   D(7,18,20,23)          93.2727                                         !
 ! D49   D(19,18,20,21)       -179.826                                          !
 ! D50   D(19,18,20,22)         62.5357                                         !
 ! D51   D(19,18,20,23)        -61.2627                                         !
 ! D52   D(18,20,22,26)         13.0908                                         !
 ! D53   D(18,20,22,42)       -168.5155                                         !
 ! D54   D(21,20,22,26)       -103.7334                                         !
 ! D55   D(21,20,22,42)         74.6603                                         !
 ! D56   D(23,20,22,26)        134.55                                           !
 ! D57   D(23,20,22,42)        -47.0563                                         !
 ! D58   D(18,20,23,24)       -166.8223                                         !
 ! D59   D(18,20,23,25)         76.4722                                         !
 ! D60   D(18,20,23,27)        -45.7386                                         !
 ! D61   D(21,20,23,24)        -49.3408                                         !
 ! D62   D(21,20,23,25)       -166.0464                                         !
 ! D63   D(21,20,23,27)         71.7429                                         !
 ! D64   D(22,20,23,24)         72.1208                                         !
 ! D65   D(22,20,23,25)        -44.5848                                         !
 ! D66   D(22,20,23,27)       -166.7955                                         !
 ! D67   D(20,22,42,43)         26.4212                                         !
 ! D68   D(20,22,42,44)        165.1596                                         !
 ! D69   D(26,22,42,43)       -155.1855                                         !
 ! D70   D(26,22,42,44)        -16.4471                                         !
 ! D71   D(20,23,27,28)         94.4817                                         !
 ! D72   D(20,23,27,30)        -75.6403                                         !
 ! D73   D(24,23,27,28)       -144.6703                                         !
 ! D74   D(24,23,27,30)         45.2077                                         !
 ! D75   D(25,23,27,28)        -26.2715                                         !
 ! D76   D(25,23,27,30)        163.6065                                         !
 ! D77   D(23,27,28,29)          7.3853                                         !
 ! D78   D(23,27,28,34)       -167.7048                                         !
 ! D79   D(30,27,28,29)        179.073                                          !
 ! D80   D(30,27,28,34)          3.9828                                         !
 ! D81   D(23,27,30,31)        171.6811                                         !
 ! D82   D(23,27,30,32)         -7.3851                                         !
 ! D83   D(28,27,30,31)          0.0001                                         !
 ! D84   D(28,27,30,32)       -179.0661                                         !
 ! D85   D(27,28,34,31)         -6.4415                                         !
 ! D86   D(27,28,34,35)       -145.9712                                         !
 ! D87   D(29,28,34,31)        177.9466                                         !
 ! D88   D(29,28,34,35)         38.4169                                         !
 ! D89   D(27,30,31,34)         -3.9173                                         !
 ! D90   D(27,30,31,38)        179.3635                                         !
 ! D91   D(32,30,31,34)        175.3051                                         !
 ! D92   D(32,30,31,38)         -1.4141                                         !
 ! D93   D(27,30,32,33)          0.1988                                         !
 ! D94   D(27,30,32,40)       -179.6285                                         !
 ! D95   D(31,30,32,33)       -178.7799                                         !
 ! D96   D(31,30,32,40)          1.3928                                         !
 ! D97   D(30,31,34,28)          6.2493                                         !
 ! D98   D(30,31,34,35)        145.8645                                         !
 ! D99   D(38,31,34,28)       -177.3273                                         !
 ! D100  D(38,31,34,35)        -37.7121                                         !
 ! D101  D(30,31,38,36)          0.3408                                         !
 ! D102  D(30,31,38,39)       -178.9942                                         !
 ! D103  D(34,31,38,36)       -175.6166                                         !
 ! D104  D(34,31,38,39)          5.0485                                         !
 ! D105  D(30,32,40,36)         -0.3764                                         !
 ! D106  D(30,32,40,41)        179.591                                          !
 ! D107  D(33,32,40,36)        179.796                                          !
 ! D108  D(33,32,40,41)         -0.2365                                         !
 ! D109  D(37,36,38,31)       -179.343                                          !
 ! D110  D(37,36,38,39)         -0.0049                                         !
 ! D111  D(40,36,38,31)          0.7193                                         !
 ! D112  D(40,36,38,39)       -179.9427                                         !
 ! D113  D(37,36,40,32)        179.3495                                         !
 ! D114  D(37,36,40,41)         -0.6181                                         !
 ! D115  D(38,36,40,32)         -0.7128                                         !
 ! D116  D(38,36,40,41)        179.3196                                         !
 ! D117  D(22,42,44,45)         54.8123                                         !
 ! D118  D(22,42,44,46)        -64.2053                                         !
 ! D119  D(22,42,44,47)        171.571                                          !
 ! D120  D(43,42,44,45)       -165.7505                                         !
 ! D121  D(43,42,44,46)         75.2319                                         !
 ! D122  D(43,42,44,47)        -48.9918                                         !
 ! D123  D(42,44,46,49)        -26.7588                                         !
 ! D124  D(42,44,46,56)        151.9042                                         !
 ! D125  D(45,44,46,49)       -144.2003                                         !
 ! D126  D(45,44,46,56)         34.4627                                         !
 ! D127  D(47,44,46,49)         94.0696                                         !
 ! D128  D(47,44,46,56)        -87.2674                                         !
 ! D129  D(42,44,47,48)         59.5672                                         !
 ! D130  D(42,44,47,50)       -179.7433                                         !
 ! D131  D(42,44,47,54)        -60.8889                                         !
 ! D132  D(45,44,47,48)        175.9577                                         !
 ! D133  D(45,44,47,50)        -63.3529                                         !
 ! D134  D(45,44,47,54)         55.5015                                         !
 ! D135  D(46,44,47,48)        -61.2632                                         !
 ! D136  D(46,44,47,50)         59.4262                                         !
 ! D137  D(46,44,47,54)        178.2806                                         !
 ! D138  D(44,46,56,57)          9.0609                                         !
 ! D139  D(44,46,56,58)        175.4587                                         !
 ! D140  D(49,46,56,57)       -172.3154                                         !
 ! D141  D(49,46,56,58)         -5.9176                                         !
 ! D142  D(44,47,50,51)        -64.7678                                         !
 ! D143  D(44,47,50,52)        174.9649                                         !
 ! D144  D(44,47,50,53)         57.0108                                         !
 ! D145  D(48,47,50,51)         55.1141                                         !
 ! D146  D(48,47,50,52)        -65.1533                                         !
 ! D147  D(48,47,50,53)        176.8926                                         !
 ! D148  D(54,47,50,51)        174.7762                                         !
 ! D149  D(54,47,50,52)         54.5088                                         !
 ! D150  D(54,47,50,53)        -63.4453                                         !
 ! D151  D(44,47,54,55)         46.9595                                         !
 ! D152  D(48,47,54,55)        -71.4751                                         !
 ! D153  D(50,47,54,55)        170.0679                                         !
 ! D154  D(46,56,58,59)        -21.7237                                         !
 ! D155  D(46,56,58,60)       -139.3938                                         !
 ! D156  D(46,56,58,61)         98.5891                                         !
 ! D157  D(57,56,58,59)        145.1743                                         !
 ! D158  D(57,56,58,60)         27.5042                                         !
 ! D159  D(57,56,58,61)        -94.5129                                         !
 ! D160  D(56,58,60,64)        -10.2798                                         !
 ! D161  D(56,58,60,79)        171.2421                                         !
 ! D162  D(59,58,60,64)       -127.4482                                         !
 ! D163  D(59,58,60,79)         54.0738                                         !
 ! D164  D(61,58,60,64)        112.6993                                         !
 ! D165  D(61,58,60,79)        -65.7787                                         !
 ! D166  D(56,58,61,62)        175.0981                                         !
 ! D167  D(56,58,61,63)         59.0089                                         !
 ! D168  D(56,58,61,65)        -62.5169                                         !
 ! D169  D(59,58,61,62)        -65.0877                                         !
 ! D170  D(59,58,61,63)        178.8231                                         !
 ! D171  D(59,58,61,65)         57.2974                                         !
 ! D172  D(60,58,61,62)         54.7156                                         !
 ! D173  D(60,58,61,63)        -61.3736                                         !
 ! D174  D(60,58,61,65)        177.1007                                         !
 ! D175  D(58,60,79,81)        178.3877                                         !
 ! D176  D(64,60,79,81)         -0.0953                                         !
 ! D177  D(58,61,65,66)        -63.343                                          !
 ! D178  D(58,61,65,67)         52.8569                                         !
 ! D179  D(58,61,65,68)        173.99                                           !
 ! D180  D(62,61,65,66)         57.7938                                         !
 ! D181  D(62,61,65,67)        173.9937                                         !
 ! D182  D(62,61,65,68)        -64.8732                                         !
 ! D183  D(63,61,65,66)        176.2281                                         !
 ! D184  D(63,61,65,67)        -67.572                                          !
 ! D185  D(63,61,65,68)         53.5611                                         !
 ! D186  D(61,65,68,69)        -59.2435                                         !
 ! D187  D(61,65,68,70)         58.4346                                         !
 ! D188  D(61,65,68,71)        178.1849                                         !
 ! D189  D(66,65,68,69)        177.9586                                         !
 ! D190  D(66,65,68,70)        -64.3633                                         !
 ! D191  D(66,65,68,71)         55.387                                          !
 ! D192  D(67,65,68,69)         62.5705                                         !
 ! D193  D(67,65,68,70)       -179.7514                                         !
 ! D194  D(67,65,68,71)        -60.0011                                         !
 ! D195  D(65,68,71,72)        -82.0853                                         !
 ! D196  D(65,68,71,78)         51.9475                                         !
 ! D197  D(69,68,71,72)        154.8084                                         !
 ! D198  D(69,68,71,78)        -71.1588                                         !
 ! D199  D(70,68,71,72)         40.4927                                         !
 ! D200  D(70,68,71,78)        174.5255                                         !
 ! D201  D(68,71,78,73)         54.0225                                         !
 ! D202  D(68,71,78,76)       -128.715                                          !
 ! D203  D(72,71,78,73)       -171.8364                                         !
 ! D204  D(72,71,78,76)          5.4262                                         !
 ! D205  D(74,73,78,71)       -137.2259                                         !
 ! D206  D(74,73,78,76)         45.3424                                         !
 ! D207  D(75,73,78,71)         -0.1166                                         !
 ! D208  D(75,73,78,76)       -177.5483                                         !
 ! D209  D(77,76,78,71)         11.7875                                         !
 ! D210  D(77,76,78,73)       -171.0336                                         !
 --------------------------------------------------------------------------------
 Symmetry turned off by external request.
 Stoichiometry    C26H39N8O8(1+)
 Framework group  C1[X(C26H39N8O8)]
 Deg. of freedom   237
 Full point group                 C1      NOp   1
                          Input orientation:                          
 ---------------------------------------------------------------------
 Center     Atomic      Atomic             Coordinates (Angstroms)
 Number     Number       Type             X           Y           Z
 ---------------------------------------------------------------------
      1          7           0       -5.663143    2.393032    0.582104
      2          1           0       -5.908935    1.574429   -0.017784
      3          1           0       -5.741291    2.080447    1.561702
      4          1           0       -6.294796    3.168061    0.350988
      5          6           0       -4.218537    2.771418    0.335758
      6          1           0       -4.083303    2.852400   -0.743964
      7          6           0       -3.442457    1.576441    0.918377
      8          6           0       -3.804431    4.073141    1.030237
      9          1           0       -3.742024    3.906021    2.111433
     10          1           0       -2.790336    4.279563    0.669188
     11          8           0       -3.854696    1.071108    1.964747
     12          6           0       -4.700966    5.306064    0.768773
     13          1           0       -4.176001    6.199947    1.111907
     14          1           0       -5.638370    5.234342    1.331981
     15          6           0       -5.020335    5.491443   -0.698303
     16          8           0       -4.427886    6.169082   -1.494262
     17          8           0       -6.107289    4.719642   -1.053245
     18          7           0       -2.387032    1.193568    0.189755
     19          1           0       -2.278444    1.658146   -0.734805
     20          6           0       -1.781484   -0.107352    0.366103
     21          1           0       -1.999379   -0.437903    1.386966
     22          6           0       -0.259679    0.035533    0.204496
     23          6           0       -2.418016   -1.117887   -0.653888
     24          1           0       -2.140098   -2.140833   -0.370948
     25          1           0       -1.991486   -0.926028   -1.645073
     26          8           0        0.291602    1.132574    0.201479
     27          6           0       -3.911054   -0.989673   -0.678500
     28          6           0       -4.640042   -0.230475   -1.544895
     29          1           0       -4.312356    0.318215   -2.417535
     30          6           0       -4.831950   -1.484241    0.327995
     31          6           0       -6.112973   -0.983308    0.009724
     32          6           0       -4.674099   -2.286153    1.466672
     33          1           0       -3.696119   -2.668144    1.745211
     34          7           0       -5.978637   -0.126984   -1.106400
     35          1           0       -6.727226   -0.080617   -1.790961
     36          6           0       -7.067300   -2.094265    1.883692
     37          1           0       -7.926086   -2.354837    2.494802
     38          6           0       -7.244781   -1.276770    0.769061
     39          1           0       -8.226606   -0.895622    0.500514
     40          6           0       -5.795291   -2.586774    2.231896
     41          1           0       -5.692201   -3.212084    3.113379
     42          7           0        0.449604   -1.130556    0.098377
     43          1           0       -0.066734   -1.918878   -0.275754
     44          6           0        1.830838   -1.055821   -0.382685
     45          1           0        2.365726   -0.349352    0.257112
     46          6           0        1.813021   -0.544025   -1.836941
     47          6           0        2.483005   -2.448556   -0.213962
     48          1           0        1.889681   -3.169173   -0.807498
     49          8           0        0.838626   -0.725009   -2.563949
     50          6           0        3.933154   -2.501242   -0.675853
     51          1           0        4.030467   -2.329799   -1.750746
     52          1           0        4.341753   -3.487267   -0.440136
     53          1           0        4.531931   -1.755883   -0.140165
     54          8           0        2.483008   -2.804813    1.159438
     55          1           0        1.598149   -2.627036    1.518001
     56          7           0        2.925599    0.129462   -2.220150
     57          1           0        3.738541    0.143460   -1.615512
     58          6           0        3.138624    0.604998   -3.575933
     59          1           0        2.504819    0.016951   -4.247793
     60          6           0        4.600046    0.358056   -3.931512
     61          6           0        2.785200    2.104906   -3.731920
     62          1           0        3.049287    2.422078   -4.747211
     63          1           0        3.412479    2.681358   -3.037994
     64          8           0        5.450566    0.019019   -3.137477
     65          6           0        1.304713    2.369105   -3.449565
     66          1           0        0.688771    1.842346   -4.189849
     67          1           0        1.038467    1.949057   -2.474374
     68          6           0        0.936445    3.857996   -3.448221
     69          1           0        1.515923    4.396185   -2.688985
     70          1           0        1.176658    4.334147   -4.404095
     71          7           0       -0.506407    4.075540   -3.215353
     72          1           0       -1.053716    3.967501   -4.061941
     73          7           0       -0.529369    3.722541   -0.901222
     74          1           0       -0.443169    2.919134   -0.278528
     75          1           0        0.288967    4.314963   -0.908343
     76          7           0       -2.201804    2.757409   -2.171740
     77          1           0       -2.441286    2.531314   -3.135782
     78          6           0       -1.113986    3.475831   -2.121883
     79          8           0        4.835211    0.596012   -5.234290
     80          1           0       -6.269982    4.876375   -2.003508
     81          1           0        5.787466    0.445917   -5.391133
 ---------------------------------------------------------------------
 Rotational constants (GHZ):           0.1103312           0.0521664           0.0395921
 Standard basis: 6-31G(d) (6D, 7F)
   708 basis functions,  1332 primitive gaussians,   708 cartesian basis functions
   157 alpha electrons      157 beta electrons
       nuclear repulsion energy      5445.7337972782 Hartrees.
 NAtoms=   81 NActive=   81 NUniq=   81 SFac= 1.00D+00 NAtFMM=   60 NAOKFM=T Big=T
 Integral buffers will be    131072 words long.
 Raffenetti 2 integral format.
 Two-electron integral symmetry is turned off.
 Nuclear repulsion after empirical dispersion term =     5445.6152464871 Hartrees.
 One-electron integrals computed using PRISM.
 NBasis=   708 RedAO= T EigKep=  3.75D-04  NBF=   708
 NBsUse=   708 1.00D-06 EigRej= -1.00D+00 NBFU=   708
 Initial guess from the checkpoint file:  "conf-34.chk"
 B after Tr=     0.000000    0.000000    0.000000
         Rot=    1.000000    0.000000    0.000000    0.000000 Ang=   0.00 deg.
 Requested convergence on RMS density matrix=1.00D-08 within 128 cycles.
 Requested convergence on MAX density matrix=1.00D-06.
 Requested convergence on             energy=1.00D-06.
 No special actions if energy rises.
 SCF Done:  E(RB3LYP) =  -2054.05598965     A.U. after    1 cycles
            NFock=  1  Conv=0.61D-08     -V/T= 2.0093

 **********************************************************************

            Population analysis using the SCF Density.

 **********************************************************************

 Alpha  occ. eigenvalues --  -19.31627 -19.28502 -19.25270 -19.23026 -19.22867
 Alpha  occ. eigenvalues --  -19.22818 -19.21954 -19.20499 -14.56655 -14.48933
 Alpha  occ. eigenvalues --  -14.46129 -14.45384 -14.44924 -14.44461 -14.43111
 Alpha  occ. eigenvalues --  -14.39542 -10.43369 -10.40993 -10.39836 -10.39500
 Alpha  occ. eigenvalues --  -10.38590 -10.37634 -10.36745 -10.33949 -10.32779
 Alpha  occ. eigenvalues --  -10.32623 -10.32341 -10.32018 -10.31999 -10.31981
 Alpha  occ. eigenvalues --  -10.31889 -10.31485 -10.30328 -10.29321 -10.28630
 Alpha  occ. eigenvalues --  -10.28482 -10.28120 -10.27999 -10.27848 -10.27336
 Alpha  occ. eigenvalues --  -10.27096 -10.24918  -1.21678  -1.19502  -1.15442
 Alpha  occ. eigenvalues --   -1.14624  -1.13049  -1.12331  -1.10861  -1.10637
 Alpha  occ. eigenvalues --   -1.09862  -1.07877  -1.07419  -1.03406  -1.02383
 Alpha  occ. eigenvalues --   -1.01659  -0.97801  -0.94352  -0.93635  -0.92850
 Alpha  occ. eigenvalues --   -0.90923  -0.89140  -0.87547  -0.85888  -0.84286
 Alpha  occ. eigenvalues --   -0.83122  -0.83057  -0.81825  -0.79069  -0.77601
 Alpha  occ. eigenvalues --   -0.76314  -0.75690  -0.72115  -0.71715  -0.71572
 Alpha  occ. eigenvalues --   -0.70945  -0.70338  -0.69268  -0.69084  -0.68871
 Alpha  occ. eigenvalues --   -0.68459  -0.68023  -0.67547  -0.67112  -0.66182
 Alpha  occ. eigenvalues --   -0.64702  -0.63928  -0.63105  -0.62094  -0.61467
 Alpha  occ. eigenvalues --   -0.59822  -0.59483  -0.59371  -0.58812  -0.58621
 Alpha  occ. eigenvalues --   -0.58116  -0.58101  -0.57851  -0.57174  -0.56873
 Alpha  occ. eigenvalues --   -0.56809  -0.56230  -0.55971  -0.55597  -0.55562
 Alpha  occ. eigenvalues --   -0.54651  -0.54532  -0.53961  -0.53741  -0.53090
 Alpha  occ. eigenvalues --   -0.52757  -0.52476  -0.52071  -0.51599  -0.51204
 Alpha  occ. eigenvalues --   -0.51085  -0.50668  -0.50328  -0.49694  -0.49417
 Alpha  occ. eigenvalues --   -0.48975  -0.48638  -0.48389  -0.48074  -0.47869
 Alpha  occ. eigenvalues --   -0.47604  -0.47171  -0.46872  -0.46481  -0.46110
 Alpha  occ. eigenvalues --   -0.45791  -0.45546  -0.44861  -0.44470  -0.44038
 Alpha  occ. eigenvalues --   -0.43699  -0.43501  -0.43494  -0.42920  -0.42411
 Alpha  occ. eigenvalues --   -0.40932  -0.40563  -0.38818  -0.38515  -0.37962
 Alpha  occ. eigenvalues --   -0.37478  -0.37201  -0.36759  -0.36024  -0.35758
 Alpha  occ. eigenvalues --   -0.35401  -0.34826  -0.34271  -0.33553  -0.32747
 Alpha  occ. eigenvalues --   -0.32514  -0.30984
 Alpha virt. eigenvalues --   -0.11289  -0.10841  -0.09488  -0.09121  -0.08260
 Alpha virt. eigenvalues --   -0.07952  -0.06590  -0.06326  -0.06161  -0.04727
 Alpha virt. eigenvalues --   -0.03116  -0.03000  -0.02188  -0.01596  -0.00540
 Alpha virt. eigenvalues --   -0.00250   0.00449   0.00729   0.00971   0.01163
 Alpha virt. eigenvalues --    0.01611   0.01790   0.02328   0.02735   0.03222
 Alpha virt. eigenvalues --    0.03540   0.03787   0.04218   0.04825   0.05545
 Alpha virt. eigenvalues --    0.05679   0.05964   0.06201   0.06408   0.06732
 Alpha virt. eigenvalues --    0.06962   0.07422   0.07792   0.08011   0.08387
 Alpha virt. eigenvalues --    0.08489   0.08837   0.09211   0.09245   0.09722
 Alpha virt. eigenvalues --    0.09855   0.10448   0.10658   0.10825   0.11131
 Alpha virt. eigenvalues --    0.11673   0.11792   0.11979   0.12455   0.12554
 Alpha virt. eigenvalues --    0.13025   0.13819   0.14099   0.14638   0.14780
 Alpha virt. eigenvalues --    0.14916   0.15726   0.16045   0.16466   0.16712
 Alpha virt. eigenvalues --    0.17588   0.17808   0.18426   0.19735   0.20242
 Alpha virt. eigenvalues --    0.20430   0.20686   0.20891   0.21600   0.22291
 Alpha virt. eigenvalues --    0.22655   0.24806   0.24886   0.24973   0.25818
 Alpha virt. eigenvalues --    0.28108   0.28697   0.29342   0.29799   0.30588
 Alpha virt. eigenvalues --    0.31247   0.32734   0.33138   0.33662   0.35073
 Alpha virt. eigenvalues --    0.36204   0.37377   0.38807   0.39791   0.40096
 Alpha virt. eigenvalues --    0.40990   0.41911   0.42066   0.42443   0.42888
 Alpha virt. eigenvalues --    0.43660   0.44033   0.44397   0.45034   0.45294
 Alpha virt. eigenvalues --    0.46035   0.46275   0.46658   0.46940   0.47284
 Alpha virt. eigenvalues --    0.47633   0.48194   0.48594   0.48872   0.49128
 Alpha virt. eigenvalues --    0.49189   0.49547   0.49852   0.50382   0.50640
 Alpha virt. eigenvalues --    0.50978   0.51101   0.51692   0.51965   0.52398
 Alpha virt. eigenvalues --    0.52505   0.53237   0.53563   0.53710   0.53998
 Alpha virt. eigenvalues --    0.54064   0.54550   0.55494   0.55753   0.56360
 Alpha virt. eigenvalues --    0.56472   0.56948   0.57206   0.57755   0.57910
 Alpha virt. eigenvalues --    0.58496   0.58975   0.59105   0.59410   0.59914
 Alpha virt. eigenvalues --    0.60401   0.60670   0.62094   0.62182   0.63026
 Alpha virt. eigenvalues --    0.63201   0.63599   0.64733   0.65267   0.66166
 Alpha virt. eigenvalues --    0.67152   0.67450   0.67500   0.68356   0.68536
 Alpha virt. eigenvalues --    0.69076   0.69548   0.69838   0.69893   0.70528
 Alpha virt. eigenvalues --    0.70809   0.71281   0.71842   0.72329   0.72842
 Alpha virt. eigenvalues --    0.72898   0.73092   0.73759   0.73832   0.74029
 Alpha virt. eigenvalues --    0.74246   0.74535   0.74701   0.75316   0.75515
 Alpha virt. eigenvalues --    0.75816   0.76098   0.76130   0.76768   0.77121
 Alpha virt. eigenvalues --    0.77611   0.77891   0.78885   0.79123   0.79380
 Alpha virt. eigenvalues --    0.79458   0.80181   0.80326   0.80703   0.81065
 Alpha virt. eigenvalues --    0.81178   0.81673   0.82352   0.82465   0.82801
 Alpha virt. eigenvalues --    0.83248   0.83772   0.83961   0.84519   0.84683
 Alpha virt. eigenvalues --    0.85051   0.85390   0.85871   0.86253   0.86326
 Alpha virt. eigenvalues --    0.86904   0.87037   0.87756   0.87898   0.88077
 Alpha virt. eigenvalues --    0.88506   0.89497   0.89892   0.90148   0.90652
 Alpha virt. eigenvalues --    0.91608   0.91908   0.92318   0.92880   0.93447
 Alpha virt. eigenvalues --    0.94205   0.95187   0.95470   0.96531   0.96784
 Alpha virt. eigenvalues --    0.97549   0.97769   0.98302   0.98675   0.99114
 Alpha virt. eigenvalues --    0.99825   1.00487   1.00750   1.01162   1.01812
 Alpha virt. eigenvalues --    1.02618   1.03318   1.03682   1.04203   1.05176
 Alpha virt. eigenvalues --    1.05479   1.07180   1.07577   1.09021   1.09548
 Alpha virt. eigenvalues --    1.09855   1.10292   1.10501   1.11206   1.12590
 Alpha virt. eigenvalues --    1.13276   1.14367   1.14693   1.15725   1.16063
 Alpha virt. eigenvalues --    1.16680   1.18321   1.18867   1.20657   1.20778
 Alpha virt. eigenvalues --    1.21912   1.22067   1.22519   1.23040   1.23571
 Alpha virt. eigenvalues --    1.24896   1.25238   1.25774   1.26735   1.27265
 Alpha virt. eigenvalues --    1.27462   1.28262   1.29342   1.30124   1.30640
 Alpha virt. eigenvalues --    1.31101   1.32084   1.32862   1.32900   1.33638
 Alpha virt. eigenvalues --    1.34486   1.35029   1.36245   1.36677   1.36968
 Alpha virt. eigenvalues --    1.37566   1.38662   1.39113   1.39442   1.40164
 Alpha virt. eigenvalues --    1.41097   1.41710   1.43531   1.44791   1.45303
 Alpha virt. eigenvalues --    1.46259   1.47326   1.47478   1.48086   1.48747
 Alpha virt. eigenvalues --    1.49384   1.50784   1.51770   1.52627   1.53150
 Alpha virt. eigenvalues --    1.54142   1.54574   1.54964   1.56488   1.58448
 Alpha virt. eigenvalues --    1.58792   1.59520   1.59998   1.60784   1.61493
 Alpha virt. eigenvalues --    1.62892   1.63215   1.63891   1.64212   1.65056
 Alpha virt. eigenvalues --    1.65367   1.65966   1.66925   1.67060   1.67661
 Alpha virt. eigenvalues --    1.69077   1.69511   1.69756   1.70462   1.70648
 Alpha virt. eigenvalues --    1.70726   1.71308   1.71587   1.72205   1.72518
 Alpha virt. eigenvalues --    1.72893   1.73968   1.74246   1.74572   1.74743
 Alpha virt. eigenvalues --    1.74876   1.75497   1.76446   1.77313   1.77612
 Alpha virt. eigenvalues --    1.77719   1.78793   1.79214   1.79727   1.79855
 Alpha virt. eigenvalues --    1.80334   1.81278   1.81936   1.82064   1.82483
 Alpha virt. eigenvalues --    1.82944   1.83206   1.83416   1.83931   1.84539
 Alpha virt. eigenvalues --    1.85225   1.85341   1.85662   1.87059   1.87324
 Alpha virt. eigenvalues --    1.87752   1.88134   1.88617   1.89962   1.91099
 Alpha virt. eigenvalues --    1.91295   1.92062   1.92180   1.93109   1.93331
 Alpha virt. eigenvalues --    1.94125   1.94226   1.94526   1.94991   1.95994
 Alpha virt. eigenvalues --    1.96508   1.97710   1.98117   1.98491   2.00127
 Alpha virt. eigenvalues --    2.00431   2.00981   2.01733   2.02888   2.02987
 Alpha virt. eigenvalues --    2.04278   2.04818   2.05405   2.06107   2.07539
 Alpha virt. eigenvalues --    2.08567   2.09560   2.09769   2.10467   2.11375
 Alpha virt. eigenvalues --    2.11838   2.13144   2.13848   2.14377   2.14403
 Alpha virt. eigenvalues --    2.15383   2.16397   2.17608   2.18245   2.18486
 Alpha virt. eigenvalues --    2.18696   2.19309   2.20064   2.21110   2.21341
 Alpha virt. eigenvalues --    2.23116   2.23187   2.24771   2.25474   2.25911
 Alpha virt. eigenvalues --    2.26308   2.26956   2.27528   2.28059   2.29416
 Alpha virt. eigenvalues --    2.29589   2.30754   2.31648   2.31759   2.33558
 Alpha virt. eigenvalues --    2.33944   2.34777   2.35117   2.36047   2.36493
 Alpha virt. eigenvalues --    2.36678   2.37713   2.38983   2.39315   2.39741
 Alpha virt. eigenvalues --    2.41312   2.42551   2.43538   2.43971   2.45232
 Alpha virt. eigenvalues --    2.45452   2.46103   2.47390   2.49126   2.49659
 Alpha virt. eigenvalues --    2.50218   2.50459   2.51649   2.52325   2.53017
 Alpha virt. eigenvalues --    2.54261   2.55213   2.55448   2.56535   2.57125
 Alpha virt. eigenvalues --    2.57859   2.58102   2.59400   2.59810   2.60709
 Alpha virt. eigenvalues --    2.61459   2.61773   2.63031   2.63230   2.65026
 Alpha virt. eigenvalues --    2.65434   2.66839   2.67856   2.68639   2.69915
 Alpha virt. eigenvalues --    2.70125   2.71961   2.72693   2.75202   2.75487
 Alpha virt. eigenvalues --    2.75905   2.77197   2.78472   2.82189   2.83132
 Alpha virt. eigenvalues --    2.85079   2.85903   2.87858   2.88501   2.89067
 Alpha virt. eigenvalues --    2.89484   2.90549   2.91327   2.91713   2.93942
 Alpha virt. eigenvalues --    2.95164   2.95897   2.98268   3.02421   3.05130
 Alpha virt. eigenvalues --    3.08635   3.10427   3.13679   3.35088   3.71520
 Alpha virt. eigenvalues --    3.74796   3.77458   3.78770   3.80617   3.87038
 Alpha virt. eigenvalues --    3.90740   3.95877   3.97289   3.97998   3.98874
 Alpha virt. eigenvalues --    4.00473   4.02041   4.03914   4.04511   4.05020
 Alpha virt. eigenvalues --    4.08408   4.11320   4.12074   4.13570   4.15159
 Alpha virt. eigenvalues --    4.17622   4.20559   4.21952   4.25932   4.26738
 Alpha virt. eigenvalues --    4.27968   4.28961   4.29204   4.30646   4.35656
 Alpha virt. eigenvalues --    4.37851   4.38867   4.41976   4.43173   4.45638
 Alpha virt. eigenvalues --    4.49320   4.55205   4.57202   4.61004   4.64149
 Alpha virt. eigenvalues --    4.71953
          Condensed to atoms (all electrons):
 Mulliken charges:
               1
     1  N   -0.774578
     2  H    0.438776
     3  H    0.409946
     4  H    0.413674
     5  C   -0.133481
     6  H    0.228961
     7  C    0.622682
     8  C   -0.303604
     9  H    0.190800
    10  H    0.226817
    11  O   -0.540251
    12  C   -0.368621
    13  H    0.217694
    14  H    0.170886
    15  C    0.585887
    16  O   -0.412101
    17  O   -0.607441
    18  N   -0.612813
    19  H    0.410172
    20  C   -0.081726
    21  H    0.215849
    22  C    0.653417
    23  C   -0.398633
    24  H    0.161988
    25  H    0.194224
    26  O   -0.525437
    27  C    0.099211
    28  C   -0.055434
    29  H    0.164376
    30  C    0.142697
    31  C    0.225126
    32  C   -0.190359
    33  H    0.135519
    34  N   -0.717508
    35  H    0.350593
    36  C   -0.143115
    37  H    0.153655
    38  C   -0.185566
    39  H    0.139457
    40  C   -0.131975
    41  H    0.152389
    42  N   -0.630055
    43  H    0.350802
    44  C   -0.088824
    45  H    0.188744
    46  C    0.637453
    47  C    0.135544
    48  H    0.125310
    49  O   -0.550665
    50  C   -0.471231
    51  H    0.162021
    52  H    0.186025
    53  H    0.161228
    54  O   -0.613977
    55  H    0.399195
    56  N   -0.600450
    57  H    0.357589
    58  C   -0.051320
    59  H    0.205028
    60  C    0.587770
    61  C   -0.270117
    62  H    0.172137
    63  H    0.149220
    64  O   -0.458921
    65  C   -0.275250
    66  H    0.147603
    67  H    0.176756
    68  C   -0.172971
    69  H    0.157858
    70  H    0.170430
    71  N   -0.567762
    72  H    0.322184
    73  N   -0.766924
    74  H    0.393151
    75  H    0.341022
    76  N   -0.740204
    77  H    0.280672
    78  C    0.631984
    79  O   -0.559012
    80  H    0.427001
    81  H    0.428803
 Sum of Mulliken charges =   1.00000
 Mulliken charges with hydrogens summed into heavy atoms:
               1
     1  N    0.487818
     5  C    0.095479
     7  C    0.622682
     8  C    0.114013
    11  O   -0.540251
    12  C    0.019960
    15  C    0.585887
    16  O   -0.412101
    17  O   -0.180440
    18  N   -0.202641
    20  C    0.134122
    22  C    0.653417
    23  C   -0.042421
    26  O   -0.525437
    27  C    0.099211
    28  C    0.108943
    30  C    0.142697
    31  C    0.225126
    32  C   -0.054840
    34  N   -0.366915
    36  C    0.010540
    38  C   -0.046109
    40  C    0.020414
    42  N   -0.279253
    44  C    0.099920
    46  C    0.637453
    47  C    0.260854
    49  O   -0.550665
    50  C    0.038044
    54  O   -0.214782
    56  N   -0.242861
    58  C    0.153708
    60  C    0.587770
    61  C    0.051240
    64  O   -0.458921
    65  C    0.049109
    68  C    0.155317
    71  N   -0.245578
    73  N   -0.032751
    76  N   -0.459532
    78  C    0.631984
    79  O   -0.130208
 Electronic spatial extent (au):  <R**2>=          30393.5308
 Charge=              1.0000 electrons
 Dipole moment (field-independent basis, Debye):
    X=            -15.8969    Y=              8.6172    Z=             -6.7663  Tot=             19.3068
 Quadrupole moment (field-independent basis, Debye-Ang):
   XX=            -95.1334   YY=           -205.9641   ZZ=           -203.8303
   XY=            -30.8036   XZ=            -18.5234   YZ=            -11.8817
 Traceless Quadrupole moment (field-independent basis, Debye-Ang):
   XX=             73.1758   YY=            -37.6548   ZZ=            -35.5210
   XY=            -30.8036   XZ=            -18.5234   YZ=            -11.8817
 Octapole moment (field-independent basis, Debye-Ang**2):
  XXX=            242.5659  YYY=           -550.9179  ZZZ=            441.6525  XYY=            223.4094
  XXY=             79.8644  XXZ=             51.0269  XZZ=            386.2507  YZZ=           -126.0796
  YYZ=            230.2988  XYZ=              0.2175
 Hexadecapole moment (field-independent basis, Debye-Ang**3):
 XXXX=         -15985.0587 YYYY=         -10119.8232 ZZZZ=          -5350.6543 XXXY=            495.5571
 XXXZ=           1611.1730 YYYX=           1652.0911 YYYZ=           1696.3088 ZZZX=           1656.5450
 ZZZY=            993.8296 XXYY=          -4408.4916 XXZZ=          -3595.3193 YYZZ=          -2411.6034
 XXYZ=            248.5974 YYXZ=            353.4541 ZZXY=            659.0731
 N-N= 5.445615246487D+03 E-N=-1.564939081570D+04  KE= 2.035185509698D+03
 Unable to Open any file for archive entry.
 1\1\GINC-AMR-249\SP\RB3LYP\6-31G(d)\C26H39N8O8(1+)\KENGMITH\13-May-202
 2\0\\# B3LYP/6-31G* empiricaldispersion=gd3 guess=read geom=check nosy
 mm integral(ultrafinegrid)\\Candidate Structure: Conf:34 Charge calc i
 n gas phase\\1,1\N,0,-5.6631429084,2.3930322959,0.5821035606\H,0,-5.90
 89350239,1.574429309,-0.0177843289\H,0,-5.7412908293,2.0804467039,1.56
 17019959\H,0,-6.2947958808,3.1680612287,0.3509884529\C,0,-4.2185367872
 ,2.7714182862,0.3357583029\H,0,-4.0833028302,2.8524001262,-0.743963907
 9\C,0,-3.4424567807,1.576441132,0.918377013\C,0,-3.8044309591,4.073140
 9387,1.0302372351\H,0,-3.7420241469,3.9060207583,2.1114334077\H,0,-2.7
 90336226,4.2795625836,0.6691879265\O,0,-3.8546962049,1.0711077031,1.96
 4747182\C,0,-4.7009659786,5.3060637394,0.7687728497\H,0,-4.176000866,6
 .199946669,1.1119070858\H,0,-5.6383698409,5.2343418207,1.3319811068\C,
 0,-5.020334614,5.491442845,-0.6983032205\O,0,-4.4278858332,6.169082283
 2,-1.494261785\O,0,-6.1072894469,4.7196423712,-1.0532453742\N,0,-2.387
 0317791,1.1935682244,0.1897554912\H,0,-2.278444067,1.65814586,-0.73480
 54131\C,0,-1.781484077,-0.1073519421,0.3661032666\H,0,-1.9993788105,-0
 .4379029086,1.386966357\C,0,-0.2596789212,0.0355326962,0.2044959275\C,
 0,-2.4180159221,-1.1178873318,-0.653888173\H,0,-2.1400981738,-2.140833
 1767,-0.3709482394\H,0,-1.9914855809,-0.9260276001,-1.6450734448\O,0,0
 .2916020735,1.1325737926,0.2014789778\C,0,-3.9110542342,-0.9896726954,
 -0.6785002956\C,0,-4.6400416943,-0.2304752138,-1.5448948427\H,0,-4.312
 3561289,0.3182150135,-2.4175346547\C,0,-4.8319498184,-1.4842410861,0.3
 279947995\C,0,-6.1129733675,-0.9833077592,0.0097241674\C,0,-4.67409939
 19,-2.2861526818,1.4666715697\H,0,-3.6961189195,-2.6681443584,1.745211
 1564\N,0,-5.9786372574,-0.1269839389,-1.1064001185\H,0,-6.7272256752,-
 0.0806168214,-1.7909609043\C,0,-7.0673004006,-2.0942650809,1.883692298
 1\H,0,-7.9260864162,-2.3548365044,2.494801929\C,0,-7.24478062,-1.27677
 04218,0.7690614262\H,0,-8.2266064917,-0.8956224618,0.5005144053\C,0,-5
 .7952911324,-2.5867736456,2.2318964488\H,0,-5.6922005029,-3.2120844028
 ,3.1133785163\N,0,0.4496035606,-1.1305558331,0.0983767246\H,0,-0.06673
 3659,-1.9188781531,-0.2757543717\C,0,1.8308378428,-1.0558208736,-0.382
 6849402\H,0,2.3657262969,-0.3493523016,0.2571116931\C,0,1.8130210021,-
 0.5440245844,-1.836940836\C,0,2.4830053795,-2.4485561434,-0.2139619064
 \H,0,1.889680509,-3.1691733629,-0.8074981296\O,0,0.838626146,-0.725009
 0721,-2.5639487466\C,0,3.9331535206,-2.5012419311,-0.6758531624\H,0,4.
 0304672201,-2.3297987159,-1.7507457249\H,0,4.3417534103,-3.487266938,-
 0.4401357817\H,0,4.5319310876,-1.7558831863,-0.1401649457\O,0,2.483007
 9269,-2.8048131776,1.1594377623\H,0,1.5981489085,-2.627035792,1.518001
 1206\N,0,2.9255990962,0.1294617789,-2.2201500091\H,0,3.7385408153,0.14
 34597605,-1.6155124254\C,0,3.1386239803,0.604997942,-3.5759333695\H,0,
 2.5048185569,0.0169508156,-4.2477932105\C,0,4.6000456395,0.3580563585,
 -3.9315119867\C,0,2.7852001108,2.1049064212,-3.7319203163\H,0,3.049287
 4617,2.4220778305,-4.7472109133\H,0,3.4124789812,2.6813582977,-3.03799
 35642\O,0,5.4505660589,0.019019415,-3.1374765196\C,0,1.3047130531,2.36
 91045767,-3.4495649044\H,0,0.6887706859,1.8423463525,-4.1898491405\H,0
 ,1.0384673516,1.9490572407,-2.4743744482\C,0,0.9364446447,3.8579961154
 ,-3.4482211291\H,0,1.5159230672,4.3961851176,-2.6889848558\H,0,1.17665
 76137,4.3341466523,-4.4040950181\N,0,-0.5064066406,4.0755396022,-3.215
 3529794\H,0,-1.0537155506,3.9675007514,-4.0619405051\N,0,-0.5293687195
 ,3.7225407453,-0.901222214\H,0,-0.4431686887,2.9191342373,-0.278528337
 4\H,0,0.2889672264,4.3149633611,-0.908343001\N,0,-2.2018039506,2.75740
 93467,-2.1717397335\H,0,-2.4412858714,2.5313139961,-3.1357819122\C,0,-
 1.1139862111,3.4758305524,-2.1218828359\O,0,4.8352112229,0.5960117953,
 -5.234289692\H,0,-6.2699823034,4.876375333,-2.0035082634\H,0,5.7874657
 939,0.4459174601,-5.3911329441\\Version=ES64L-G16RevC.01\HF=-2054.0559
 897\RMSD=6.081e-09\Dipole=-3.6019765,1.6734061,-0.9917553\Quadrupole=5
 4.4044421,-27.9954429,-26.4089993,-22.9017126,-13.771686,-8.8337581\PG
 =C01 [X(C26H39N8O8)]\\@
 The archive entry for this job was punched.


 MOM AND DAD WENT TO ALPHA CENTAURI AND ALL
 I GOT WAS THIS DUMB T-SHIRT.
 Job cpu time:       0 days  0 hours  2 minutes 11.0 seconds.
 Elapsed time:       0 days  0 hours  0 minutes 33.5 seconds.
 File lengths (MBytes):  RWF=    376 Int=      0 D2E=      0 Chk=     56 Scr=     16
 Normal termination of Gaussian 16 at Fri May 13 04:35:10 2022.
