 Entering Gaussian System, Link 0=/opt/software/Gaussian/g16-AVX2-C.01/g16/g16
 Input=charge-conf-399.com
 Output=charge-conf-399.log
 Initial command:
 /opt/software/Gaussian/g16-AVX2-C.01/g16/l1.exe "/mnt/gs18/scratch/users/kengmith/Gau-78512.inp" -scrdir="/mnt/gs18/scratch/users/kengmith/"
 Entering Link 1 = /opt/software/Gaussian/g16-AVX2-C.01/g16/l1.exe PID=     78522.
  
 Copyright (c) 1988-2019, Gaussian, Inc.  All Rights Reserved.
  
 This is part of the Gaussian(R) 16 program.  It is based on
 the Gaussian(R) 09 system (copyright 2009, Gaussian, Inc.),
 the Gaussian(R) 03 system (copyright 2003, Gaussian, Inc.),
 the Gaussian(R) 98 system (copyright 1998, Gaussian, Inc.),
 the Gaussian(R) 94 system (copyright 1995, Gaussian, Inc.),
 the Gaussian 92(TM) system (copyright 1992, Gaussian, Inc.),
 the Gaussian 90(TM) system (copyright 1990, Gaussian, Inc.),
 the Gaussian 88(TM) system (copyright 1988, Gaussian, Inc.),
 the Gaussian 86(TM) system (copyright 1986, Carnegie Mellon
 University), and the Gaussian 82(TM) system (copyright 1983,
 Carnegie Mellon University). Gaussian is a federally registered
 trademark of Gaussian, Inc.
  
 This software contains proprietary and confidential information,
 including trade secrets, belonging to Gaussian, Inc.
  
 This software is provided under written license and may be
 used, copied, transmitted, or stored only in accord with that
 written license.
  
 The following legend is applicable only to US Government
 contracts under FAR:
  
                    RESTRICTED RIGHTS LEGEND
  
 Use, reproduction and disclosure by the US Government is
 subject to restrictions as set forth in subparagraphs (a)
 and (c) of the Commercial Computer Software - Restricted
 Rights clause in FAR 52.227-19.
  
 Gaussian, Inc.
 340 Quinnipiac St., Bldg. 40, Wallingford CT 06492
  
  
 ---------------------------------------------------------------
 Warning -- This program may not be used in any manner that
 competes with the business of Gaussian, Inc. or will provide
 assistance to any competitor of Gaussian, Inc.  The licensee
 of this program is prohibited from giving any competitor of
 Gaussian, Inc. access to this program.  By using this program,
 the user acknowledges that Gaussian, Inc. is engaged in the
 business of creating and licensing software in the field of
 computational chemistry and represents and warrants to the
 licensee that it is not a competitor of Gaussian, Inc. and that
 it will not use this program in any manner prohibited above.
 ---------------------------------------------------------------
  

 Cite this work as:
 Gaussian 16, Revision C.01,
 M. J. Frisch, G. W. Trucks, H. B. Schlegel, G. E. Scuseria, 
 M. A. Robb, J. R. Cheeseman, G. Scalmani, V. Barone, 
 G. A. Petersson, H. Nakatsuji, X. Li, M. Caricato, A. V. Marenich, 
 J. Bloino, B. G. Janesko, R. Gomperts, B. Mennucci, H. P. Hratchian, 
 J. V. Ortiz, A. F. Izmaylov, J. L. Sonnenberg, D. Williams-Young, 
 F. Ding, F. Lipparini, F. Egidi, J. Goings, B. Peng, A. Petrone, 
 T. Henderson, D. Ranasinghe, V. G. Zakrzewski, J. Gao, N. Rega, 
 G. Zheng, W. Liang, M. Hada, M. Ehara, K. Toyota, R. Fukuda, 
 J. Hasegawa, M. Ishida, T. Nakajima, Y. Honda, O. Kitao, H. Nakai, 
 T. Vreven, K. Throssell, J. A. Montgomery, Jr., J. E. Peralta, 
 F. Ogliaro, M. J. Bearpark, J. J. Heyd, E. N. Brothers, K. N. Kudin, 
 V. N. Staroverov, T. A. Keith, R. Kobayashi, J. Normand, 
 K. Raghavachari, A. P. Rendell, J. C. Burant, S. S. Iyengar, 
 J. Tomasi, M. Cossi, J. M. Millam, M. Klene, C. Adamo, R. Cammi, 
 J. W. Ochterski, R. L. Martin, K. Morokuma, O. Farkas, 
 J. B. Foresman, and D. J. Fox, Gaussian, Inc., Wallingford CT, 2019.
 
 ******************************************
 Gaussian 16:  ES64L-G16RevC.01  3-Jul-2019
                 8-Jul-2022 
 ******************************************
 %mem=8gb
 %nproc=4
 Will use up to    4 processors via shared memory.
 %chk=conf-399.chk
 ----------------------------------------------------------------------
 # B3LYP/6-31G* empiricaldispersion=gd3 guess=read geom=check nosymm in
 tegral(ultrafinegrid)
 ----------------------------------------------------------------------
 1/29=2,38=1,172=1/1;
 2/12=2,15=1,40=1/2;
 3/5=1,6=6,7=1,11=2,14=-4,25=1,30=1,74=-5,75=-5,116=-2,124=31/1,2,3;
 4/5=1/1;
 5/5=2,38=6/2;
 6/7=2,8=2,9=2,10=2,28=1/1;
 99/5=1,9=1/99;
 ------------------------------------------------------
 Candidate Structure: Conf:399 Charge calc in gas phase
 ------------------------------------------------------
 Structure from the checkpoint file:  "conf-399.chk"
 Charge =  1 Multiplicity = 1
 Redundant internal coordinates found in file.  (old form).
 N,0,-1.2956280618,-5.1631478719,-2.3761692354
 H,0,-1.5860120331,-6.1233101736,-2.1636886998
 H,0,-0.9022677686,-5.1196812395,-3.3238805355
 C,0,-2.4455247365,-4.2246220188,-2.2590823786
 H,0,-3.250167733,-4.4689611462,-2.9743198619
 C,0,-1.9435731532,-2.8440636742,-2.7022391277
 C,0,-3.0894161776,-4.2731811111,-0.8329181482
 H,0,-3.6362400367,-3.3420354934,-0.6515662014
 H,0,-3.8347092937,-5.0765851118,-0.8402129735
 O,0,-0.8112368759,-2.6945618835,-3.2292950606
 C,0,-2.1257494793,-4.5276370194,0.314167817
 C,0,-1.8035022407,-5.8482927058,0.663029907
 H,0,-2.2324944945,-6.6737436665,0.1034773172
 C,0,-1.6075801989,-3.4791568382,1.0838100342
 H,0,-1.847471533,-2.4428940504,0.8746949209
 C,0,-0.9703522462,-6.1200755864,1.7500967639
 H,0,-0.7470600058,-7.1465499217,2.0166078538
 C,0,-0.7904610078,-3.7496604258,2.1847931577
 H,0,-0.4222733847,-2.9264672328,2.7868050893
 C,0,-0.4676801857,-5.0670526439,2.5232056844
 H,0,0.1411040689,-5.275631046,3.3958465497
 N,0,-2.7967242307,-1.7930655512,-2.6122719281
 H,0,-3.7375701811,-1.9176737898,-2.2455751154
 C,0,-2.5228888558,-0.5341047382,-3.3629439833
 H,0,-1.9307469404,-0.7907329456,-4.245252429
 C,0,-1.7202374189,0.4492656726,-2.4845299047
 C,0,-3.8519544251,0.1238618477,-3.7853603536
 H,0,-4.4626645665,0.284113616,-2.8821247036
 H,0,-4.3859320776,-0.5458206055,-4.4632592536
 O,0,-2.1465246814,1.5854124824,-2.1979331611
 O,0,-3.5808066006,1.3393377862,-4.511355735
 H,0,-3.2197084941,1.9714589257,-3.8257583575
 N,0,-0.5441731218,-0.0582571598,-2.0039267532
 H,0,-0.20709098,-0.956919754,-2.3497614789
 C,0,0.1148061181,0.5964497153,-0.8725900408
 H,0,-0.3411716746,1.5827077702,-0.7775939225
 C,0,1.6224265004,0.6448839934,-0.9850512115
 C,0,-0.1946513353,-0.2613299762,0.3967928942
 H,0,0.178264833,0.2330854271,1.2918671824
 H,0,0.3303252903,-1.2195997275,0.2852754001
 O,0,2.3179939258,-0.327016995,-1.3827460358
 O,0,-1.63646009,-0.4327401434,0.5291241679
 H,0,-1.9543388135,-0.7501619569,-0.3622730378
 N,0,2.217544357,1.7279336848,-0.4362106104
 H,0,1.6611402162,2.4722067956,-0.0264166002
 C,0,3.6087295759,1.5701791807,-0.0138958516
 H,0,4.2023659819,1.2071058543,-0.8536347652
 C,0,3.611880951,0.5046164573,1.1209668321
 C,0,4.2321699948,2.8964212167,0.4914790576
 H,0,4.2160710934,3.6284392852,-0.3208653955
 H,0,3.7147931549,3.2757943473,1.3729277925
 O,0,2.5798934434,0.2282910206,1.7672021898
 C,0,5.6622649207,2.5170457758,0.84665626
 O,0,6.3977020194,1.910060011,0.0574267932
 O,0,5.9435687797,2.7194946889,2.1509390443
 N,0,4.8163219005,-0.0793161492,1.338504704
 H,0,5.6167772323,0.1862855481,0.7613145668
 C,0,5.0675449605,-0.9264842759,2.5113341315
 H,0,4.3885603179,-0.5914888566,3.3083330955
 C,0,6.4823712523,-0.6266951669,2.9999704691
 C,0,4.7887174851,-2.4234667194,2.2177717824
 H,0,5.4176918321,-3.042779707,2.8588003839
 H,0,5.073534923,-2.6086703377,1.1760032754
 O,0,7.1391231567,0.3878934623,2.7557541116
 C,0,3.2853865215,-2.7648524211,2.4514392837
 H,0,2.6867901699,-1.8511483182,2.3957240892
 H,0,3.1686213712,-3.1828818882,3.4570760615
 C,0,2.7180084257,-3.7665588831,1.4326074459
 H,0,3.4048734692,-4.6097978552,1.2844007847
 H,0,1.7676482029,-4.150544613,1.8096001333
 N,0,2.4627874651,-3.0766842907,0.1492141617
 H,0,2.9145907643,-2.1803922286,-0.0222565263
 N,0,0.9268973968,-4.6692789298,-0.6585245524
 H,0,0.1204771773,-4.8679935452,-1.3072752397
 H,0,0.9153178304,-5.1566313294,0.2300819948
 N,0,1.5337672729,-2.8481324445,-1.9528771753
 H,0,1.9319282447,-1.8979485802,-1.9808822615
 H,0,0.8113136143,-3.091025625,-2.6329929831
 C,0,1.6378165388,-3.5481263556,-0.8146681883
 O,0,6.9387808966,-1.6190812658,3.8100924117
 H,0,7.8422410559,-1.3865621847,4.1653046963
 H,0,6.7012947512,2.1052774704,2.4204278654
 Recover connectivity data from disk.
                           ----------------------------
                           !    Current Parameters    !
                           ! (Angstroms and Degrees)  !
 --------------------------                            --------------------------
 ! Name  Definition              Value                                          !
 --------------------------------------------------------------------------------
 ! R1    R(1,2)                  1.0254                                         !
 ! R2    R(1,3)                  1.027                                          !
 ! R3    R(1,4)                  1.4889                                         !
 ! R4    R(4,5)                  1.104                                          !
 ! R5    R(4,6)                  1.5344                                         !
 ! R6    R(4,7)                  1.5655                                         !
 ! R7    R(6,10)                 1.2579                                         !
 ! R8    R(6,22)                 1.3567                                         !
 ! R9    R(7,8)                  1.095                                          !
 ! R10   R(7,9)                  1.0959                                         !
 ! R11   R(7,11)                 1.5196                                         !
 ! R12   R(11,12)                1.4035                                         !
 ! R13   R(11,14)                1.4001                                         !
 ! R14   R(12,13)                1.0856                                         !
 ! R15   R(12,16)                1.3963                                         !
 ! R16   R(14,15)                1.084                                          !
 ! R17   R(14,18)                1.3975                                         !
 ! R18   R(16,17)                1.0838                                         !
 ! R19   R(16,20)                1.3997                                         !
 ! R20   R(18,19)                1.0843                                         !
 ! R21   R(18,20)                1.3979                                         !
 ! R22   R(20,21)                1.0843                                         !
 ! R23   R(22,23)                1.0174                                         !
 ! R24   R(22,24)                1.4911                                         !
 ! R25   R(24,25)                1.0931                                         !
 ! R26   R(24,26)                1.5437                                         !
 ! R27   R(24,27)                1.542                                          !
 ! R28   R(26,30)                1.2469                                         !
 ! R29   R(26,33)                1.3681                                         !
 ! R30   R(27,28)                1.102                                          !
 ! R31   R(27,29)                1.0923                                         !
 ! R32   R(27,31)                1.4415                                         !
 ! R33   R(31,32)                1.0                                            !
 ! R34   R(33,34)                1.0202                                         !
 ! R35   R(33,35)                1.4638                                         !
 ! R36   R(35,36)                1.0907                                         !
 ! R37   R(35,37)                1.5126                                         !
 ! R38   R(35,38)                1.563                                          !
 ! R39   R(37,41)                1.2596                                         !
 ! R40   R(37,44)                1.3522                                         !
 ! R41   R(38,39)                1.0884                                         !
 ! R42   R(38,40)                1.0983                                         !
 ! R43   R(38,42)                1.458                                          !
 ! R44   R(42,43)                0.9982                                         !
 ! R45   R(44,45)                1.0156                                         !
 ! R46   R(44,46)                1.4624                                         !
 ! R47   R(46,47)                1.0906                                         !
 ! R48   R(46,48)                1.5567                                         !
 ! R49   R(46,49)                1.5502                                         !
 ! R50   R(48,52)                1.2486                                         !
 ! R51   R(48,56)                1.3561                                         !
 ! R52   R(49,50)                1.0936                                         !
 ! R53   R(49,51)                1.0902                                         !
 ! R54   R(49,53)                1.5216                                         !
 ! R55   R(53,54)                1.2378                                         !
 ! R56   R(53,55)                1.3495                                         !
 ! R57   R(55,82)                1.0119                                         !
 ! R58   R(56,57)                1.022                                          !
 ! R59   R(56,58)                1.4684                                         !
 ! R60   R(58,59)                1.0993                                         !
 ! R61   R(58,60)                1.5266                                         !
 ! R62   R(58,61)                1.5508                                         !
 ! R63   R(60,64)                1.233                                          !
 ! R64   R(60,80)                1.3599                                         !
 ! R65   R(61,62)                1.0909                                         !
 ! R66   R(61,63)                1.0958                                         !
 ! R67   R(61,65)                1.5592                                         !
 ! R68   R(65,66)                1.0937                                         !
 ! R69   R(65,67)                1.0953                                         !
 ! R70   R(65,68)                1.5373                                         !
 ! R71   R(68,69)                1.0976                                         !
 ! R72   R(68,70)                1.0921                                         !
 ! R73   R(68,71)                1.4792                                         !
 ! R74   R(71,72)                1.0183                                         !
 ! R75   R(71,79)                1.3535                                         !
 ! R76   R(73,74)                1.0539                                         !
 ! R77   R(73,75)                1.0135                                         !
 ! R78   R(73,79)                1.3367                                         !
 ! R79   R(76,77)                1.0306                                         !
 ! R80   R(76,78)                1.0215                                         !
 ! R81   R(76,79)                1.3403                                         !
 ! R82   R(80,81)                0.9982                                         !
 ! A1    A(2,1,3)              109.8354                                         !
 ! A2    A(2,1,4)              110.8087                                         !
 ! A3    A(3,1,4)              109.9801                                         !
 ! A4    A(1,4,5)              111.8671                                         !
 ! A5    A(1,4,6)              106.9655                                         !
 ! A6    A(1,4,7)              111.6993                                         !
 ! A7    A(5,4,6)              104.505                                          !
 ! A8    A(5,4,7)              106.4731                                         !
 ! A9    A(6,4,7)              115.1865                                         !
 ! A10   A(4,6,10)             121.4956                                         !
 ! A11   A(4,6,22)             118.1743                                         !
 ! A12   A(10,6,22)            120.1188                                         !
 ! A13   A(4,7,8)              109.2628                                         !
 ! A14   A(4,7,9)              107.2407                                         !
 ! A15   A(4,7,11)             115.5963                                         !
 ! A16   A(8,7,9)              106.5528                                         !
 ! A17   A(8,7,11)             109.5161                                         !
 ! A18   A(9,7,11)             108.2729                                         !
 ! A19   A(7,11,12)            119.3942                                         !
 ! A20   A(7,11,14)            121.6189                                         !
 ! A21   A(12,11,14)           118.8865                                         !
 ! A22   A(11,12,13)           119.7789                                         !
 ! A23   A(11,12,16)           120.9094                                         !
 ! A24   A(13,12,16)           119.2792                                         !
 ! A25   A(11,14,15)           121.8663                                         !
 ! A26   A(11,14,18)           120.3                                            !
 ! A27   A(15,14,18)           117.8008                                         !
 ! A28   A(12,16,17)           119.9165                                         !
 ! A29   A(12,16,20)           119.8577                                         !
 ! A30   A(17,16,20)           120.1804                                         !
 ! A31   A(14,18,19)           119.2756                                         !
 ! A32   A(14,18,20)           120.5394                                         !
 ! A33   A(19,18,20)           120.176                                          !
 ! A34   A(16,20,18)           119.494                                          !
 ! A35   A(16,20,21)           120.0956                                         !
 ! A36   A(18,20,21)           120.3818                                         !
 ! A37   A(6,22,23)            120.6996                                         !
 ! A38   A(6,22,24)            120.3446                                         !
 ! A39   A(23,22,24)           117.0431                                         !
 ! A40   A(22,24,25)           107.9145                                         !
 ! A41   A(22,24,26)           110.2958                                         !
 ! A42   A(22,24,27)           109.8698                                         !
 ! A43   A(25,24,26)           109.0982                                         !
 ! A44   A(25,24,27)           110.2399                                         !
 ! A45   A(26,24,27)           109.404                                          !
 ! A46   A(24,26,30)           122.242                                          !
 ! A47   A(24,26,33)           114.2402                                         !
 ! A48   A(30,26,33)           123.4479                                         !
 ! A49   A(24,27,28)           108.3708                                         !
 ! A50   A(24,27,29)           109.2537                                         !
 ! A51   A(24,27,31)           109.6107                                         !
 ! A52   A(28,27,29)           109.0808                                         !
 ! A53   A(28,27,31)           113.229                                          !
 ! A54   A(29,27,31)           107.238                                          !
 ! A55   A(27,31,32)           104.811                                          !
 ! A56   A(26,33,34)           119.4537                                         !
 ! A57   A(26,33,35)           119.5094                                         !
 ! A58   A(34,33,35)           120.4787                                         !
 ! A59   A(33,35,36)           106.4715                                         !
 ! A60   A(33,35,37)           113.9259                                         !
 ! A61   A(33,35,38)           107.0432                                         !
 ! A62   A(36,35,37)           113.2164                                         !
 ! A63   A(36,35,38)           110.0444                                         !
 ! A64   A(37,35,38)           105.9799                                         !
 ! A65   A(35,37,41)           123.3103                                         !
 ! A66   A(35,37,44)           115.7307                                         !
 ! A67   A(41,37,44)           120.208                                          !
 ! A68   A(35,38,39)           110.5333                                         !
 ! A69   A(35,38,40)           107.5616                                         !
 ! A70   A(35,38,42)           109.5138                                         !
 ! A71   A(39,38,40)           108.4246                                         !
 ! A72   A(39,38,42)           108.5169                                         !
 ! A73   A(40,38,42)           112.2915                                         !
 ! A74   A(38,42,43)           105.7389                                         !
 ! A75   A(37,44,45)           120.6394                                         !
 ! A76   A(37,44,46)           116.7113                                         !
 ! A77   A(45,44,46)           118.9276                                         !
 ! A78   A(44,46,47)           109.3521                                         !
 ! A79   A(44,46,48)           106.636                                          !
 ! A80   A(44,46,49)           112.6094                                         !
 ! A81   A(47,46,48)           109.4114                                         !
 ! A82   A(47,46,49)           108.4777                                         !
 ! A83   A(48,46,49)           110.3124                                         !
 ! A84   A(46,48,52)           121.8118                                         !
 ! A85   A(46,48,56)           114.4241                                         !
 ! A86   A(52,48,56)           123.7639                                         !
 ! A87   A(46,49,50)           108.9401                                         !
 ! A88   A(46,49,51)           111.743                                          !
 ! A89   A(46,49,53)           103.9326                                         !
 ! A90   A(50,49,51)           111.1405                                         !
 ! A91   A(50,49,53)           110.739                                          !
 ! A92   A(51,49,53)           110.1247                                         !
 ! A93   A(49,53,54)           122.1302                                         !
 ! A94   A(49,53,55)           112.588                                          !
 ! A95   A(54,53,55)           124.467                                          !
 ! A96   A(53,55,82)           108.8082                                         !
 ! A97   A(48,56,57)           119.5478                                         !
 ! A98   A(48,56,58)           121.9035                                         !
 ! A99   A(57,56,58)           117.8411                                         !
 ! A100  A(56,58,59)           107.3123                                         !
 ! A101  A(56,58,60)           107.5126                                         !
 ! A102  A(56,58,61)           112.0214                                         !
 ! A103  A(59,58,60)           106.2921                                         !
 ! A104  A(59,58,61)           108.6846                                         !
 ! A105  A(60,58,61)           114.633                                          !
 ! A106  A(58,60,64)           126.288                                          !
 ! A107  A(58,60,80)           111.0032                                         !
 ! A108  A(64,60,80)           122.662                                          !
 ! A109  A(58,61,62)           109.4579                                         !
 ! A110  A(58,61,63)           107.2411                                         !
 ! A111  A(58,61,65)           110.8756                                         !
 ! A112  A(62,61,63)           108.2305                                         !
 ! A113  A(62,61,65)           110.0926                                         !
 ! A114  A(63,61,65)           110.8597                                         !
 ! A115  A(61,65,66)           109.7024                                         !
 ! A116  A(61,65,67)           108.9014                                         !
 ! A117  A(61,65,68)           113.5274                                         !
 ! A118  A(66,65,67)           107.8941                                         !
 ! A119  A(66,65,68)           107.9741                                         !
 ! A120  A(67,65,68)           108.6901                                         !
 ! A121  A(65,68,69)           111.0454                                         !
 ! A122  A(65,68,70)           108.7529                                         !
 ! A123  A(65,68,71)           109.5592                                         !
 ! A124  A(69,68,70)           108.7258                                         !
 ! A125  A(69,68,71)           110.4323                                         !
 ! A126  A(70,68,71)           108.2595                                         !
 ! A127  A(68,71,72)           118.6887                                         !
 ! A128  A(68,71,79)           124.096                                          !
 ! A129  A(72,71,79)           117.2011                                         !
 ! A130  A(74,73,75)           116.1225                                         !
 ! A131  A(74,73,79)           119.5513                                         !
 ! A132  A(75,73,79)           120.7833                                         !
 ! A133  A(77,76,78)           118.3176                                         !
 ! A134  A(77,76,79)           118.3334                                         !
 ! A135  A(78,76,79)           119.7445                                         !
 ! A136  A(71,79,73)           122.2174                                         !
 ! A137  A(71,79,76)           118.0463                                         !
 ! A138  A(73,79,76)           119.7337                                         !
 ! A139  A(60,80,81)           110.2273                                         !
 ! D1    D(2,1,4,5)            -61.6662                                         !
 ! D2    D(2,1,4,6)           -175.532                                          !
 ! D3    D(2,1,4,7)             57.5794                                         !
 ! D4    D(3,1,4,5)             59.9629                                         !
 ! D5    D(3,1,4,6)            -53.9029                                         !
 ! D6    D(3,1,4,7)            179.2085                                         !
 ! D7    D(1,4,6,10)             8.925                                          !
 ! D8    D(1,4,6,22)          -176.3521                                         !
 ! D9    D(5,4,6,10)          -109.8353                                         !
 ! D10   D(5,4,6,22)            64.8876                                         !
 ! D11   D(7,4,6,10)           133.7197                                         !
 ! D12   D(7,4,6,22)           -51.5574                                         !
 ! D13   D(1,4,7,8)            157.9197                                         !
 ! D14   D(1,4,7,9)            -86.9649                                         !
 ! D15   D(1,4,7,11)            33.8776                                         !
 ! D16   D(5,4,7,8)            -79.6896                                         !
 ! D17   D(5,4,7,9)             35.4257                                         !
 ! D18   D(5,4,7,11)           156.2683                                         !
 ! D19   D(6,4,7,8)             35.6312                                         !
 ! D20   D(6,4,7,9)            150.7466                                         !
 ! D21   D(6,4,7,11)           -88.4109                                         !
 ! D22   D(4,6,22,23)            1.0282                                         !
 ! D23   D(4,6,22,24)         -162.7691                                         !
 ! D24   D(10,6,22,23)         175.8264                                         !
 ! D25   D(10,6,22,24)          12.0291                                         !
 ! D26   D(4,7,11,12)          -86.2895                                         !
 ! D27   D(4,7,11,14)           97.3942                                         !
 ! D28   D(8,7,11,12)          149.8007                                         !
 ! D29   D(8,7,11,14)          -26.5156                                         !
 ! D30   D(9,7,11,12)           33.9932                                         !
 ! D31   D(9,7,11,14)         -142.323                                          !
 ! D32   D(7,11,12,13)           0.8779                                         !
 ! D33   D(7,11,12,16)        -177.0323                                         !
 ! D34   D(14,11,12,13)        177.2954                                         !
 ! D35   D(14,11,12,16)         -0.6148                                         !
 ! D36   D(7,11,14,15)          -1.9239                                         !
 ! D37   D(7,11,14,18)         175.9431                                         !
 ! D38   D(12,11,14,15)       -178.2584                                         !
 ! D39   D(12,11,14,18)         -0.3914                                         !
 ! D40   D(11,12,16,17)        178.8487                                         !
 ! D41   D(11,12,16,20)          1.2952                                         !
 ! D42   D(13,12,16,17)          0.9282                                         !
 ! D43   D(13,12,16,20)       -176.6253                                         !
 ! D44   D(11,14,18,19)       -178.1922                                         !
 ! D45   D(11,14,18,20)          0.7187                                         !
 ! D46   D(15,14,18,19)         -0.2401                                         !
 ! D47   D(15,14,18,20)        178.6709                                         !
 ! D48   D(12,16,20,18)         -0.9584                                         !
 ! D49   D(12,16,20,21)        177.1022                                         !
 ! D50   D(17,16,20,18)       -178.5054                                         !
 ! D51   D(17,16,20,21)         -0.4447                                         !
 ! D52   D(14,18,20,16)         -0.0387                                         !
 ! D53   D(14,18,20,21)       -178.0937                                         !
 ! D54   D(19,18,20,16)        178.8625                                         !
 ! D55   D(19,18,20,21)          0.8074                                         !
 ! D56   D(6,22,24,25)          27.0348                                         !
 ! D57   D(6,22,24,26)         -92.0548                                         !
 ! D58   D(6,22,24,27)         147.2616                                         !
 ! D59   D(23,22,24,25)       -137.3376                                         !
 ! D60   D(23,22,24,26)        103.5729                                         !
 ! D61   D(23,22,24,27)        -17.1108                                         !
 ! D62   D(22,24,26,30)       -120.7642                                         !
 ! D63   D(22,24,26,33)         56.2928                                         !
 ! D64   D(25,24,26,30)        120.8691                                         !
 ! D65   D(25,24,26,33)        -62.0739                                         !
 ! D66   D(27,24,26,30)          0.198                                          !
 ! D67   D(27,24,26,33)        177.2549                                         !
 ! D68   D(22,24,27,28)         56.0292                                         !
 ! D69   D(22,24,27,29)        -62.7123                                         !
 ! D70   D(22,24,27,31)       -179.9497                                         !
 ! D71   D(25,24,27,28)        174.8353                                         !
 ! D72   D(25,24,27,29)         56.0938                                         !
 ! D73   D(25,24,27,31)        -61.1435                                         !
 ! D74   D(26,24,27,28)        -65.1913                                         !
 ! D75   D(26,24,27,29)        176.0672                                         !
 ! D76   D(26,24,27,31)         58.8298                                         !
 ! D77   D(24,26,33,34)          9.0373                                         !
 ! D78   D(24,26,33,35)       -162.4375                                         !
 ! D79   D(30,26,33,34)       -173.946                                          !
 ! D80   D(30,26,33,35)         14.5791                                         !
 ! D81   D(24,27,31,32)        -69.756                                          !
 ! D82   D(28,27,31,32)         51.3757                                         !
 ! D83   D(29,27,31,32)        171.7497                                         !
 ! D84   D(26,33,35,36)        -15.5822                                         !
 ! D85   D(26,33,35,37)       -141.0963                                         !
 ! D86   D(26,33,35,38)        102.0941                                         !
 ! D87   D(34,33,35,36)        173.032                                          !
 ! D88   D(34,33,35,37)         47.5179                                         !
 ! D89   D(34,33,35,38)        -69.2918                                         !
 ! D90   D(33,35,37,41)        -42.4955                                         !
 ! D91   D(33,35,37,44)        147.4373                                         !
 ! D92   D(36,35,37,41)       -164.3549                                         !
 ! D93   D(36,35,37,44)         25.5779                                         !
 ! D94   D(38,35,37,41)         74.9297                                         !
 ! D95   D(38,35,37,44)        -95.1376                                         !
 ! D96   D(33,35,38,39)       -173.8345                                         !
 ! D97   D(33,35,38,40)         67.9666                                         !
 ! D98   D(33,35,38,42)        -54.3274                                         !
 ! D99   D(36,35,38,39)        -58.5236                                         !
 ! D100  D(36,35,38,40)       -176.7224                                         !
 ! D101  D(36,35,38,42)         60.9835                                         !
 ! D102  D(37,35,38,39)         64.2262                                         !
 ! D103  D(37,35,38,40)        -53.9727                                         !
 ! D104  D(37,35,38,42)       -176.2667                                         !
 ! D105  D(35,37,44,45)         -3.2368                                         !
 ! D106  D(35,37,44,46)        154.7974                                         !
 ! D107  D(41,37,44,45)       -173.6348                                         !
 ! D108  D(41,37,44,46)        -15.6006                                         !
 ! D109  D(35,38,42,43)         50.3986                                         !
 ! D110  D(39,38,42,43)        171.1381                                         !
 ! D111  D(40,38,42,43)        -69.0248                                         !
 ! D112  D(37,44,46,47)         54.5714                                         !
 ! D113  D(37,44,46,48)        -63.6305                                         !
 ! D114  D(37,44,46,49)        175.2449                                         !
 ! D115  D(45,44,46,47)       -147.0031                                         !
 ! D116  D(45,44,46,48)         94.795                                          !
 ! D117  D(45,44,46,49)        -26.3296                                         !
 ! D118  D(44,46,48,52)        -20.2593                                         !
 ! D119  D(44,46,48,56)        159.9097                                         !
 ! D120  D(47,46,48,52)       -138.4223                                         !
 ! D121  D(47,46,48,56)         41.7466                                         !
 ! D122  D(49,46,48,52)        102.3188                                         !
 ! D123  D(49,46,48,56)        -77.5122                                         !
 ! D124  D(44,46,49,50)        -60.8364                                         !
 ! D125  D(44,46,49,51)         62.35                                           !
 ! D126  D(44,46,49,53)       -178.9265                                         !
 ! D127  D(47,46,49,50)         60.3373                                         !
 ! D128  D(47,46,49,51)       -176.4764                                         !
 ! D129  D(47,46,49,53)        -57.7528                                         !
 ! D130  D(48,46,49,50)       -179.8384                                         !
 ! D131  D(48,46,49,51)        -56.652                                          !
 ! D132  D(48,46,49,53)         62.0715                                         !
 ! D133  D(46,48,56,57)         -1.0711                                         !
 ! D134  D(46,48,56,58)        169.0802                                         !
 ! D135  D(52,48,56,57)        179.1017                                         !
 ! D136  D(52,48,56,58)        -10.7471                                         !
 ! D137  D(46,49,53,54)         51.0668                                         !
 ! D138  D(46,49,53,55)       -119.0234                                         !
 ! D139  D(50,49,53,54)        -65.7746                                         !
 ! D140  D(50,49,53,55)        124.1352                                         !
 ! D141  D(51,49,53,54)        170.8947                                         !
 ! D142  D(51,49,53,55)          0.8044                                         !
 ! D143  D(49,53,55,82)        155.2042                                         !
 ! D144  D(54,53,55,82)        -14.6141                                         !
 ! D145  D(48,56,58,59)        -27.2131                                         !
 ! D146  D(48,56,58,60)       -141.1972                                         !
 ! D147  D(48,56,58,61)         91.9986                                         !
 ! D148  D(57,56,58,59)        143.099                                          !
 ! D149  D(57,56,58,60)         29.1149                                         !
 ! D150  D(57,56,58,61)        -97.6893                                         !
 ! D151  D(56,58,60,64)         20.5298                                         !
 ! D152  D(56,58,60,80)       -161.9204                                         !
 ! D153  D(59,58,60,64)        -94.1357                                         !
 ! D154  D(59,58,60,80)         83.414                                          !
 ! D155  D(61,58,60,64)        145.7854                                         !
 ! D156  D(61,58,60,80)        -36.6649                                         !
 ! D157  D(56,58,61,62)        151.8315                                         !
 ! D158  D(56,58,61,63)         34.6352                                         !
 ! D159  D(56,58,61,65)        -86.5217                                         !
 ! D160  D(59,58,61,62)        -89.7676                                         !
 ! D161  D(59,58,61,63)        153.0362                                         !
 ! D162  D(59,58,61,65)         31.8793                                         !
 ! D163  D(60,58,61,62)         28.9739                                         !
 ! D164  D(60,58,61,63)        -88.2224                                         !
 ! D165  D(60,58,61,65)        150.6208                                         !
 ! D166  D(58,60,80,81)       -176.7009                                         !
 ! D167  D(64,60,80,81)          0.9531                                         !
 ! D168  D(58,61,65,66)         21.4895                                         !
 ! D169  D(58,61,65,67)        -96.3879                                         !
 ! D170  D(58,61,65,68)        142.3804                                         !
 ! D171  D(62,61,65,66)        142.7634                                         !
 ! D172  D(62,61,65,67)         24.886                                          !
 ! D173  D(62,61,65,68)        -96.3457                                         !
 ! D174  D(63,61,65,66)        -97.5094                                         !
 ! D175  D(63,61,65,67)        144.6132                                         !
 ! D176  D(63,61,65,68)         23.3815                                         !
 ! D177  D(61,65,68,69)         45.5986                                         !
 ! D178  D(61,65,68,70)        165.1961                                         !
 ! D179  D(61,65,68,71)        -76.6546                                         !
 ! D180  D(66,65,68,69)        167.4565                                         !
 ! D181  D(66,65,68,70)        -72.946                                          !
 ! D182  D(66,65,68,71)         45.2034                                         !
 ! D183  D(67,65,68,69)        -75.7515                                         !
 ! D184  D(67,65,68,70)         43.846                                          !
 ! D185  D(67,65,68,71)        161.9953                                         !
 ! D186  D(65,68,71,72)         17.945                                          !
 ! D187  D(65,68,71,79)       -160.6444                                         !
 ! D188  D(69,68,71,72)       -104.6735                                         !
 ! D189  D(69,68,71,79)         76.7371                                         !
 ! D190  D(70,68,71,72)        136.401                                          !
 ! D191  D(70,68,71,79)        -42.1884                                         !
 ! D192  D(68,71,79,73)          3.0357                                         !
 ! D193  D(68,71,79,76)       -177.5549                                         !
 ! D194  D(72,71,79,73)       -175.573                                          !
 ! D195  D(72,71,79,76)          3.8364                                         !
 ! D196  D(74,73,79,71)        164.0144                                         !
 ! D197  D(74,73,79,76)        -15.3852                                         !
 ! D198  D(75,73,79,71)          6.0599                                         !
 ! D199  D(75,73,79,76)       -173.3398                                         !
 ! D200  D(77,76,79,71)        -11.803                                          !
 ! D201  D(77,76,79,73)        167.6215                                         !
 ! D202  D(78,76,79,71)       -170.0527                                         !
 ! D203  D(78,76,79,73)          9.3719                                         !
 --------------------------------------------------------------------------------
 Symmetry turned off by external request.
 Stoichiometry    C25H39N8O10(1+)
 Framework group  C1[X(C25H39N8O10)]
 Deg. of freedom   240
 Full point group                 C1      NOp   1
                          Input orientation:                          
 ---------------------------------------------------------------------
 Center     Atomic      Atomic             Coordinates (Angstroms)
 Number     Number       Type             X           Y           Z
 ---------------------------------------------------------------------
      1          7           0       -1.295628   -5.163148   -2.376169
      2          1           0       -1.586012   -6.123310   -2.163689
      3          1           0       -0.902268   -5.119681   -3.323881
      4          6           0       -2.445525   -4.224622   -2.259082
      5          1           0       -3.250168   -4.468961   -2.974320
      6          6           0       -1.943573   -2.844064   -2.702239
      7          6           0       -3.089416   -4.273181   -0.832918
      8          1           0       -3.636240   -3.342035   -0.651566
      9          1           0       -3.834709   -5.076585   -0.840213
     10          8           0       -0.811237   -2.694562   -3.229295
     11          6           0       -2.125749   -4.527637    0.314168
     12          6           0       -1.803502   -5.848293    0.663030
     13          1           0       -2.232494   -6.673744    0.103477
     14          6           0       -1.607580   -3.479157    1.083810
     15          1           0       -1.847472   -2.442894    0.874695
     16          6           0       -0.970352   -6.120076    1.750097
     17          1           0       -0.747060   -7.146550    2.016608
     18          6           0       -0.790461   -3.749660    2.184793
     19          1           0       -0.422273   -2.926467    2.786805
     20          6           0       -0.467680   -5.067053    2.523206
     21          1           0        0.141104   -5.275631    3.395847
     22          7           0       -2.796724   -1.793066   -2.612272
     23          1           0       -3.737570   -1.917674   -2.245575
     24          6           0       -2.522889   -0.534105   -3.362944
     25          1           0       -1.930747   -0.790733   -4.245252
     26          6           0       -1.720237    0.449266   -2.484530
     27          6           0       -3.851954    0.123862   -3.785360
     28          1           0       -4.462665    0.284114   -2.882125
     29          1           0       -4.385932   -0.545821   -4.463259
     30          8           0       -2.146525    1.585412   -2.197933
     31          8           0       -3.580807    1.339338   -4.511356
     32          1           0       -3.219708    1.971459   -3.825758
     33          7           0       -0.544173   -0.058257   -2.003927
     34          1           0       -0.207091   -0.956920   -2.349761
     35          6           0        0.114806    0.596450   -0.872590
     36          1           0       -0.341172    1.582708   -0.777594
     37          6           0        1.622427    0.644884   -0.985051
     38          6           0       -0.194651   -0.261330    0.396793
     39          1           0        0.178265    0.233085    1.291867
     40          1           0        0.330325   -1.219600    0.285275
     41          8           0        2.317994   -0.327017   -1.382746
     42          8           0       -1.636460   -0.432740    0.529124
     43          1           0       -1.954339   -0.750162   -0.362273
     44          7           0        2.217544    1.727934   -0.436211
     45          1           0        1.661140    2.472207   -0.026417
     46          6           0        3.608730    1.570179   -0.013896
     47          1           0        4.202366    1.207106   -0.853635
     48          6           0        3.611881    0.504616    1.120967
     49          6           0        4.232170    2.896421    0.491479
     50          1           0        4.216071    3.628439   -0.320865
     51          1           0        3.714793    3.275794    1.372928
     52          8           0        2.579893    0.228291    1.767202
     53          6           0        5.662265    2.517046    0.846656
     54          8           0        6.397702    1.910060    0.057427
     55          8           0        5.943569    2.719495    2.150939
     56          7           0        4.816322   -0.079316    1.338505
     57          1           0        5.616777    0.186286    0.761315
     58          6           0        5.067545   -0.926484    2.511334
     59          1           0        4.388560   -0.591489    3.308333
     60          6           0        6.482371   -0.626695    2.999970
     61          6           0        4.788717   -2.423467    2.217772
     62          1           0        5.417692   -3.042780    2.858800
     63          1           0        5.073535   -2.608670    1.176003
     64          8           0        7.139123    0.387893    2.755754
     65          6           0        3.285387   -2.764852    2.451439
     66          1           0        2.686790   -1.851148    2.395724
     67          1           0        3.168621   -3.182882    3.457076
     68          6           0        2.718008   -3.766559    1.432607
     69          1           0        3.404873   -4.609798    1.284401
     70          1           0        1.767648   -4.150545    1.809600
     71          7           0        2.462787   -3.076684    0.149214
     72          1           0        2.914591   -2.180392   -0.022257
     73          7           0        0.926897   -4.669279   -0.658525
     74          1           0        0.120477   -4.867994   -1.307275
     75          1           0        0.915318   -5.156631    0.230082
     76          7           0        1.533767   -2.848132   -1.952877
     77          1           0        1.931928   -1.897949   -1.980882
     78          1           0        0.811314   -3.091026   -2.632993
     79          6           0        1.637817   -3.548126   -0.814668
     80          8           0        6.938781   -1.619081    3.810092
     81          1           0        7.842241   -1.386562    4.165305
     82          1           0        6.701295    2.105277    2.420428
 ---------------------------------------------------------------------
 Rotational constants (GHZ):           0.1146657           0.0540858           0.0410196
 Standard basis: 6-31G(d) (6D, 7F)
   723 basis functions,  1360 primitive gaussians,   723 cartesian basis functions
   162 alpha electrons      162 beta electrons
       nuclear repulsion energy      5901.7795583531 Hartrees.
 NAtoms=   82 NActive=   82 NUniq=   82 SFac= 1.00D+00 NAtFMM=   60 NAOKFM=T Big=T
 Integral buffers will be    131072 words long.
 Raffenetti 2 integral format.
 Two-electron integral symmetry is turned off.
 Nuclear repulsion after empirical dispersion term =     5901.6454763068 Hartrees.
 One-electron integrals computed using PRISM.
 NBasis=   723 RedAO= T EigKep=  4.44D-04  NBF=   723
 NBsUse=   723 1.00D-06 EigRej= -1.00D+00 NBFU=   723
 Initial guess from the checkpoint file:  "conf-399.chk"
 B after Tr=     0.000000    0.000000    0.000000
         Rot=    1.000000    0.000000    0.000000    0.000000 Ang=   0.00 deg.
 Requested convergence on RMS density matrix=1.00D-08 within 128 cycles.
 Requested convergence on MAX density matrix=1.00D-06.
 Requested convergence on             energy=1.00D-06.
 No special actions if energy rises.
 SCF Done:  E(RB3LYP) =  -2166.41470325     A.U. after   13 cycles
            NFock= 13  Conv=0.42D-08     -V/T= 2.0096

 **********************************************************************

            Population analysis using the SCF Density.

 **********************************************************************

 Alpha  occ. eigenvalues --  -19.31232 -19.27591 -19.26366 -19.26117 -19.25467
 Alpha  occ. eigenvalues --  -19.24696 -19.23048 -19.23044 -19.22802 -19.21913
 Alpha  occ. eigenvalues --  -14.50380 -14.48553 -14.47834 -14.47252 -14.47251
 Alpha  occ. eigenvalues --  -14.46153 -14.45730 -14.44886 -10.44600 -10.43125
 Alpha  occ. eigenvalues --  -10.43019 -10.41741 -10.41600 -10.40267 -10.40238
 Alpha  occ. eigenvalues --  -10.36536 -10.35606 -10.35149 -10.34705 -10.34675
 Alpha  occ. eigenvalues --  -10.33939 -10.33392 -10.33096 -10.31813 -10.31006
 Alpha  occ. eigenvalues --  -10.30530 -10.29732 -10.29559 -10.29442 -10.29332
 Alpha  occ. eigenvalues --  -10.29120 -10.29042 -10.28511  -1.21182  -1.17973
 Alpha  occ. eigenvalues --   -1.17128  -1.15935  -1.14153  -1.13744  -1.12635
 Alpha  occ. eigenvalues --   -1.11438  -1.11109  -1.09391  -1.08100  -1.05487
 Alpha  occ. eigenvalues --   -1.04453  -1.03644  -1.03069  -1.02114  -1.01111
 Alpha  occ. eigenvalues --   -0.98923  -0.95911  -0.91658  -0.90197  -0.89530
 Alpha  occ. eigenvalues --   -0.87994  -0.86010  -0.85745  -0.84709  -0.83029
 Alpha  occ. eigenvalues --   -0.79548  -0.78563  -0.77225  -0.76144  -0.74856
 Alpha  occ. eigenvalues --   -0.73859  -0.72586  -0.71811  -0.71261  -0.70919
 Alpha  occ. eigenvalues --   -0.70724  -0.69985  -0.69845  -0.68864  -0.68761
 Alpha  occ. eigenvalues --   -0.68522  -0.65988  -0.65641  -0.64628  -0.63385
 Alpha  occ. eigenvalues --   -0.62583  -0.61857  -0.61635  -0.61562  -0.60987
 Alpha  occ. eigenvalues --   -0.60885  -0.60146  -0.59968  -0.59482  -0.59014
 Alpha  occ. eigenvalues --   -0.58855  -0.58492  -0.58156  -0.57446  -0.56933
 Alpha  occ. eigenvalues --   -0.56730  -0.56293  -0.56210  -0.55873  -0.55721
 Alpha  occ. eigenvalues --   -0.55095  -0.54711  -0.54150  -0.53882  -0.53655
 Alpha  occ. eigenvalues --   -0.53080  -0.52488  -0.52280  -0.52112  -0.52068
 Alpha  occ. eigenvalues --   -0.51813  -0.51291  -0.51051  -0.50734  -0.50491
 Alpha  occ. eigenvalues --   -0.50328  -0.49664  -0.49413  -0.49264  -0.48796
 Alpha  occ. eigenvalues --   -0.48457  -0.47587  -0.47484  -0.47008  -0.46269
 Alpha  occ. eigenvalues --   -0.46020  -0.45575  -0.45249  -0.45083  -0.44497
 Alpha  occ. eigenvalues --   -0.44396  -0.43853  -0.43248  -0.42328  -0.40955
 Alpha  occ. eigenvalues --   -0.40184  -0.40005  -0.39685  -0.39348  -0.38597
 Alpha  occ. eigenvalues --   -0.38496  -0.38152  -0.37196  -0.36842  -0.36751
 Alpha  occ. eigenvalues --   -0.36424  -0.36036  -0.35920  -0.35691  -0.35244
 Alpha  occ. eigenvalues --   -0.34959  -0.34521
 Alpha virt. eigenvalues --   -0.12983  -0.11945  -0.11653  -0.11258  -0.10711
 Alpha virt. eigenvalues --   -0.10273  -0.09886  -0.08878  -0.07261  -0.05709
 Alpha virt. eigenvalues --   -0.04057  -0.03432  -0.02899  -0.02090  -0.01190
 Alpha virt. eigenvalues --   -0.00732   0.00072   0.00897   0.01404   0.01510
 Alpha virt. eigenvalues --    0.01704   0.02000   0.02365   0.02617   0.03119
 Alpha virt. eigenvalues --    0.03240   0.03627   0.04033   0.04195   0.04500
 Alpha virt. eigenvalues --    0.05018   0.05216   0.05432   0.05609   0.05677
 Alpha virt. eigenvalues --    0.06194   0.06614   0.06818   0.07040   0.07301
 Alpha virt. eigenvalues --    0.07595   0.07885   0.08179   0.08467   0.08776
 Alpha virt. eigenvalues --    0.09347   0.09628   0.09892   0.10303   0.10607
 Alpha virt. eigenvalues --    0.10929   0.11083   0.11517   0.12123   0.12304
 Alpha virt. eigenvalues --    0.12701   0.13084   0.13281   0.13752   0.14029
 Alpha virt. eigenvalues --    0.14514   0.14634   0.15170   0.15389   0.16068
 Alpha virt. eigenvalues --    0.16237   0.16802   0.17171   0.17273   0.18674
 Alpha virt. eigenvalues --    0.19040   0.19722   0.21116   0.21506   0.21894
 Alpha virt. eigenvalues --    0.22245   0.23255   0.23600   0.25084   0.25511
 Alpha virt. eigenvalues --    0.25839   0.26191   0.26468   0.28184   0.28884
 Alpha virt. eigenvalues --    0.29289   0.30140   0.30513   0.32149   0.32758
 Alpha virt. eigenvalues --    0.35387   0.37345   0.38122   0.38699   0.39815
 Alpha virt. eigenvalues --    0.40528   0.40975   0.41146   0.41324   0.41634
 Alpha virt. eigenvalues --    0.42498   0.42749   0.43300   0.43588   0.44382
 Alpha virt. eigenvalues --    0.44698   0.45202   0.45380   0.45765   0.46177
 Alpha virt. eigenvalues --    0.46310   0.46664   0.47114   0.47176   0.47438
 Alpha virt. eigenvalues --    0.47930   0.48326   0.48937   0.49306   0.49728
 Alpha virt. eigenvalues --    0.50048   0.50575   0.50976   0.51210   0.51342
 Alpha virt. eigenvalues --    0.51735   0.51804   0.52372   0.52548   0.52639
 Alpha virt. eigenvalues --    0.53085   0.53548   0.53677   0.54365   0.54613
 Alpha virt. eigenvalues --    0.54955   0.55103   0.55476   0.55964   0.56258
 Alpha virt. eigenvalues --    0.56460   0.56850   0.57394   0.57732   0.58902
 Alpha virt. eigenvalues --    0.59296   0.59671   0.59955   0.60806   0.61334
 Alpha virt. eigenvalues --    0.61816   0.62188   0.63402   0.64212   0.65178
 Alpha virt. eigenvalues --    0.65243   0.65838   0.66427   0.66870   0.67220
 Alpha virt. eigenvalues --    0.67875   0.68476   0.68920   0.69560   0.69826
 Alpha virt. eigenvalues --    0.70119   0.70360   0.71285   0.71345   0.71704
 Alpha virt. eigenvalues --    0.71853   0.72287   0.73008   0.73030   0.73275
 Alpha virt. eigenvalues --    0.73481   0.73895   0.74319   0.74902   0.75114
 Alpha virt. eigenvalues --    0.75570   0.75600   0.76274   0.76519   0.76805
 Alpha virt. eigenvalues --    0.77043   0.77384   0.77593   0.77788   0.77799
 Alpha virt. eigenvalues --    0.78207   0.78712   0.79200   0.79313   0.79591
 Alpha virt. eigenvalues --    0.80529   0.80839   0.81378   0.81646   0.82132
 Alpha virt. eigenvalues --    0.82503   0.82788   0.83572   0.83603   0.84152
 Alpha virt. eigenvalues --    0.84432   0.84965   0.85160   0.85355   0.86214
 Alpha virt. eigenvalues --    0.86443   0.86786   0.87401   0.87709   0.88264
 Alpha virt. eigenvalues --    0.89071   0.89516   0.89592   0.90374   0.91078
 Alpha virt. eigenvalues --    0.91429   0.92229   0.92490   0.94073   0.94147
 Alpha virt. eigenvalues --    0.95600   0.95946   0.96570   0.96854   0.97463
 Alpha virt. eigenvalues --    0.98374   0.99259   0.99626   0.99734   1.01101
 Alpha virt. eigenvalues --    1.01813   1.02182   1.03016   1.03403   1.03807
 Alpha virt. eigenvalues --    1.04583   1.05179   1.05471   1.05563   1.06650
 Alpha virt. eigenvalues --    1.07090   1.07327   1.08217   1.09087   1.09456
 Alpha virt. eigenvalues --    1.09774   1.10137   1.10753   1.11592   1.12420
 Alpha virt. eigenvalues --    1.12772   1.13676   1.14785   1.15613   1.16398
 Alpha virt. eigenvalues --    1.16520   1.17086   1.18038   1.18788   1.19401
 Alpha virt. eigenvalues --    1.20339   1.20577   1.20913   1.21700   1.22019
 Alpha virt. eigenvalues --    1.22814   1.23580   1.24317   1.25011   1.26092
 Alpha virt. eigenvalues --    1.27212   1.27679   1.28177   1.28954   1.29555
 Alpha virt. eigenvalues --    1.31073   1.31519   1.31905   1.32537   1.32756
 Alpha virt. eigenvalues --    1.33310   1.33772   1.33975   1.35804   1.36024
 Alpha virt. eigenvalues --    1.37294   1.37502   1.38093   1.38613   1.39059
 Alpha virt. eigenvalues --    1.39824   1.40283   1.40434   1.41433   1.42119
 Alpha virt. eigenvalues --    1.42378   1.42976   1.43861   1.45085   1.45469
 Alpha virt. eigenvalues --    1.46956   1.47058   1.48370   1.49441   1.50193
 Alpha virt. eigenvalues --    1.50332   1.52011   1.52793   1.53182   1.54076
 Alpha virt. eigenvalues --    1.54344   1.54566   1.55779   1.56496   1.57477
 Alpha virt. eigenvalues --    1.58793   1.59766   1.60396   1.60702   1.61787
 Alpha virt. eigenvalues --    1.62552   1.62648   1.63327   1.63694   1.63944
 Alpha virt. eigenvalues --    1.64430   1.64992   1.65221   1.66644   1.66825
 Alpha virt. eigenvalues --    1.67018   1.67541   1.67748   1.68025   1.68851
 Alpha virt. eigenvalues --    1.69451   1.69667   1.70857   1.71319   1.71457
 Alpha virt. eigenvalues --    1.72167   1.72436   1.72558   1.72913   1.73702
 Alpha virt. eigenvalues --    1.74355   1.75022   1.75264   1.75979   1.76516
 Alpha virt. eigenvalues --    1.76982   1.77405   1.78148   1.78842   1.79582
 Alpha virt. eigenvalues --    1.80054   1.80125   1.80502   1.80802   1.81362
 Alpha virt. eigenvalues --    1.81455   1.81633   1.82580   1.83151   1.83464
 Alpha virt. eigenvalues --    1.84612   1.84925   1.85314   1.85672   1.86633
 Alpha virt. eigenvalues --    1.87067   1.87690   1.87848   1.88002   1.88446
 Alpha virt. eigenvalues --    1.88863   1.88919   1.89434   1.90668   1.91191
 Alpha virt. eigenvalues --    1.91666   1.92553   1.92958   1.93365   1.94682
 Alpha virt. eigenvalues --    1.95032   1.95562   1.96727   1.97084   1.97418
 Alpha virt. eigenvalues --    1.98080   1.98839   1.99593   1.99977   2.00994
 Alpha virt. eigenvalues --    2.01390   2.01763   2.01827   2.02276   2.03368
 Alpha virt. eigenvalues --    2.03548   2.03944   2.04840   2.05680   2.06540
 Alpha virt. eigenvalues --    2.07739   2.10246   2.10761   2.11579   2.11996
 Alpha virt. eigenvalues --    2.12603   2.13358   2.14166   2.14979   2.15821
 Alpha virt. eigenvalues --    2.16770   2.17486   2.17997   2.18469   2.19061
 Alpha virt. eigenvalues --    2.19813   2.20420   2.21068   2.21687   2.21861
 Alpha virt. eigenvalues --    2.22347   2.23617   2.24388   2.25401   2.26058
 Alpha virt. eigenvalues --    2.26362   2.26702   2.27512   2.28445   2.28767
 Alpha virt. eigenvalues --    2.29794   2.30646   2.31040   2.32014   2.32771
 Alpha virt. eigenvalues --    2.33796   2.34049   2.35018   2.35271   2.36969
 Alpha virt. eigenvalues --    2.37684   2.38323   2.39013   2.40285   2.40749
 Alpha virt. eigenvalues --    2.41993   2.42664   2.43362   2.43765   2.44601
 Alpha virt. eigenvalues --    2.44973   2.46178   2.46927   2.49057   2.49386
 Alpha virt. eigenvalues --    2.50036   2.50326   2.50766   2.52233   2.53061
 Alpha virt. eigenvalues --    2.53147   2.54007   2.54590   2.55440   2.55749
 Alpha virt. eigenvalues --    2.56308   2.56848   2.57582   2.58664   2.59258
 Alpha virt. eigenvalues --    2.60546   2.62560   2.63056   2.63990   2.64618
 Alpha virt. eigenvalues --    2.64939   2.66501   2.66841   2.67238   2.67513
 Alpha virt. eigenvalues --    2.68447   2.70700   2.72118   2.74691   2.76327
 Alpha virt. eigenvalues --    2.76693   2.79335   2.80011   2.80654   2.81597
 Alpha virt. eigenvalues --    2.84204   2.86520   2.89131   2.89246   2.90629
 Alpha virt. eigenvalues --    2.92185   2.92536   2.95207   2.95375   2.95733
 Alpha virt. eigenvalues --    2.97039   2.98456   3.01169   3.02303   3.03785
 Alpha virt. eigenvalues --    3.04892   3.06877   3.30229   3.69844   3.73352
 Alpha virt. eigenvalues --    3.76457   3.79457   3.83945   3.85587   3.88011
 Alpha virt. eigenvalues --    3.89785   3.91575   3.94560   3.97070   3.99420
 Alpha virt. eigenvalues --    4.01275   4.02707   4.03931   4.06726   4.08085
 Alpha virt. eigenvalues --    4.08855   4.11499   4.13277   4.14941   4.16008
 Alpha virt. eigenvalues --    4.18101   4.18850   4.20933   4.21829   4.23208
 Alpha virt. eigenvalues --    4.27107   4.27770   4.28991   4.31083   4.35974
 Alpha virt. eigenvalues --    4.36599   4.39498   4.42798   4.44374   4.48143
 Alpha virt. eigenvalues --    4.50440   4.52394   4.53513   4.56687   4.60686
 Alpha virt. eigenvalues --    4.62736
          Condensed to atoms (all electrons):
 Mulliken charges:
               1
     1  N   -0.776357
     2  H    0.337073
     3  H    0.347510
     4  C   -0.049483
     5  H    0.183511
     6  C    0.639785
     7  C   -0.407765
     8  H    0.164153
     9  H    0.183990
    10  O   -0.567837
    11  C    0.188187
    12  C   -0.191915
    13  H    0.134898
    14  C   -0.199948
    15  H    0.177603
    16  C   -0.150010
    17  H    0.158688
    18  C   -0.147570
    19  H    0.157349
    20  C   -0.156421
    21  H    0.154610
    22  N   -0.624564
    23  H    0.358301
    24  C   -0.075937
    25  H    0.218828
    26  C    0.604707
    27  C   -0.043617
    28  H    0.142845
    29  H    0.164661
    30  O   -0.520250
    31  O   -0.620140
    32  H    0.426002
    33  N   -0.640340
    34  H    0.381465
    35  C   -0.100459
    36  H    0.210816
    37  C    0.664855
    38  C   -0.048457
    39  H    0.204279
    40  H    0.140777
    41  O   -0.586963
    42  O   -0.604928
    43  H    0.397321
    44  N   -0.582814
    45  H    0.359011
    46  C   -0.063180
    47  H    0.226457
    48  C    0.611687
    49  C   -0.355737
    50  H    0.211941
    51  H    0.194728
    52  O   -0.543382
    53  C    0.583004
    54  O   -0.481601
    55  O   -0.573206
    56  N   -0.622601
    57  H    0.386583
    58  C   -0.052311
    59  H    0.224663
    60  C    0.608853
    61  C   -0.286145
    62  H    0.196239
    63  H    0.160553
    64  O   -0.486277
    65  C   -0.340308
    66  H    0.213616
    67  H    0.164844
    68  C   -0.145513
    69  H    0.173750
    70  H    0.166885
    71  N   -0.637733
    72  H    0.374279
    73  N   -0.819739
    74  H    0.442645
    75  H    0.362634
    76  N   -0.834840
    77  H    0.409536
    78  H    0.394910
    79  C    0.789712
    80  O   -0.559488
    81  H    0.439081
    82  H    0.460010
 Sum of Mulliken charges =   1.00000
 Mulliken charges with hydrogens summed into heavy atoms:
               1
     1  N   -0.091773
     4  C    0.134028
     6  C    0.639785
     7  C   -0.059622
    10  O   -0.567837
    11  C    0.188187
    12  C   -0.057017
    14  C   -0.022345
    16  C    0.008678
    18  C    0.009780
    20  C   -0.001811
    22  N   -0.266263
    24  C    0.142891
    26  C    0.604707
    27  C    0.263888
    30  O   -0.520250
    31  O   -0.194138
    33  N   -0.258876
    35  C    0.110357
    37  C    0.664855
    38  C    0.296600
    41  O   -0.586963
    42  O   -0.207607
    44  N   -0.223802
    46  C    0.163277
    48  C    0.611687
    49  C    0.050933
    52  O   -0.543382
    53  C    0.583004
    54  O   -0.481601
    55  O   -0.113196
    56  N   -0.236019
    58  C    0.172352
    60  C    0.608853
    61  C    0.070647
    64  O   -0.486277
    65  C    0.038153
    68  C    0.195122
    71  N   -0.263453
    73  N   -0.014460
    76  N   -0.030394
    79  C    0.789712
    80  O   -0.120408
 Electronic spatial extent (au):  <R**2>=          29072.6636
 Charge=              1.0000 electrons
 Dipole moment (field-independent basis, Debye):
    X=              4.8723    Y=            -15.1837    Z=              1.5901  Tot=             16.0253
 Quadrupole moment (field-independent basis, Debye-Ang):
   XX=           -180.7437   YY=           -161.3815   ZZ=           -227.1508
   XY=             14.5601   XZ=             48.6445   YZ=             11.4096
 Traceless Quadrupole moment (field-independent basis, Debye-Ang):
   XX=              9.0150   YY=             28.3772   ZZ=            -37.3921
   XY=             14.5601   XZ=             48.6445   YZ=             11.4096
 Octapole moment (field-independent basis, Debye-Ang**2):
  XXX=           -573.2048  YYY=            650.4296  ZZZ=            178.8342  XYY=           -314.8438
  XXY=            146.6212  XXZ=            247.0985  XZZ=           -141.8596  YZZ=            216.6821
  YYZ=            -17.9002  XYZ=           -143.0265
 Hexadecapole moment (field-independent basis, Debye-Ang**3):
 XXXX=         -14760.3880 YYYY=          -9881.3836 ZZZZ=          -6660.1947 XXXY=          -1768.1765
 XXXZ=          -1192.9888 YYYX=           -567.3954 YYYZ=            415.2050 ZZZX=          -2907.6691
 ZZZY=            347.8148 XXYY=          -4575.3601 XXZZ=          -3087.3142 YYZZ=          -2851.2330
 XXYZ=            -19.2052 YYXZ=           -778.8338 ZZXY=           -365.2370
 N-N= 5.901645476307D+03 E-N=-1.682434551581D+04  KE= 2.145801471344D+03
 Unable to Open any file for archive entry.
 1\1\GINC-AMR-136\SP\RB3LYP\6-31G(d)\C25H39N8O10(1+)\KENGMITH\08-Jul-20
 22\0\\# B3LYP/6-31G* empiricaldispersion=gd3 guess=read geom=check nos
 ymm integral(ultrafinegrid)\\Candidate Structure: Conf:399 Charge calc
  in gas phase\\1,1\N,0,-1.2956280618,-5.1631478719,-2.3761692354\H,0,-
 1.5860120331,-6.1233101736,-2.1636886998\H,0,-0.9022677686,-5.11968123
 95,-3.3238805355\C,0,-2.4455247365,-4.2246220188,-2.2590823786\H,0,-3.
 250167733,-4.4689611462,-2.9743198619\C,0,-1.9435731532,-2.8440636742,
 -2.7022391277\C,0,-3.0894161776,-4.2731811111,-0.8329181482\H,0,-3.636
 2400367,-3.3420354934,-0.6515662014\H,0,-3.8347092937,-5.0765851118,-0
 .8402129735\O,0,-0.8112368759,-2.6945618835,-3.2292950606\C,0,-2.12574
 94793,-4.5276370194,0.314167817\C,0,-1.8035022407,-5.8482927058,0.6630
 29907\H,0,-2.2324944945,-6.6737436665,0.1034773172\C,0,-1.6075801989,-
 3.4791568382,1.0838100342\H,0,-1.847471533,-2.4428940504,0.8746949209\
 C,0,-0.9703522462,-6.1200755864,1.7500967639\H,0,-0.7470600058,-7.1465
 499217,2.0166078538\C,0,-0.7904610078,-3.7496604258,2.1847931577\H,0,-
 0.4222733847,-2.9264672328,2.7868050893\C,0,-0.4676801857,-5.067052643
 9,2.5232056844\H,0,0.1411040689,-5.275631046,3.3958465497\N,0,-2.79672
 42307,-1.7930655512,-2.6122719281\H,0,-3.7375701811,-1.9176737898,-2.2
 455751154\C,0,-2.5228888558,-0.5341047382,-3.3629439833\H,0,-1.9307469
 404,-0.7907329456,-4.245252429\C,0,-1.7202374189,0.4492656726,-2.48452
 99047\C,0,-3.8519544251,0.1238618477,-3.7853603536\H,0,-4.4626645665,0
 .284113616,-2.8821247036\H,0,-4.3859320776,-0.5458206055,-4.4632592536
 \O,0,-2.1465246814,1.5854124824,-2.1979331611\O,0,-3.5808066006,1.3393
 377862,-4.511355735\H,0,-3.2197084941,1.9714589257,-3.8257583575\N,0,-
 0.5441731218,-0.0582571598,-2.0039267532\H,0,-0.20709098,-0.956919754,
 -2.3497614789\C,0,0.1148061181,0.5964497153,-0.8725900408\H,0,-0.34117
 16746,1.5827077702,-0.7775939225\C,0,1.6224265004,0.6448839934,-0.9850
 512115\C,0,-0.1946513353,-0.2613299762,0.3967928942\H,0,0.178264833,0.
 2330854271,1.2918671824\H,0,0.3303252903,-1.2195997275,0.2852754001\O,
 0,2.3179939258,-0.327016995,-1.3827460358\O,0,-1.63646009,-0.432740143
 4,0.5291241679\H,0,-1.9543388135,-0.7501619569,-0.3622730378\N,0,2.217
 544357,1.7279336848,-0.4362106104\H,0,1.6611402162,2.4722067956,-0.026
 4166002\C,0,3.6087295759,1.5701791807,-0.0138958516\H,0,4.2023659819,1
 .2071058543,-0.8536347652\C,0,3.611880951,0.5046164573,1.1209668321\C,
 0,4.2321699948,2.8964212167,0.4914790576\H,0,4.2160710934,3.6284392852
 ,-0.3208653955\H,0,3.7147931549,3.2757943473,1.3729277925\O,0,2.579893
 4434,0.2282910206,1.7672021898\C,0,5.6622649207,2.5170457758,0.8466562
 6\O,0,6.3977020194,1.910060011,0.0574267932\O,0,5.9435687797,2.7194946
 889,2.1509390443\N,0,4.8163219005,-0.0793161492,1.338504704\H,0,5.6167
 772323,0.1862855481,0.7613145668\C,0,5.0675449605,-0.9264842759,2.5113
 341315\H,0,4.3885603179,-0.5914888566,3.3083330955\C,0,6.4823712523,-0
 .6266951669,2.9999704691\C,0,4.7887174851,-2.4234667194,2.2177717824\H
 ,0,5.4176918321,-3.042779707,2.8588003839\H,0,5.073534923,-2.608670337
 7,1.1760032754\O,0,7.1391231567,0.3878934623,2.7557541116\C,0,3.285386
 5215,-2.7648524211,2.4514392837\H,0,2.6867901699,-1.8511483182,2.39572
 40892\H,0,3.1686213712,-3.1828818882,3.4570760615\C,0,2.7180084257,-3.
 7665588831,1.4326074459\H,0,3.4048734692,-4.6097978552,1.2844007847\H,
 0,1.7676482029,-4.150544613,1.8096001333\N,0,2.4627874651,-3.076684290
 7,0.1492141617\H,0,2.9145907643,-2.1803922286,-0.0222565263\N,0,0.9268
 973968,-4.6692789298,-0.6585245524\H,0,0.1204771773,-4.8679935452,-1.3
 072752397\H,0,0.9153178304,-5.1566313294,0.2300819948\N,0,1.5337672729
 ,-2.8481324445,-1.9528771753\H,0,1.9319282447,-1.8979485802,-1.9808822
 615\H,0,0.8113136143,-3.091025625,-2.6329929831\C,0,1.6378165388,-3.54
 81263556,-0.8146681883\O,0,6.9387808966,-1.6190812658,3.8100924117\H,0
 ,7.8422410559,-1.3865621847,4.1653046963\H,0,6.7012947512,2.1052774704
 ,2.4204278654\\Version=ES64L-G16RevC.01\HF=-2166.4147033\RMSD=4.191e-0
 9\Dipole=-0.2965745,-3.429927,0.8284024\Quadrupole=6.7024061,21.097723
 5,-27.8001296,10.8250597,36.1660261,8.4827728\PG=C01 [X(C25H39N8O10)]\
 \@
 The archive entry for this job was punched.


 IF AT FIRST YOU DON'T SUCCEED, TRY, TRY AGAIN.
 THEN GIVE UP;
 THERE'S NO USE BEING A DAMN FOOL ABOUT IT.

                                 -- W. C. FIELDS
 Job cpu time:       0 days  0 hours 21 minutes 22.7 seconds.
 Elapsed time:       0 days  0 hours  5 minutes 21.4 seconds.
 File lengths (MBytes):  RWF=    384 Int=      0 D2E=      0 Chk=     56 Scr=     16
 Normal termination of Gaussian 16 at Fri Jul  8 17:05:28 2022.
