 Entering Gaussian System, Link 0=/opt/software/Gaussian/g16-AVX2-C.01/g16/g16
 Input=charge-conf-796.com
 Output=charge-conf-796.log
 Initial command:
 /opt/software/Gaussian/g16-AVX2-C.01/g16/l1.exe "/mnt/gs18/scratch/users/kengmith/Gau-12557.inp" -scrdir="/mnt/gs18/scratch/users/kengmith/"
 Entering Link 1 = /opt/software/Gaussian/g16-AVX2-C.01/g16/l1.exe PID=     12568.
  
 Copyright (c) 1988-2019, Gaussian, Inc.  All Rights Reserved.
  
 This is part of the Gaussian(R) 16 program.  It is based on
 the Gaussian(R) 09 system (copyright 2009, Gaussian, Inc.),
 the Gaussian(R) 03 system (copyright 2003, Gaussian, Inc.),
 the Gaussian(R) 98 system (copyright 1998, Gaussian, Inc.),
 the Gaussian(R) 94 system (copyright 1995, Gaussian, Inc.),
 the Gaussian 92(TM) system (copyright 1992, Gaussian, Inc.),
 the Gaussian 90(TM) system (copyright 1990, Gaussian, Inc.),
 the Gaussian 88(TM) system (copyright 1988, Gaussian, Inc.),
 the Gaussian 86(TM) system (copyright 1986, Carnegie Mellon
 University), and the Gaussian 82(TM) system (copyright 1983,
 Carnegie Mellon University). Gaussian is a federally registered
 trademark of Gaussian, Inc.
  
 This software contains proprietary and confidential information,
 including trade secrets, belonging to Gaussian, Inc.
  
 This software is provided under written license and may be
 used, copied, transmitted, or stored only in accord with that
 written license.
  
 The following legend is applicable only to US Government
 contracts under FAR:
  
                    RESTRICTED RIGHTS LEGEND
  
 Use, reproduction and disclosure by the US Government is
 subject to restrictions as set forth in subparagraphs (a)
 and (c) of the Commercial Computer Software - Restricted
 Rights clause in FAR 52.227-19.
  
 Gaussian, Inc.
 340 Quinnipiac St., Bldg. 40, Wallingford CT 06492
  
  
 ---------------------------------------------------------------
 Warning -- This program may not be used in any manner that
 competes with the business of Gaussian, Inc. or will provide
 assistance to any competitor of Gaussian, Inc.  The licensee
 of this program is prohibited from giving any competitor of
 Gaussian, Inc. access to this program.  By using this program,
 the user acknowledges that Gaussian, Inc. is engaged in the
 business of creating and licensing software in the field of
 computational chemistry and represents and warrants to the
 licensee that it is not a competitor of Gaussian, Inc. and that
 it will not use this program in any manner prohibited above.
 ---------------------------------------------------------------
  

 Cite this work as:
 Gaussian 16, Revision C.01,
 M. J. Frisch, G. W. Trucks, H. B. Schlegel, G. E. Scuseria, 
 M. A. Robb, J. R. Cheeseman, G. Scalmani, V. Barone, 
 G. A. Petersson, H. Nakatsuji, X. Li, M. Caricato, A. V. Marenich, 
 J. Bloino, B. G. Janesko, R. Gomperts, B. Mennucci, H. P. Hratchian, 
 J. V. Ortiz, A. F. Izmaylov, J. L. Sonnenberg, D. Williams-Young, 
 F. Ding, F. Lipparini, F. Egidi, J. Goings, B. Peng, A. Petrone, 
 T. Henderson, D. Ranasinghe, V. G. Zakrzewski, J. Gao, N. Rega, 
 G. Zheng, W. Liang, M. Hada, M. Ehara, K. Toyota, R. Fukuda, 
 J. Hasegawa, M. Ishida, T. Nakajima, Y. Honda, O. Kitao, H. Nakai, 
 T. Vreven, K. Throssell, J. A. Montgomery, Jr., J. E. Peralta, 
 F. Ogliaro, M. J. Bearpark, J. J. Heyd, E. N. Brothers, K. N. Kudin, 
 V. N. Staroverov, T. A. Keith, R. Kobayashi, J. Normand, 
 K. Raghavachari, A. P. Rendell, J. C. Burant, S. S. Iyengar, 
 J. Tomasi, M. Cossi, J. M. Millam, M. Klene, C. Adamo, R. Cammi, 
 J. W. Ochterski, R. L. Martin, K. Morokuma, O. Farkas, 
 J. B. Foresman, and D. J. Fox, Gaussian, Inc., Wallingford CT, 2019.
 
 ******************************************
 Gaussian 16:  ES64L-G16RevC.01  3-Jul-2019
                16-Jul-2022 
 ******************************************
 %mem=8gb
 %nproc=4
 Will use up to    4 processors via shared memory.
 %chk=conf-796.chk
 ----------------------------------------------------------------------
 # B3LYP/6-31G* empiricaldispersion=gd3bj guess=read geom=check nosymm 
 integral(ultrafinegrid)
 ----------------------------------------------------------------------
 1/29=2,38=1,172=1/1;
 2/12=2,15=1,40=1/2;
 3/5=1,6=6,7=1,11=2,14=-4,25=1,30=1,74=-5,75=-5,116=-2,124=41/1,2,3;
 4/5=1/1;
 5/5=2,38=6/2;
 6/7=2,8=2,9=2,10=2,28=1/1;
 99/5=1,9=1/99;
 ------------------------------------------------------
 Candidate Structure: Conf:796 Charge calc in gas phase
 ------------------------------------------------------
 Structure from the checkpoint file:  "conf-796.chk"
 Charge =  1 Multiplicity = 1
 Redundant internal coordinates found in file.  (old form).
 N,0,-8.4227730618,-5.0259366589,-6.3863425739
 H,0,-7.8561088905,-5.7953530724,-5.9873784683
 H,0,-8.9346917457,-4.5960764888,-5.5903020286
 H,0,-9.0528331483,-5.3478197416,-7.1334333353
 C,0,-7.5516178505,-3.924227832,-6.9200040229
 H,0,-6.7106448539,-4.3864604653,-7.4402879194
 C,0,-7.1363110429,-3.1661648807,-5.6479769052
 C,0,-8.3926119851,-3.0845580851,-7.890610195
 H,0,-9.1522870561,-2.5460647711,-7.3040360809
 O,0,-7.9600308772,-3.1255611823,-4.7295154414
 C,0,-7.5303612078,-2.0976753781,-8.6662978233
 H,0,-7.0285133518,-1.3979303543,-7.9899380037
 H,0,-8.1507080537,-1.5081159778,-9.3486338871
 H,0,-6.7775944008,-2.6280853975,-9.2584252792
 O,0,-9.0160657002,-4.0603859547,-8.7297080017
 H,0,-9.6215495775,-3.6170403613,-9.3445898979
 N,0,-5.9019384475,-2.6648410682,-5.6136427862
 H,0,-5.2818023561,-2.6671911124,-6.4193421829
 C,0,-5.2509184703,-2.2856069586,-4.3690377863
 H,0,-6.0066217931,-1.893902642,-3.6868802164
 C,0,-4.1919973468,-1.2410673405,-4.740951533
 C,0,-4.5369129354,-3.5216756787,-3.7320458622
 H,0,-3.6054973218,-3.6893718298,-4.2846255172
 H,0,-4.281423766,-3.2483207752,-2.7044694114
 O,0,-3.6922337625,-1.2599548124,-5.8681418643
 C,0,-5.3820349244,-4.7712951201,-3.7787700804
 C,0,-6.3675759702,-5.0142744084,-2.8126212623
 H,0,-6.4861392501,-4.3145113364,-1.9901775092
 C,0,-5.2445700484,-5.6799112146,-4.8358886446
 H,0,-4.4670643962,-5.5186571638,-5.5788254926
 C,0,-7.2013050896,-6.1272063506,-2.9044843033
 H,0,-7.9554009819,-6.3003920489,-2.142778452
 C,0,-6.0716172373,-6.8063409478,-4.9321770458
 H,0,-5.9134390345,-7.5280579907,-5.730270704
 C,0,-7.0589392741,-7.0292951141,-3.9646719561
 H,0,-7.6864549296,-7.9148139928,-4.0169363208
 N,0,-3.8442650423,-0.4100705483,-3.7482824395
 H,0,-4.2943214502,-0.4875010383,-2.8396355307
 C,0,-2.7211623393,0.5314082456,-3.8312309018
 H,0,-1.9696735678,0.08783902,-4.4907524657
 C,0,-2.2357464186,0.6066197699,-2.3808018159
 C,0,-3.1569584349,1.8972580977,-4.362056398
 H,0,-2.2972007257,2.5720916199,-4.4324229693
 H,0,-3.894460649,2.3395869197,-3.6872030643
 H,0,-3.5937705164,1.7838931136,-5.3578772476
 O,0,-3.0306151955,0.9441340192,-1.5023808884
 N,0,-0.9893445937,0.1574774365,-2.1234506088
 H,0,-0.2859091087,0.0513082142,-2.8472279852
 C,0,-0.5126436295,0.0101103947,-0.7614731335
 H,0,-1.1152420011,0.6664770072,-0.1302934743
 C,0,0.9659000224,0.4161706591,-0.7472876263
 C,0,-0.6378600796,-1.453991964,-0.2543178939
 H,0,-0.5659481001,-1.4504083862,0.8372849115
 H,0,0.2159429822,-2.0294643211,-0.6311546101
 O,0,1.6308496583,0.3930100905,-1.7851715101
 C,0,-1.9069648926,-2.1909405912,-0.7029694429
 H,0,-1.9325940426,-2.2920672973,-1.7905849161
 H,0,-1.8777473473,-3.2108888892,-0.2957364335
 C,0,-3.2412281206,-1.6077685994,-0.2927526042
 O,0,-4.2713006242,-1.739366408,-0.9348398474
 O,0,-3.1968719447,-0.9772096378,0.8880645416
 N,0,1.4556247968,0.7296574475,0.463865296
 H,0,0.8976442432,0.6532127604,1.3122263775
 C,0,2.8651450257,0.9595042647,0.7230195976
 H,0,3.4496484886,0.2032082758,0.1841707258
 C,0,3.0392425972,0.7571634752,2.2409138086
 C,0,3.3122660171,2.3555005003,0.2652131037
 H,0,4.3818955908,2.5051474257,0.445436809
 H,0,2.7579015308,3.128560387,0.8063544203
 H,0,3.1214469053,2.461039872,-0.8054697623
 O,0,2.0588560919,0.5800240715,2.9678700153
 N,0,4.3041302751,0.8095279912,2.6918728618
 H,0,5.0939562578,0.917455737,2.0668884011
 C,0,4.6526615716,0.6100516692,4.0936953032
 H,0,3.8785476309,1.0812182001,4.7017833859
 C,0,6.0009406068,1.2923826642,4.3127035667
 C,0,4.7397224056,-0.897740367,4.4272359063
 H,0,3.8130931454,-1.3538079939,4.0561597419
 H,0,5.5660200658,-1.318011811,3.8381543309
 O,0,6.8208611998,1.2826162704,3.3515944827
 C,0,4.9160873967,-1.250340265,5.9143051968
 H,0,5.7909356294,-0.7287000571,6.3177315633
 C,0,3.7101956349,-0.8170908527,6.7563355314
 H,0,2.7899431036,-1.3017955007,6.4039716258
 H,0,3.5544806173,0.2659467029,6.7341896809
 H,0,3.8684715367,-1.0842461533,7.8050030557
 C,0,5.1570064705,-2.758561482,6.0532628468
 H,0,4.297677715,-3.3319653932,5.6801934536
 H,0,5.3108326316,-3.0299816886,7.1028786674
 H,0,6.042579232,-3.0772808723,5.4899255045
 N,0,6.2019424081,1.8279900966,5.5033894262
 H,0,5.5712133635,1.5605773829,6.2961199047
 C,0,7.4776120551,2.1232376176,6.1564798955
 H,0,8.2790265269,1.5510124745,5.6756959472
 C,0,7.2986692868,1.5633154537,7.646981027
 C,0,7.8546887316,3.6115055606,6.2288610282
 H,0,8.4064864334,3.7262836323,7.1665254442
 H,0,6.9428727837,4.2175391146,6.3076354598
 O,0,6.1386237197,1.1195306488,7.88590904
 C,0,8.7542243818,4.1150313463,5.0951772212
 H,0,9.6000685214,3.4216165313,5.0054705982
 H,0,9.1797332459,5.0938456889,5.3512182945
 C,0,8.0517625811,4.2148372576,3.7360306255
 H,0,7.479181819,5.1407560786,3.6444415247
 H,0,7.3555629811,3.3910938694,3.5798772308
 N,0,9.0161349833,4.206541477,2.6152018738
 H,0,9.3258165042,5.0926860563,2.2415267531
 N,0,9.3258976586,1.9088955057,2.628782981
 H,0,9.9329463585,1.1206920709,2.4571232785
 H,0,8.3810914639,1.7056522695,3.0368683039
 N,0,10.8113194928,3.2838938249,1.4770893213
 H,0,11.3407105608,4.1421682562,1.5309911044
 H,0,11.322535905,2.4712755425,1.1651615672
 C,0,9.7128930387,3.1230689555,2.2602843627
 O,0,8.3063152907,1.6605702033,8.3548337136
 H,0,-4.0804381181,-0.5928519731,1.0439097241
 Recover connectivity data from disk.
                           ----------------------------
                           !    Current Parameters    !
                           ! (Angstroms and Degrees)  !
 --------------------------                            --------------------------
 ! Name  Definition              Value                                          !
 --------------------------------------------------------------------------------
 ! R1    R(1,2)                  1.0355                                         !
 ! R2    R(1,3)                  1.0395                                         !
 ! R3    R(1,4)                  1.0289                                         !
 ! R4    R(1,5)                  1.5025                                         !
 ! R5    R(5,6)                  1.0916                                         !
 ! R6    R(5,7)                  1.5379                                         !
 ! R7    R(5,8)                  1.5344                                         !
 ! R8    R(7,10)                 1.2344                                         !
 ! R9    R(7,17)                 1.3327                                         !
 ! R10   R(8,9)                  1.1005                                         !
 ! R11   R(8,11)                 1.5229                                         !
 ! R12   R(8,15)                 1.43                                           !
 ! R13   R(11,12)                1.095                                          !
 ! R14   R(11,13)                1.0945                                         !
 ! R15   R(11,14)                1.0948                                         !
 ! R16   R(15,16)                0.9702                                         !
 ! R17   R(17,18)                1.0167                                         !
 ! R18   R(17,19)                1.4549                                         !
 ! R19   R(19,20)                1.0908                                         !
 ! R20   R(19,21)                1.5332                                         !
 ! R21   R(19,22)                1.5631                                         !
 ! R22   R(21,25)                1.2332                                         !
 ! R23   R(21,37)                1.3405                                         !
 ! R24   R(22,23)                1.0959                                         !
 ! R25   R(22,24)                1.0936                                         !
 ! R26   R(22,26)                1.5093                                         !
 ! R27   R(26,27)                1.4013                                         !
 ! R28   R(26,29)                1.4007                                         !
 ! R29   R(27,28)                1.0863                                         !
 ! R30   R(27,31)                1.3936                                         !
 ! R31   R(29,30)                1.0874                                         !
 ! R32   R(29,33)                1.4008                                         !
 ! R33   R(31,32)                1.0857                                         !
 ! R34   R(31,35)                1.3993                                         !
 ! R35   R(33,34)                1.0876                                         !
 ! R36   R(33,35)                1.4002                                         !
 ! R37   R(35,36)                1.0866                                         !
 ! R38   R(37,38)                1.0169                                         !
 ! R39   R(37,39)                1.4679                                         !
 ! R40   R(39,40)                1.0938                                         !
 ! R41   R(39,41)                1.5313                                         !
 ! R42   R(39,42)                1.5288                                         !
 ! R43   R(41,46)                1.2318                                         !
 ! R44   R(41,47)                1.3496                                         !
 ! R45   R(42,43)                1.0952                                         !
 ! R46   R(42,44)                1.0932                                         !
 ! R47   R(42,45)                1.0933                                         !
 ! R48   R(47,48)                1.0149                                         !
 ! R49   R(47,49)                1.4505                                         !
 ! R50   R(49,50)                1.0919                                         !
 ! R51   R(49,51)                1.5334                                         !
 ! R52   R(49,52)                1.5545                                         !
 ! R53   R(51,55)                1.2328                                         !
 ! R54   R(51,62)                1.3435                                         !
 ! R55   R(52,53)                1.094                                          !
 ! R56   R(52,54)                1.0964                                         !
 ! R57   R(52,56)                1.5346                                         !
 ! R58   R(56,57)                1.0926                                         !
 ! R59   R(56,58)                1.0986                                         !
 ! R60   R(56,59)                1.5128                                         !
 ! R61   R(59,60)                1.2209                                         !
 ! R62   R(59,61)                1.3394                                         !
 ! R63   R(61,116)               0.9761                                         !
 ! R64   R(62,63)                1.0183                                         !
 ! R65   R(62,64)                1.4515                                         !
 ! R66   R(64,65)                1.0973                                         !
 ! R67   R(64,66)                1.5412                                         !
 ! R68   R(64,67)                1.5357                                         !
 ! R69   R(66,71)                1.2333                                         !
 ! R70   R(66,72)                1.3439                                         !
 ! R71   R(67,68)                1.095                                          !
 ! R72   R(67,69)                1.0944                                         !
 ! R73   R(67,70)                1.0927                                         !
 ! R74   R(72,73)                1.013                                          !
 ! R75   R(72,74)                1.4582                                         !
 ! R76   R(74,75)                1.0913                                         !
 ! R77   R(74,76)                1.5269                                         !
 ! R78   R(74,77)                1.5467                                         !
 ! R79   R(76,80)                1.2634                                         !
 ! R80   R(76,91)                1.321                                          !
 ! R81   R(77,78)                1.0974                                         !
 ! R82   R(77,79)                1.0984                                         !
 ! R83   R(77,81)                1.5384                                         !
 ! R84   R(81,82)                1.0955                                         !
 ! R85   R(81,83)                1.5333                                         !
 ! R86   R(81,87)                1.5337                                         !
 ! R87   R(83,84)                1.0982                                         !
 ! R88   R(83,85)                1.0944                                         !
 ! R89   R(83,86)                1.0937                                         !
 ! R90   R(87,88)                1.0984                                         !
 ! R91   R(87,89)                1.095                                          !
 ! R92   R(87,90)                1.0969                                         !
 ! R93   R(91,92)                1.0477                                         !
 ! R94   R(91,93)                1.4632                                         !
 ! R95   R(93,94)                1.0958                                         !
 ! R96   R(93,95)                1.6022                                         !
 ! R97   R(93,96)                1.537                                          !
 ! R98   R(95,99)                1.2648                                         !
 ! R99   R(95,115)               1.2353                                         !
 ! R100  R(96,97)                1.094                                          !
 ! R101  R(96,98)                1.0977                                         !
 ! R102  R(96,100)               1.5323                                         !
 ! R103  R(100,101)              1.0974                                         !
 ! R104  R(100,102)              1.0976                                         !
 ! R105  R(100,103)              1.5332                                         !
 ! R106  R(103,104)              1.0925                                         !
 ! R107  R(103,105)              1.0898                                         !
 ! R108  R(103,106)              1.4786                                         !
 ! R109  R(106,107)              1.0103                                         !
 ! R110  R(106,114)              1.3362                                         !
 ! R111  R(108,109)              1.0096                                         !
 ! R112  R(108,110)              1.049                                          !
 ! R113  R(108,114)              1.3266                                         !
 ! R114  R(111,112)              1.0098                                         !
 ! R115  R(111,113)              1.0095                                         !
 ! R116  R(111,114)              1.3586                                         !
 ! A1    A(2,1,3)              106.3626                                         !
 ! A2    A(2,1,4)              112.4819                                         !
 ! A3    A(2,1,5)              111.37                                           !
 ! A4    A(3,1,4)              112.5715                                         !
 ! A5    A(3,1,5)              104.7332                                         !
 ! A6    A(4,1,5)              109.0583                                         !
 ! A7    A(1,5,6)              107.7872                                         !
 ! A8    A(1,5,7)              102.9576                                         !
 ! A9    A(1,5,8)              107.9476                                         !
 ! A10   A(6,5,7)              113.2597                                         !
 ! A11   A(6,5,8)              110.639                                          !
 ! A12   A(7,5,8)              113.6702                                         !
 ! A13   A(5,7,10)             116.8354                                         !
 ! A14   A(5,7,17)             117.1833                                         !
 ! A15   A(10,7,17)            125.91                                           !
 ! A16   A(5,8,9)              107.9959                                         !
 ! A17   A(5,8,11)             111.4999                                         !
 ! A18   A(5,8,15)             103.6918                                         !
 ! A19   A(9,8,11)             110.1963                                         !
 ! A20   A(9,8,15)             110.224                                          !
 ! A21   A(11,8,15)            112.9659                                         !
 ! A22   A(8,11,12)            111.0393                                         !
 ! A23   A(8,11,13)            110.2243                                         !
 ! A24   A(8,11,14)            110.5384                                         !
 ! A25   A(12,11,13)           107.4947                                         !
 ! A26   A(12,11,14)           109.1812                                         !
 ! A27   A(13,11,14)           108.2697                                         !
 ! A28   A(8,15,16)            109.3987                                         !
 ! A29   A(7,17,18)            122.9315                                         !
 ! A30   A(7,17,19)            122.3125                                         !
 ! A31   A(18,17,19)           113.9278                                         !
 ! A32   A(17,19,20)           108.5771                                         !
 ! A33   A(17,19,21)           106.2079                                         !
 ! A34   A(17,19,22)           110.2967                                         !
 ! A35   A(20,19,21)           112.6772                                         !
 ! A36   A(20,19,22)           110.2163                                         !
 ! A37   A(21,19,22)           108.7901                                         !
 ! A38   A(19,21,25)           119.4195                                         !
 ! A39   A(19,21,37)           114.9531                                         !
 ! A40   A(25,21,37)           125.5395                                         !
 ! A41   A(19,22,23)           107.6826                                         !
 ! A42   A(19,22,24)           106.9757                                         !
 ! A43   A(19,22,26)           112.7259                                         !
 ! A44   A(23,22,24)           108.2691                                         !
 ! A45   A(23,22,26)           109.4874                                         !
 ! A46   A(24,22,26)           111.5224                                         !
 ! A47   A(22,26,27)           121.0653                                         !
 ! A48   A(22,26,29)           120.3638                                         !
 ! A49   A(27,26,29)           118.4812                                         !
 ! A50   A(26,27,28)           119.1455                                         !
 ! A51   A(26,27,31)           120.9146                                         !
 ! A52   A(28,27,31)           119.9354                                         !
 ! A53   A(26,29,30)           119.3143                                         !
 ! A54   A(26,29,33)           121.0361                                         !
 ! A55   A(30,29,33)           119.633                                          !
 ! A56   A(27,31,32)           119.7784                                         !
 ! A57   A(27,31,35)           120.2589                                         !
 ! A58   A(32,31,35)           119.9581                                         !
 ! A59   A(29,33,34)           119.8813                                         !
 ! A60   A(29,33,35)           119.7934                                         !
 ! A61   A(34,33,35)           120.2609                                         !
 ! A62   A(31,35,33)           119.5123                                         !
 ! A63   A(31,35,36)           120.2033                                         !
 ! A64   A(33,35,36)           120.2485                                         !
 ! A65   A(21,37,38)           119.978                                          !
 ! A66   A(21,37,39)           123.6593                                         !
 ! A67   A(38,37,39)           115.9724                                         !
 ! A68   A(37,39,40)           107.4358                                         !
 ! A69   A(37,39,41)           102.7392                                         !
 ! A70   A(37,39,42)           111.9962                                         !
 ! A71   A(40,39,41)           111.9147                                         !
 ! A72   A(40,39,42)           110.413                                          !
 ! A73   A(41,39,42)           112.0458                                         !
 ! A74   A(39,41,46)           118.9694                                         !
 ! A75   A(39,41,47)           117.1941                                         !
 ! A76   A(46,41,47)           123.4452                                         !
 ! A77   A(39,42,43)           110.4273                                         !
 ! A78   A(39,42,44)           109.8445                                         !
 ! A79   A(39,42,45)           109.7252                                         !
 ! A80   A(43,42,44)           108.6598                                         !
 ! A81   A(43,42,45)           108.6027                                         !
 ! A82   A(44,42,45)           109.5548                                         !
 ! A83   A(41,47,48)           122.6119                                         !
 ! A84   A(41,47,49)           121.089                                          !
 ! A85   A(48,47,49)           115.5456                                         !
 ! A86   A(47,49,50)           107.477                                          !
 ! A87   A(47,49,51)           107.3784                                         !
 ! A88   A(47,49,52)           112.0586                                         !
 ! A89   A(50,49,51)           111.5679                                         !
 ! A90   A(50,49,52)           109.4576                                         !
 ! A91   A(51,49,52)           108.9093                                         !
 ! A92   A(49,51,55)           120.4855                                         !
 ! A93   A(49,51,62)           114.9366                                         !
 ! A94   A(55,51,62)           124.5211                                         !
 ! A95   A(49,52,53)           108.4913                                         !
 ! A96   A(49,52,54)           108.6316                                         !
 ! A97   A(49,52,56)           115.0575                                         !
 ! A98   A(53,52,54)           107.0665                                         !
 ! A99   A(53,52,56)           110.3441                                         !
 ! A100  A(54,52,56)           106.9453                                         !
 ! A101  A(52,56,57)           110.7853                                         !
 ! A102  A(52,56,58)           108.389                                          !
 ! A103  A(52,56,59)           117.7095                                         !
 ! A104  A(57,56,58)           106.4798                                         !
 ! A105  A(57,56,59)           106.5536                                         !
 ! A106  A(58,56,59)           106.3093                                         !
 ! A107  A(56,59,60)           124.0525                                         !
 ! A108  A(56,59,61)           113.0376                                         !
 ! A109  A(60,59,61)           122.8428                                         !
 ! A110  A(59,61,116)          107.228                                          !
 ! A111  A(51,62,63)           122.2626                                         !
 ! A112  A(51,62,64)           123.4967                                         !
 ! A113  A(63,62,64)           113.2824                                         !
 ! A114  A(62,64,65)           108.6914                                         !
 ! A115  A(62,64,66)           105.3526                                         !
 ! A116  A(62,64,67)           111.9296                                         !
 ! A117  A(65,64,66)           109.4507                                         !
 ! A118  A(65,64,67)           108.9697                                         !
 ! A119  A(66,64,67)           112.3377                                         !
 ! A120  A(64,66,71)           120.6369                                         !
 ! A121  A(64,66,72)           115.5753                                         !
 ! A122  A(71,66,72)           123.78                                           !
 ! A123  A(64,67,68)           111.0746                                         !
 ! A124  A(64,67,69)           110.3178                                         !
 ! A125  A(64,67,70)           109.2126                                         !
 ! A126  A(68,67,69)           108.4748                                         !
 ! A127  A(68,67,70)           108.5827                                         !
 ! A128  A(69,67,70)           109.1364                                         !
 ! A129  A(66,72,73)           122.073                                          !
 ! A130  A(66,72,74)           122.8348                                         !
 ! A131  A(73,72,74)           114.9195                                         !
 ! A132  A(72,74,75)           107.8816                                         !
 ! A133  A(72,74,76)           106.727                                          !
 ! A134  A(72,74,77)           110.7393                                         !
 ! A135  A(75,74,76)           110.7014                                         !
 ! A136  A(75,74,77)           109.916                                          !
 ! A137  A(76,74,77)           110.7935                                         !
 ! A138  A(74,76,80)           117.4198                                         !
 ! A139  A(74,76,91)           116.4129                                         !
 ! A140  A(80,76,91)           126.1637                                         !
 ! A141  A(74,77,78)           106.5398                                         !
 ! A142  A(74,77,79)           107.4394                                         !
 ! A143  A(74,77,81)           115.9972                                         !
 ! A144  A(78,77,79)           107.1486                                         !
 ! A145  A(78,77,81)           109.1712                                         !
 ! A146  A(79,77,81)           110.1498                                         !
 ! A147  A(77,81,82)           109.777                                          !
 ! A148  A(77,81,83)           112.0807                                         !
 ! A149  A(77,81,87)           109.3283                                         !
 ! A150  A(82,81,83)           106.9344                                         !
 ! A151  A(82,81,87)           108.0257                                         !
 ! A152  A(83,81,87)           110.5896                                         !
 ! A153  A(81,83,84)           110.986                                          !
 ! A154  A(81,83,85)           112.36                                           !
 ! A155  A(81,83,86)           110.1044                                         !
 ! A156  A(84,83,85)           108.1237                                         !
 ! A157  A(84,83,86)           108.7306                                         !
 ! A158  A(85,83,86)           106.3636                                         !
 ! A159  A(81,87,88)           111.0829                                         !
 ! A160  A(81,87,89)           110.6514                                         !
 ! A161  A(81,87,90)           111.4716                                         !
 ! A162  A(88,87,89)           107.8235                                         !
 ! A163  A(88,87,90)           107.789                                          !
 ! A164  A(89,87,90)           107.8695                                         !
 ! A165  A(76,91,92)           119.1368                                         !
 ! A166  A(76,91,93)           128.0813                                         !
 ! A167  A(92,91,93)           103.8054                                         !
 ! A168  A(91,93,94)           109.6574                                         !
 ! A169  A(91,93,95)           104.3196                                         !
 ! A170  A(91,93,96)           115.4857                                         !
 ! A171  A(94,93,95)           107.8988                                         !
 ! A172  A(94,93,96)           110.2958                                         !
 ! A173  A(95,93,96)           108.7825                                         !
 ! A174  A(93,95,99)           113.6271                                         !
 ! A175  A(93,95,115)          114.4855                                         !
 ! A176  A(99,95,115)          131.8779                                         !
 ! A177  A(93,96,97)           105.408                                          !
 ! A178  A(93,96,98)           109.5232                                         !
 ! A179  A(93,96,100)          115.3008                                         !
 ! A180  A(97,96,98)           107.4302                                         !
 ! A181  A(97,96,100)          107.671                                          !
 ! A182  A(98,96,100)          111.0584                                         !
 ! A183  A(96,100,101)         107.7773                                         !
 ! A184  A(96,100,102)         110.3677                                         !
 ! A185  A(96,100,103)         114.0976                                         !
 ! A186  A(101,100,102)        106.4841                                         !
 ! A187  A(101,100,103)        108.7721                                         !
 ! A188  A(102,100,103)        109.0482                                         !
 ! A189  A(100,103,104)        111.6918                                         !
 ! A190  A(100,103,105)        111.7473                                         !
 ! A191  A(100,103,106)        111.8873                                         !
 ! A192  A(104,103,105)        107.0851                                         !
 ! A193  A(104,103,106)        106.4411                                         !
 ! A194  A(105,103,106)        107.6861                                         !
 ! A195  A(103,106,107)        118.3817                                         !
 ! A196  A(103,106,114)        123.0928                                         !
 ! A197  A(107,106,114)        116.9445                                         !
 ! A198  A(109,108,110)        117.1568                                         !
 ! A199  A(109,108,114)        119.468                                          !
 ! A200  A(110,108,114)        123.2385                                         !
 ! A201  A(112,111,113)        115.7974                                         !
 ! A202  A(112,111,114)        119.5824                                         !
 ! A203  A(113,111,114)        119.4911                                         !
 ! A204  A(106,114,108)        121.0823                                         !
 ! A205  A(106,114,111)        118.6028                                         !
 ! A206  A(108,114,111)        120.2877                                         !
 ! D1    D(2,1,5,6)             41.5215                                         !
 ! D2    D(2,1,5,7)            -78.4374                                         !
 ! D3    D(2,1,5,8)            161.061                                          !
 ! D4    D(3,1,5,6)            156.0845                                         !
 ! D5    D(3,1,5,7)             36.1256                                         !
 ! D6    D(3,1,5,8)            -84.3759                                         !
 ! D7    D(4,1,5,6)            -83.2019                                         !
 ! D8    D(4,1,5,7)            156.8392                                         !
 ! D9    D(4,1,5,8)             36.3377                                         !
 ! D10   D(1,5,7,10)           -33.1212                                         !
 ! D11   D(1,5,7,17)           143.9906                                         !
 ! D12   D(6,5,7,10)          -149.2313                                         !
 ! D13   D(6,5,7,17)            27.8806                                         !
 ! D14   D(8,5,7,10)            83.3727                                         !
 ! D15   D(8,5,7,17)           -99.5154                                         !
 ! D16   D(1,5,8,9)             68.884                                          !
 ! D17   D(1,5,8,11)          -169.9111                                         !
 ! D18   D(1,5,8,15)           -48.068                                          !
 ! D19   D(6,5,8,9)           -173.3972                                         !
 ! D20   D(6,5,8,11)           -52.1923                                         !
 ! D21   D(6,5,8,15)            69.6508                                         !
 ! D22   D(7,5,8,9)            -44.6527                                         !
 ! D23   D(7,5,8,11)            76.5523                                         !
 ! D24   D(7,5,8,15)          -161.6046                                         !
 ! D25   D(5,7,17,18)            7.5041                                         !
 ! D26   D(5,7,17,19)         -161.4381                                         !
 ! D27   D(10,7,17,18)        -175.678                                          !
 ! D28   D(10,7,17,19)          15.3798                                         !
 ! D29   D(5,8,11,12)          -60.7887                                         !
 ! D30   D(5,8,11,13)         -179.7987                                         !
 ! D31   D(5,8,11,14)           60.5455                                         !
 ! D32   D(9,8,11,12)           59.126                                          !
 ! D33   D(9,8,11,13)          -59.884                                          !
 ! D34   D(9,8,11,14)         -179.5398                                         !
 ! D35   D(15,8,11,12)        -177.0989                                         !
 ! D36   D(15,8,11,13)          63.8911                                         !
 ! D37   D(15,8,11,14)         -55.7647                                         !
 ! D38   D(5,8,15,16)          176.2085                                         !
 ! D39   D(9,8,15,16)           60.8278                                         !
 ! D40   D(11,8,15,16)         -62.932                                          !
 ! D41   D(7,17,19,20)         -34.4304                                         !
 ! D42   D(7,17,19,21)        -155.8472                                         !
 ! D43   D(7,17,19,22)          86.4333                                         !
 ! D44   D(18,17,19,20)        155.7133                                         !
 ! D45   D(18,17,19,21)         34.2965                                         !
 ! D46   D(18,17,19,22)        -83.423                                          !
 ! D47   D(17,19,21,25)        -27.532                                          !
 ! D48   D(17,19,21,37)        155.6897                                         !
 ! D49   D(20,19,21,25)       -146.284                                          !
 ! D50   D(20,19,21,37)         36.9377                                         !
 ! D51   D(22,19,21,25)         91.1843                                         !
 ! D52   D(22,19,21,37)        -85.594                                          !
 ! D53   D(17,19,22,23)         77.311                                          !
 ! D54   D(17,19,22,24)       -166.4998                                         !
 ! D55   D(17,19,22,26)        -43.5624                                         !
 ! D56   D(20,19,22,23)       -162.8102                                         !
 ! D57   D(20,19,22,24)        -46.6211                                         !
 ! D58   D(20,19,22,26)         76.3164                                         !
 ! D59   D(21,19,22,23)        -38.8049                                         !
 ! D60   D(21,19,22,24)         77.3842                                         !
 ! D61   D(21,19,22,26)       -159.6783                                         !
 ! D62   D(19,21,37,38)         -1.5643                                         !
 ! D63   D(19,21,37,39)        170.9687                                         !
 ! D64   D(25,21,37,38)       -178.1154                                         !
 ! D65   D(25,21,37,39)         -5.5823                                         !
 ! D66   D(19,22,26,27)        -82.5438                                         !
 ! D67   D(19,22,26,29)         93.9592                                         !
 ! D68   D(23,22,26,27)        157.6191                                         !
 ! D69   D(23,22,26,29)        -25.8779                                         !
 ! D70   D(24,22,26,27)         37.8169                                         !
 ! D71   D(24,22,26,29)       -145.6801                                         !
 ! D72   D(22,26,27,28)         -3.1988                                         !
 ! D73   D(22,26,27,31)        176.0202                                         !
 ! D74   D(29,26,27,28)       -179.766                                          !
 ! D75   D(29,26,27,31)         -0.5471                                         !
 ! D76   D(22,26,29,30)          5.0039                                         !
 ! D77   D(22,26,29,33)       -176.4828                                         !
 ! D78   D(27,26,29,30)       -178.4039                                         !
 ! D79   D(27,26,29,33)          0.1094                                         !
 ! D80   D(26,27,31,32)        179.6855                                         !
 ! D81   D(26,27,31,35)          0.4663                                         !
 ! D82   D(28,27,31,32)         -1.1016                                         !
 ! D83   D(28,27,31,35)        179.6792                                         !
 ! D84   D(26,29,33,34)       -176.6828                                         !
 ! D85   D(26,29,33,35)          0.4082                                         !
 ! D86   D(30,29,33,34)          1.8258                                         !
 ! D87   D(30,29,33,35)        178.9168                                         !
 ! D88   D(27,31,35,33)          0.0614                                         !
 ! D89   D(27,31,35,36)        177.8879                                         !
 ! D90   D(32,31,35,33)       -179.1564                                         !
 ! D91   D(32,31,35,36)         -1.3299                                         !
 ! D92   D(29,33,35,31)         -0.492                                          !
 ! D93   D(29,33,35,36)       -178.3175                                         !
 ! D94   D(34,33,35,31)        176.5878                                         !
 ! D95   D(34,33,35,36)         -1.2377                                         !
 ! D96   D(21,37,39,40)        -30.282                                          !
 ! D97   D(21,37,39,41)       -148.4512                                         !
 ! D98   D(21,37,39,42)         91.1274                                         !
 ! D99   D(38,37,39,40)        142.5249                                         !
 ! D100  D(38,37,39,41)         24.3557                                         !
 ! D101  D(38,37,39,42)        -96.0657                                         !
 ! D102  D(37,39,41,46)        -56.9742                                         !
 ! D103  D(37,39,41,47)        116.095                                          !
 ! D104  D(40,39,41,46)       -171.94                                           !
 ! D105  D(40,39,41,47)          1.1292                                         !
 ! D106  D(42,39,41,46)         63.413                                          !
 ! D107  D(42,39,41,47)       -123.5179                                         !
 ! D108  D(37,39,42,43)       -178.8632                                         !
 ! D109  D(37,39,42,44)         61.3096                                         !
 ! D110  D(37,39,42,45)        -59.1825                                         !
 ! D111  D(40,39,42,43)        -59.1839                                         !
 ! D112  D(40,39,42,44)       -179.011                                          !
 ! D113  D(40,39,42,45)         60.4969                                         !
 ! D114  D(41,39,42,43)         66.2917                                         !
 ! D115  D(41,39,42,44)        -53.5355                                         !
 ! D116  D(41,39,42,45)       -174.0276                                         !
 ! D117  D(39,41,47,48)         19.2786                                         !
 ! D118  D(39,41,47,49)       -171.1108                                         !
 ! D119  D(46,41,47,48)       -167.9901                                         !
 ! D120  D(46,41,47,49)          1.6204                                         !
 ! D121  D(41,47,49,50)        -22.5192                                         !
 ! D122  D(41,47,49,51)       -142.676                                          !
 ! D123  D(41,47,49,52)         97.7722                                         !
 ! D124  D(48,47,49,50)        147.788                                          !
 ! D125  D(48,47,49,51)         27.6312                                         !
 ! D126  D(48,47,49,52)        -91.9206                                         !
 ! D127  D(47,49,51,55)        -21.9424                                         !
 ! D128  D(47,49,51,62)        160.6772                                         !
 ! D129  D(50,49,51,55)       -139.4644                                         !
 ! D130  D(50,49,51,62)         43.1553                                         !
 ! D131  D(52,49,51,55)         99.6031                                         !
 ! D132  D(52,49,51,62)        -77.7773                                         !
 ! D133  D(47,49,52,53)       -162.6798                                         !
 ! D134  D(47,49,52,54)         81.2594                                         !
 ! D135  D(47,49,52,56)        -38.5531                                         !
 ! D136  D(50,49,52,53)        -43.5476                                         !
 ! D137  D(50,49,52,54)       -159.6084                                         !
 ! D138  D(50,49,52,56)         80.5791                                         !
 ! D139  D(51,49,52,53)         78.6697                                         !
 ! D140  D(51,49,52,54)        -37.3911                                         !
 ! D141  D(51,49,52,56)       -157.2036                                         !
 ! D142  D(49,51,62,63)          3.1698                                         !
 ! D143  D(49,51,62,64)        171.2099                                         !
 ! D144  D(55,51,62,63)       -174.0901                                         !
 ! D145  D(55,51,62,64)         -6.05                                           !
 ! D146  D(49,52,56,57)         62.8864                                         !
 ! D147  D(49,52,56,58)        179.3697                                         !
 ! D148  D(49,52,56,59)        -60.0414                                         !
 ! D149  D(53,52,56,57)       -173.9686                                         !
 ! D150  D(53,52,56,58)        -57.4853                                         !
 ! D151  D(53,52,56,59)         63.1036                                         !
 ! D152  D(54,52,56,57)        -57.8529                                         !
 ! D153  D(54,52,56,58)         58.6304                                         !
 ! D154  D(54,52,56,59)        179.2194                                         !
 ! D155  D(52,56,59,60)        151.2139                                         !
 ! D156  D(52,56,59,61)        -31.6972                                         !
 ! D157  D(57,56,59,60)         26.1647                                         !
 ! D158  D(57,56,59,61)       -156.7465                                         !
 ! D159  D(58,56,59,60)        -87.1212                                         !
 ! D160  D(58,56,59,61)         89.9676                                         !
 ! D161  D(56,59,61,116)       176.7842                                         !
 ! D162  D(60,59,61,116)        -6.0867                                         !
 ! D163  D(51,62,64,65)        -42.0877                                         !
 ! D164  D(51,62,64,66)       -159.3092                                         !
 ! D165  D(51,62,64,67)         78.3193                                         !
 ! D166  D(63,62,64,65)        126.9147                                         !
 ! D167  D(63,62,64,66)          9.6932                                         !
 ! D168  D(63,62,64,67)       -112.6783                                         !
 ! D169  D(62,64,66,71)         -6.4936                                         !
 ! D170  D(62,64,66,72)        174.4854                                         !
 ! D171  D(65,64,66,71)       -123.199                                          !
 ! D172  D(65,64,66,72)         57.7799                                         !
 ! D173  D(67,64,66,71)        115.6147                                         !
 ! D174  D(67,64,66,72)        -63.4063                                         !
 ! D175  D(62,64,67,68)       -178.657                                          !
 ! D176  D(62,64,67,69)         61.0236                                         !
 ! D177  D(62,64,67,70)        -58.9247                                         !
 ! D178  D(65,64,67,68)        -58.4123                                         !
 ! D179  D(65,64,67,69)       -178.7317                                         !
 ! D180  D(65,64,67,70)         61.32                                           !
 ! D181  D(66,64,67,68)         63.0493                                         !
 ! D182  D(66,64,67,69)        -57.2701                                         !
 ! D183  D(66,64,67,70)       -177.2183                                         !
 ! D184  D(64,66,72,73)         -3.6382                                         !
 ! D185  D(64,66,72,74)       -178.6164                                         !
 ! D186  D(71,66,72,73)        177.3752                                         !
 ! D187  D(71,66,72,74)          2.397                                          !
 ! D188  D(66,72,74,75)        -37.9782                                         !
 ! D189  D(66,72,74,76)       -156.9785                                         !
 ! D190  D(66,72,74,77)         82.3466                                         !
 ! D191  D(73,72,74,75)        146.7132                                         !
 ! D192  D(73,72,74,76)         27.7129                                         !
 ! D193  D(73,72,74,77)        -92.9619                                         !
 ! D194  D(72,74,76,80)        -33.6445                                         !
 ! D195  D(72,74,76,91)        147.0049                                         !
 ! D196  D(75,74,76,80)       -150.7942                                         !
 ! D197  D(75,74,76,91)         29.8552                                         !
 ! D198  D(77,74,76,80)         86.9957                                         !
 ! D199  D(77,74,76,91)        -92.3549                                         !
 ! D200  D(72,74,77,78)        -50.4512                                         !
 ! D201  D(72,74,77,79)         64.1113                                         !
 ! D202  D(72,74,77,81)       -172.1838                                         !
 ! D203  D(75,74,77,78)         68.6532                                         !
 ! D204  D(75,74,77,79)       -176.7843                                         !
 ! D205  D(75,74,77,81)        -53.0793                                         !
 ! D206  D(76,74,77,78)       -168.6793                                         !
 ! D207  D(76,74,77,79)        -54.1168                                         !
 ! D208  D(76,74,77,81)         69.5881                                         !
 ! D209  D(74,76,91,92)         15.5372                                         !
 ! D210  D(74,76,91,93)        157.153                                          !
 ! D211  D(80,76,91,92)       -163.7488                                         !
 ! D212  D(80,76,91,93)        -22.133                                          !
 ! D213  D(74,77,81,82)        -54.7522                                         !
 ! D214  D(74,77,81,83)         63.9266                                         !
 ! D215  D(74,77,81,87)       -173.0855                                         !
 ! D216  D(78,77,81,82)       -175.0754                                         !
 ! D217  D(78,77,81,83)        -56.3966                                         !
 ! D218  D(78,77,81,87)         66.5913                                         !
 ! D219  D(79,77,81,82)         67.5319                                         !
 ! D220  D(79,77,81,83)       -173.7893                                         !
 ! D221  D(79,77,81,87)        -50.8014                                         !
 ! D222  D(77,81,83,84)         59.4562                                         !
 ! D223  D(77,81,83,85)        -61.7451                                         !
 ! D224  D(77,81,83,86)        179.8974                                         !
 ! D225  D(82,81,83,84)        179.8014                                         !
 ! D226  D(82,81,83,85)         58.6002                                         !
 ! D227  D(82,81,83,86)        -59.7574                                         !
 ! D228  D(87,81,83,84)        -62.8163                                         !
 ! D229  D(87,81,83,85)        175.9824                                         !
 ! D230  D(87,81,83,86)         57.6249                                         !
 ! D231  D(77,81,87,88)        -61.7005                                         !
 ! D232  D(77,81,87,89)        178.5721                                         !
 ! D233  D(77,81,87,90)         58.5307                                         !
 ! D234  D(82,81,87,88)        178.8788                                         !
 ! D235  D(82,81,87,89)         59.1514                                         !
 ! D236  D(82,81,87,90)        -60.89                                           !
 ! D237  D(83,81,87,88)         62.1697                                         !
 ! D238  D(83,81,87,89)        -57.5577                                         !
 ! D239  D(83,81,87,90)       -177.5991                                         !
 ! D240  D(76,91,93,94)        -18.3953                                         !
 ! D241  D(76,91,93,95)       -133.7362                                         !
 ! D242  D(76,91,93,96)        106.9366                                         !
 ! D243  D(92,91,93,94)        127.6531                                         !
 ! D244  D(92,91,93,95)         12.3121                                         !
 ! D245  D(92,91,93,96)       -107.015                                          !
 ! D246  D(91,93,95,99)         -4.2936                                         !
 ! D247  D(91,93,95,115)       176.6905                                         !
 ! D248  D(94,93,95,99)       -120.863                                          !
 ! D249  D(94,93,95,115)        60.1212                                         !
 ! D250  D(96,93,95,99)        119.4772                                         !
 ! D251  D(96,93,95,115)       -59.5386                                         !
 ! D252  D(91,93,96,97)        146.9118                                         !
 ! D253  D(91,93,96,98)         31.6101                                         !
 ! D254  D(91,93,96,100)       -94.4972                                         !
 ! D255  D(94,93,96,97)        -88.0856                                         !
 ! D256  D(94,93,96,98)        156.6127                                         !
 ! D257  D(94,93,96,100)        30.5053                                         !
 ! D258  D(95,93,96,97)         30.0711                                         !
 ! D259  D(95,93,96,98)        -85.2306                                         !
 ! D260  D(95,93,96,100)       148.6621                                         !
 ! D261  D(93,96,100,101)      -49.6789                                         !
 ! D262  D(93,96,100,102)     -165.5842                                         !
 ! D263  D(93,96,100,103)       71.2258                                         !
 ! D264  D(97,96,100,101)       67.6458                                         !
 ! D265  D(97,96,100,102)      -48.2595                                         !
 ! D266  D(97,96,100,103)     -171.4494                                         !
 ! D267  D(98,96,100,101)     -174.9966                                         !
 ! D268  D(98,96,100,102)       69.0981                                         !
 ! D269  D(98,96,100,103)      -54.0919                                         !
 ! D270  D(96,100,103,104)      81.9995                                         !
 ! D271  D(96,100,103,105)     -37.9402                                         !
 ! D272  D(96,100,103,106)    -158.787                                          !
 ! D273  D(101,100,103,104)   -157.6507                                         !
 ! D274  D(101,100,103,105)     82.4096                                         !
 ! D275  D(101,100,103,106)    -38.4372                                         !
 ! D276  D(102,100,103,104)    -41.9033                                         !
 ! D277  D(102,100,103,105)   -161.843                                          !
 ! D278  D(102,100,103,106)     77.3102                                         !
 ! D279  D(100,103,106,107)    -94.7305                                         !
 ! D280  D(100,103,106,114)     70.479                                          !
 ! D281  D(104,103,106,107)     27.536                                          !
 ! D282  D(104,103,106,114)   -167.2545                                         !
 ! D283  D(105,103,106,107)    142.0938                                         !
 ! D284  D(105,103,106,114)    -52.6967                                         !
 ! D285  D(103,106,114,108)     19.2036                                         !
 ! D286  D(103,106,114,111)   -162.6908                                         !
 ! D287  D(107,106,114,108)   -175.3894                                         !
 ! D288  D(107,106,114,111)      2.7161                                         !
 ! D289  D(109,108,114,106)   -171.6983                                         !
 ! D290  D(109,108,114,111)     10.2279                                         !
 ! D291  D(110,108,114,106)     12.6766                                         !
 ! D292  D(110,108,114,111)   -165.3973                                         !
 ! D293  D(112,111,114,106)     29.2256                                         !
 ! D294  D(112,111,114,108)   -152.6534                                         !
 ! D295  D(113,111,114,106)   -177.1412                                         !
 ! D296  D(113,111,114,108)      0.9799                                         !
 --------------------------------------------------------------------------------
 Symmetry turned off by external request.
 Stoichiometry    C36H59N10O11(1+)
 Framework group  C1[X(C36H59N10O11)]
 Deg. of freedom   342
 Full point group                 C1      NOp   1
                          Input orientation:                          
 ---------------------------------------------------------------------
 Center     Atomic      Atomic             Coordinates (Angstroms)
 Number     Number       Type             X           Y           Z
 ---------------------------------------------------------------------
      1          7           0       -8.422773   -5.025937   -6.386343
      2          1           0       -7.856109   -5.795353   -5.987378
      3          1           0       -8.934692   -4.596076   -5.590302
      4          1           0       -9.052833   -5.347820   -7.133433
      5          6           0       -7.551618   -3.924228   -6.920004
      6          1           0       -6.710645   -4.386460   -7.440288
      7          6           0       -7.136311   -3.166165   -5.647977
      8          6           0       -8.392612   -3.084558   -7.890610
      9          1           0       -9.152287   -2.546065   -7.304036
     10          8           0       -7.960031   -3.125561   -4.729515
     11          6           0       -7.530361   -2.097675   -8.666298
     12          1           0       -7.028513   -1.397930   -7.989938
     13          1           0       -8.150708   -1.508116   -9.348634
     14          1           0       -6.777594   -2.628085   -9.258425
     15          8           0       -9.016066   -4.060386   -8.729708
     16          1           0       -9.621550   -3.617040   -9.344590
     17          7           0       -5.901938   -2.664841   -5.613643
     18          1           0       -5.281802   -2.667191   -6.419342
     19          6           0       -5.250918   -2.285607   -4.369038
     20          1           0       -6.006622   -1.893903   -3.686880
     21          6           0       -4.191997   -1.241067   -4.740952
     22          6           0       -4.536913   -3.521676   -3.732046
     23          1           0       -3.605497   -3.689372   -4.284626
     24          1           0       -4.281424   -3.248321   -2.704469
     25          8           0       -3.692234   -1.259955   -5.868142
     26          6           0       -5.382035   -4.771295   -3.778770
     27          6           0       -6.367576   -5.014274   -2.812621
     28          1           0       -6.486139   -4.314511   -1.990178
     29          6           0       -5.244570   -5.679911   -4.835889
     30          1           0       -4.467064   -5.518657   -5.578825
     31          6           0       -7.201305   -6.127206   -2.904484
     32          1           0       -7.955401   -6.300392   -2.142778
     33          6           0       -6.071617   -6.806341   -4.932177
     34          1           0       -5.913439   -7.528058   -5.730271
     35          6           0       -7.058939   -7.029295   -3.964672
     36          1           0       -7.686455   -7.914814   -4.016936
     37          7           0       -3.844265   -0.410071   -3.748282
     38          1           0       -4.294321   -0.487501   -2.839636
     39          6           0       -2.721162    0.531408   -3.831231
     40          1           0       -1.969674    0.087839   -4.490752
     41          6           0       -2.235746    0.606620   -2.380802
     42          6           0       -3.156958    1.897258   -4.362056
     43          1           0       -2.297201    2.572092   -4.432423
     44          1           0       -3.894461    2.339587   -3.687203
     45          1           0       -3.593771    1.783893   -5.357877
     46          8           0       -3.030615    0.944134   -1.502381
     47          7           0       -0.989345    0.157477   -2.123451
     48          1           0       -0.285909    0.051308   -2.847228
     49          6           0       -0.512644    0.010110   -0.761473
     50          1           0       -1.115242    0.666477   -0.130293
     51          6           0        0.965900    0.416171   -0.747288
     52          6           0       -0.637860   -1.453992   -0.254318
     53          1           0       -0.565948   -1.450408    0.837285
     54          1           0        0.215943   -2.029464   -0.631155
     55          8           0        1.630850    0.393010   -1.785172
     56          6           0       -1.906965   -2.190941   -0.702969
     57          1           0       -1.932594   -2.292067   -1.790585
     58          1           0       -1.877747   -3.210889   -0.295736
     59          6           0       -3.241228   -1.607769   -0.292753
     60          8           0       -4.271301   -1.739366   -0.934840
     61          8           0       -3.196872   -0.977210    0.888065
     62          7           0        1.455625    0.729657    0.463865
     63          1           0        0.897644    0.653213    1.312226
     64          6           0        2.865145    0.959504    0.723020
     65          1           0        3.449648    0.203208    0.184171
     66          6           0        3.039243    0.757163    2.240914
     67          6           0        3.312266    2.355501    0.265213
     68          1           0        4.381896    2.505147    0.445437
     69          1           0        2.757902    3.128560    0.806354
     70          1           0        3.121447    2.461040   -0.805470
     71          8           0        2.058856    0.580024    2.967870
     72          7           0        4.304130    0.809528    2.691873
     73          1           0        5.093956    0.917456    2.066888
     74          6           0        4.652662    0.610052    4.093695
     75          1           0        3.878548    1.081218    4.701783
     76          6           0        6.000941    1.292383    4.312704
     77          6           0        4.739722   -0.897740    4.427236
     78          1           0        3.813093   -1.353808    4.056160
     79          1           0        5.566020   -1.318012    3.838154
     80          8           0        6.820861    1.282616    3.351594
     81          6           0        4.916087   -1.250340    5.914305
     82          1           0        5.790936   -0.728700    6.317732
     83          6           0        3.710196   -0.817091    6.756336
     84          1           0        2.789943   -1.301796    6.403972
     85          1           0        3.554481    0.265947    6.734190
     86          1           0        3.868472   -1.084246    7.805003
     87          6           0        5.157006   -2.758561    6.053263
     88          1           0        4.297678   -3.331965    5.680193
     89          1           0        5.310833   -3.029982    7.102879
     90          1           0        6.042579   -3.077281    5.489926
     91          7           0        6.201942    1.827990    5.503389
     92          1           0        5.571213    1.560577    6.296120
     93          6           0        7.477612    2.123238    6.156480
     94          1           0        8.279027    1.551012    5.675696
     95          6           0        7.298669    1.563315    7.646981
     96          6           0        7.854689    3.611506    6.228861
     97          1           0        8.406486    3.726284    7.166525
     98          1           0        6.942873    4.217539    6.307635
     99          8           0        6.138624    1.119531    7.885909
    100          6           0        8.754224    4.115031    5.095177
    101          1           0        9.600069    3.421617    5.005471
    102          1           0        9.179733    5.093846    5.351218
    103          6           0        8.051763    4.214837    3.736031
    104          1           0        7.479182    5.140756    3.644442
    105          1           0        7.355563    3.391094    3.579877
    106          7           0        9.016135    4.206541    2.615202
    107          1           0        9.325817    5.092686    2.241527
    108          7           0        9.325898    1.908896    2.628783
    109          1           0        9.932946    1.120692    2.457123
    110          1           0        8.381091    1.705652    3.036868
    111          7           0       10.811319    3.283894    1.477089
    112          1           0       11.340711    4.142168    1.530991
    113          1           0       11.322536    2.471276    1.165162
    114          6           0        9.712893    3.123069    2.260284
    115          8           0        8.306315    1.660570    8.354834
    116          1           0       -4.080438   -0.592852    1.043910
 ---------------------------------------------------------------------
 Rotational constants (GHZ):           0.1043195           0.0104580           0.0099303
 Standard basis: 6-31G(d) (6D, 7F)
   973 basis functions,  1832 primitive gaussians,   973 cartesian basis functions
   216 alpha electrons      216 beta electrons
       nuclear repulsion energy      7868.7885786668 Hartrees.
 NAtoms=  116 NActive=  116 NUniq=  116 SFac= 1.00D+00 NAtFMM=   60 NAOKFM=T Big=T
 Integral buffers will be    131072 words long.
 Raffenetti 2 integral format.
 Two-electron integral symmetry is turned off.
 Nuclear repulsion after empirical dispersion term =     7868.5360989514 Hartrees.
 One-electron integrals computed using PRISM.
 NBasis=   973 RedAO= T EigKep=  4.65D-04  NBF=   973
 NBsUse=   973 1.00D-06 EigRej= -1.00D+00 NBFU=   973
 Initial guess from the checkpoint file:  "conf-796.chk"
 B after Tr=     0.000000    0.000000    0.000000
         Rot=    1.000000    0.000000    0.000000    0.000000 Ang=   0.00 deg.
 Requested convergence on RMS density matrix=1.00D-08 within 128 cycles.
 Requested convergence on MAX density matrix=1.00D-06.
 Requested convergence on             energy=1.00D-06.
 No special actions if energy rises.
 SCF Done:  E(RB3LYP) =  -2782.51507407     A.U. after    2 cycles
            NFock=  2  Conv=0.62D-08     -V/T= 2.0093
 Hyperfine terms turned off by default for NAtoms > 100.

 **********************************************************************

            Population analysis using the SCF Density.

 **********************************************************************

 Alpha  occ. eigenvalues --  -19.29095 -19.27165 -19.24900 -19.21667 -19.20609
 Alpha  occ. eigenvalues --  -19.18959 -19.17977 -19.17819 -19.17148 -19.07729
 Alpha  occ. eigenvalues --  -19.06388 -14.57769 -14.48399 -14.47972 -14.47309
 Alpha  occ. eigenvalues --  -14.45604 -14.44604 -14.43515 -14.41800 -14.41100
 Alpha  occ. eigenvalues --  -14.38631 -10.43385 -10.42220 -10.40088 -10.39057
 Alpha  occ. eigenvalues --  -10.38569 -10.37772 -10.36257 -10.35083 -10.34211
 Alpha  occ. eigenvalues --  -10.33695 -10.33440 -10.31208 -10.30161 -10.30102
 Alpha  occ. eigenvalues --  -10.29976 -10.29967 -10.29754 -10.29631 -10.29558
 Alpha  occ. eigenvalues --  -10.29385 -10.29228 -10.28968 -10.28796 -10.27828
 Alpha  occ. eigenvalues --  -10.27335 -10.26997 -10.25406 -10.24897 -10.24019
 Alpha  occ. eigenvalues --  -10.23988 -10.23248 -10.21711 -10.21185 -10.20353
 Alpha  occ. eigenvalues --  -10.19195 -10.18318  -1.18237  -1.18037  -1.16366
 Alpha  occ. eigenvalues --   -1.12740  -1.12013  -1.11843  -1.11307  -1.09995
 Alpha  occ. eigenvalues --   -1.09083  -1.08994  -1.08163  -1.05132  -1.01375
 Alpha  occ. eigenvalues --   -1.01153  -1.00832  -0.99979  -0.99738  -0.98660
 Alpha  occ. eigenvalues --   -0.97645  -0.96105  -0.95668  -0.92523  -0.92017
 Alpha  occ. eigenvalues --   -0.89273  -0.87873  -0.85809  -0.85163  -0.84857
 Alpha  occ. eigenvalues --   -0.84538  -0.84341  -0.82945  -0.82336  -0.80027
 Alpha  occ. eigenvalues --   -0.79078  -0.77528  -0.77322  -0.75505  -0.74336
 Alpha  occ. eigenvalues --   -0.73712  -0.72752  -0.72584  -0.71504  -0.71170
 Alpha  occ. eigenvalues --   -0.70989  -0.70294  -0.69907  -0.69670  -0.69371
 Alpha  occ. eigenvalues --   -0.68712  -0.68548  -0.68119  -0.66648  -0.66278
 Alpha  occ. eigenvalues --   -0.65875  -0.65739  -0.64756  -0.64297  -0.63700
 Alpha  occ. eigenvalues --   -0.63094  -0.62630  -0.61776  -0.61436  -0.60731
 Alpha  occ. eigenvalues --   -0.60485  -0.59418  -0.59209  -0.58549  -0.58327
 Alpha  occ. eigenvalues --   -0.58171  -0.56876  -0.56798  -0.56661  -0.56206
 Alpha  occ. eigenvalues --   -0.55765  -0.55646  -0.55376  -0.55206  -0.54697
 Alpha  occ. eigenvalues --   -0.54531  -0.53867  -0.53771  -0.53228  -0.52811
 Alpha  occ. eigenvalues --   -0.52429  -0.52282  -0.52223  -0.51899  -0.51734
 Alpha  occ. eigenvalues --   -0.51294  -0.51152  -0.51030  -0.50589  -0.50356
 Alpha  occ. eigenvalues --   -0.50071  -0.49823  -0.49485  -0.49163  -0.48929
 Alpha  occ. eigenvalues --   -0.48491  -0.48292  -0.47723  -0.47434  -0.47293
 Alpha  occ. eigenvalues --   -0.47163  -0.47042  -0.46764  -0.46383  -0.46312
 Alpha  occ. eigenvalues --   -0.46227  -0.45866  -0.45436  -0.45096  -0.44968
 Alpha  occ. eigenvalues --   -0.44645  -0.44543  -0.44076  -0.43889  -0.43737
 Alpha  occ. eigenvalues --   -0.43422  -0.43154  -0.42966  -0.42882  -0.42287
 Alpha  occ. eigenvalues --   -0.42158  -0.41521  -0.41513  -0.40684  -0.40023
 Alpha  occ. eigenvalues --   -0.39811  -0.39657  -0.39538  -0.39304  -0.38956
 Alpha  occ. eigenvalues --   -0.38415  -0.38275  -0.38265  -0.37564  -0.36748
 Alpha  occ. eigenvalues --   -0.35583  -0.35559  -0.35487  -0.35175  -0.35077
 Alpha  occ. eigenvalues --   -0.34904  -0.34788  -0.34536  -0.34113  -0.33963
 Alpha  occ. eigenvalues --   -0.33432  -0.32587  -0.32403  -0.31952  -0.31677
 Alpha  occ. eigenvalues --   -0.30919  -0.30262  -0.29732  -0.22641  -0.22582
 Alpha  occ. eigenvalues --   -0.20600
 Alpha virt. eigenvalues --   -0.12377  -0.11211  -0.10804  -0.07814  -0.07071
 Alpha virt. eigenvalues --   -0.06967  -0.06702  -0.04740  -0.04614  -0.04340
 Alpha virt. eigenvalues --   -0.03945  -0.03644  -0.03244  -0.02160  -0.01273
 Alpha virt. eigenvalues --   -0.00617  -0.00274   0.00159   0.00231   0.00400
 Alpha virt. eigenvalues --    0.01422   0.01885   0.02364   0.02755   0.02950
 Alpha virt. eigenvalues --    0.03319   0.03491   0.03714   0.03796   0.04057
 Alpha virt. eigenvalues --    0.04676   0.05181   0.05585   0.05930   0.06015
 Alpha virt. eigenvalues --    0.06313   0.06463   0.06689   0.06926   0.07207
 Alpha virt. eigenvalues --    0.07318   0.07513   0.07829   0.08052   0.08245
 Alpha virt. eigenvalues --    0.08339   0.08568   0.08751   0.08951   0.09154
 Alpha virt. eigenvalues --    0.09564   0.09751   0.09909   0.10280   0.10645
 Alpha virt. eigenvalues --    0.10847   0.11027   0.11166   0.11269   0.11369
 Alpha virt. eigenvalues --    0.11681   0.11754   0.12093   0.12204   0.12450
 Alpha virt. eigenvalues --    0.12932   0.13029   0.13266   0.13402   0.13806
 Alpha virt. eigenvalues --    0.13904   0.14108   0.14807   0.14909   0.15222
 Alpha virt. eigenvalues --    0.15417   0.15642   0.15885   0.16480   0.16742
 Alpha virt. eigenvalues --    0.16788   0.16961   0.17207   0.17232   0.17339
 Alpha virt. eigenvalues --    0.17912   0.18301   0.18457   0.19100   0.19261
 Alpha virt. eigenvalues --    0.19580   0.19833   0.20256   0.20477   0.20724
 Alpha virt. eigenvalues --    0.21278   0.21972   0.22036   0.22869   0.23225
 Alpha virt. eigenvalues --    0.23309   0.23848   0.24037   0.24401   0.24626
 Alpha virt. eigenvalues --    0.25390   0.25520   0.25933   0.26116   0.26795
 Alpha virt. eigenvalues --    0.27806   0.28651   0.28989   0.29319   0.29896
 Alpha virt. eigenvalues --    0.30485   0.31402   0.32426   0.32914   0.33300
 Alpha virt. eigenvalues --    0.33845   0.35595   0.35822   0.36289   0.36972
 Alpha virt. eigenvalues --    0.37399   0.37592   0.38844   0.40239   0.40811
 Alpha virt. eigenvalues --    0.42020   0.42678   0.42867   0.43368   0.43627
 Alpha virt. eigenvalues --    0.43747   0.44014   0.44265   0.44344   0.44642
 Alpha virt. eigenvalues --    0.45137   0.45320   0.45603   0.45775   0.45972
 Alpha virt. eigenvalues --    0.46197   0.46460   0.46603   0.46874   0.47261
 Alpha virt. eigenvalues --    0.47349   0.47847   0.48195   0.48285   0.48666
 Alpha virt. eigenvalues --    0.48958   0.49099   0.49358   0.49543   0.49854
 Alpha virt. eigenvalues --    0.50258   0.50432   0.50727   0.51069   0.51219
 Alpha virt. eigenvalues --    0.51312   0.51612   0.51823   0.51859   0.52189
 Alpha virt. eigenvalues --    0.52892   0.52984   0.53323   0.53936   0.54216
 Alpha virt. eigenvalues --    0.54790   0.55562   0.55673   0.56198   0.56307
 Alpha virt. eigenvalues --    0.56656   0.56700   0.57350   0.57569   0.57799
 Alpha virt. eigenvalues --    0.58138   0.58647   0.58782   0.59088   0.59275
 Alpha virt. eigenvalues --    0.59595   0.59919   0.60103   0.60525   0.60819
 Alpha virt. eigenvalues --    0.60913   0.61152   0.61603   0.61909   0.62370
 Alpha virt. eigenvalues --    0.63214   0.63471   0.63657   0.63876   0.64320
 Alpha virt. eigenvalues --    0.64607   0.64809   0.64936   0.65101   0.65510
 Alpha virt. eigenvalues --    0.65577   0.66120   0.66734   0.66952   0.67334
 Alpha virt. eigenvalues --    0.68230   0.68572   0.68729   0.69176   0.69311
 Alpha virt. eigenvalues --    0.69996   0.70607   0.70754   0.70991   0.71271
 Alpha virt. eigenvalues --    0.71404   0.72291   0.72363   0.72640   0.72960
 Alpha virt. eigenvalues --    0.73062   0.73527   0.73751   0.74014   0.74327
 Alpha virt. eigenvalues --    0.74606   0.74757   0.75048   0.75270   0.75646
 Alpha virt. eigenvalues --    0.75751   0.76149   0.76193   0.76259   0.76616
 Alpha virt. eigenvalues --    0.76701   0.76889   0.77011   0.77242   0.77406
 Alpha virt. eigenvalues --    0.77841   0.78334   0.78956   0.79190   0.79352
 Alpha virt. eigenvalues --    0.79820   0.80018   0.80323   0.80516   0.80572
 Alpha virt. eigenvalues --    0.80580   0.80733   0.80902   0.81255   0.81675
 Alpha virt. eigenvalues --    0.81748   0.81791   0.82028   0.82427   0.82569
 Alpha virt. eigenvalues --    0.82751   0.83043   0.83188   0.83297   0.83801
 Alpha virt. eigenvalues --    0.84148   0.84278   0.84546   0.84783   0.85069
 Alpha virt. eigenvalues --    0.85464   0.85625   0.85947   0.86256   0.86435
 Alpha virt. eigenvalues --    0.86722   0.86965   0.87395   0.87816   0.88078
 Alpha virt. eigenvalues --    0.88424   0.88699   0.88835   0.89111   0.89553
 Alpha virt. eigenvalues --    0.89773   0.89842   0.90016   0.90128   0.90381
 Alpha virt. eigenvalues --    0.90776   0.90897   0.91113   0.91508   0.91563
 Alpha virt. eigenvalues --    0.91707   0.92233   0.92298   0.92737   0.93232
 Alpha virt. eigenvalues --    0.93723   0.93919   0.94356   0.94523   0.94786
 Alpha virt. eigenvalues --    0.95775   0.96093   0.96339   0.96474   0.96568
 Alpha virt. eigenvalues --    0.97239   0.97714   0.98106   0.98943   0.99543
 Alpha virt. eigenvalues --    1.00011   1.00347   1.00941   1.01034   1.02378
 Alpha virt. eigenvalues --    1.02546   1.02762   1.03322   1.03462   1.04146
 Alpha virt. eigenvalues --    1.04610   1.05076   1.05964   1.06070   1.06560
 Alpha virt. eigenvalues --    1.06952   1.07388   1.07478   1.08395   1.08994
 Alpha virt. eigenvalues --    1.09431   1.10003   1.10239   1.11719   1.12030
 Alpha virt. eigenvalues --    1.12295   1.13151   1.14347   1.14591   1.15147
 Alpha virt. eigenvalues --    1.15646   1.16109   1.16733   1.17362   1.17928
 Alpha virt. eigenvalues --    1.18433   1.19661   1.20114   1.20321   1.21303
 Alpha virt. eigenvalues --    1.21466   1.21650   1.22085   1.22342   1.22863
 Alpha virt. eigenvalues --    1.23758   1.24140   1.24603   1.25277   1.26015
 Alpha virt. eigenvalues --    1.26645   1.28379   1.28947   1.29562   1.29697
 Alpha virt. eigenvalues --    1.30160   1.30735   1.31404   1.32478   1.32604
 Alpha virt. eigenvalues --    1.33011   1.33243   1.34004   1.34830   1.35026
 Alpha virt. eigenvalues --    1.36594   1.36953   1.37162   1.38135   1.38392
 Alpha virt. eigenvalues --    1.38634   1.38985   1.39239   1.39346   1.39805
 Alpha virt. eigenvalues --    1.40000   1.40429   1.41483   1.41927   1.42463
 Alpha virt. eigenvalues --    1.42905   1.43241   1.43809   1.44492   1.44649
 Alpha virt. eigenvalues --    1.45493   1.45791   1.46133   1.47293   1.48059
 Alpha virt. eigenvalues --    1.48473   1.48924   1.49293   1.50062   1.50355
 Alpha virt. eigenvalues --    1.50528   1.51572   1.51954   1.52551   1.53523
 Alpha virt. eigenvalues --    1.54118   1.55395   1.56249   1.56644   1.57766
 Alpha virt. eigenvalues --    1.57904   1.59660   1.59863   1.60026   1.60890
 Alpha virt. eigenvalues --    1.61654   1.62460   1.63112   1.63412   1.63744
 Alpha virt. eigenvalues --    1.64028   1.64686   1.65177   1.65581   1.66316
 Alpha virt. eigenvalues --    1.66539   1.66681   1.67260   1.68365   1.68598
 Alpha virt. eigenvalues --    1.68851   1.69117   1.69427   1.70157   1.70362
 Alpha virt. eigenvalues --    1.70645   1.70673   1.70916   1.71222   1.71509
 Alpha virt. eigenvalues --    1.72297   1.72469   1.73285   1.73574   1.73762
 Alpha virt. eigenvalues --    1.74048   1.74336   1.74670   1.75106   1.75223
 Alpha virt. eigenvalues --    1.75594   1.75954   1.76771   1.76984   1.77445
 Alpha virt. eigenvalues --    1.78263   1.78610   1.78709   1.78769   1.78957
 Alpha virt. eigenvalues --    1.80185   1.80300   1.80591   1.80751   1.81331
 Alpha virt. eigenvalues --    1.81894   1.82506   1.82680   1.83124   1.83517
 Alpha virt. eigenvalues --    1.83958   1.84284   1.84313   1.84408   1.84751
 Alpha virt. eigenvalues --    1.84896   1.85166   1.85548   1.86556   1.86996
 Alpha virt. eigenvalues --    1.87780   1.87940   1.88187   1.88661   1.88811
 Alpha virt. eigenvalues --    1.89151   1.89250   1.89453   1.89762   1.90015
 Alpha virt. eigenvalues --    1.90447   1.91026   1.91193   1.92390   1.92629
 Alpha virt. eigenvalues --    1.93355   1.93656   1.93685   1.94031   1.94319
 Alpha virt. eigenvalues --    1.94878   1.95050   1.95612   1.96022   1.96305
 Alpha virt. eigenvalues --    1.96654   1.96882   1.97260   1.97552   1.97976
 Alpha virt. eigenvalues --    1.98228   1.98717   1.99848   2.00211   2.00614
 Alpha virt. eigenvalues --    2.01256   2.01548   2.02487   2.02766   2.03254
 Alpha virt. eigenvalues --    2.03435   2.04542   2.04702   2.04839   2.05259
 Alpha virt. eigenvalues --    2.05407   2.05712   2.06321   2.06645   2.06744
 Alpha virt. eigenvalues --    2.07591   2.08039   2.08351   2.09320   2.09506
 Alpha virt. eigenvalues --    2.09842   2.10299   2.10364   2.10807   2.11758
 Alpha virt. eigenvalues --    2.12611   2.13480   2.14323   2.14357   2.15255
 Alpha virt. eigenvalues --    2.15428   2.16583   2.16873   2.16933   2.17809
 Alpha virt. eigenvalues --    2.18646   2.19170   2.20029   2.20523   2.20686
 Alpha virt. eigenvalues --    2.21071   2.21730   2.22081   2.22503   2.22981
 Alpha virt. eigenvalues --    2.23036   2.23688   2.24158   2.24501   2.25345
 Alpha virt. eigenvalues --    2.25762   2.26103   2.26793   2.27867   2.28317
 Alpha virt. eigenvalues --    2.28680   2.29227   2.29870   2.30442   2.30697
 Alpha virt. eigenvalues --    2.31124   2.31657   2.32279   2.32871   2.33472
 Alpha virt. eigenvalues --    2.34377   2.34511   2.34863   2.35294   2.35536
 Alpha virt. eigenvalues --    2.36145   2.37312   2.37677   2.38308   2.39161
 Alpha virt. eigenvalues --    2.39472   2.40607   2.41475   2.42378   2.43117
 Alpha virt. eigenvalues --    2.43288   2.43493   2.44234   2.44614   2.44899
 Alpha virt. eigenvalues --    2.45601   2.47029   2.47266   2.48323   2.48975
 Alpha virt. eigenvalues --    2.49125   2.49315   2.49952   2.50661   2.51183
 Alpha virt. eigenvalues --    2.51771   2.52904   2.53167   2.53456   2.53718
 Alpha virt. eigenvalues --    2.54761   2.55317   2.56443   2.56852   2.57388
 Alpha virt. eigenvalues --    2.58331   2.58716   2.60703   2.61369   2.61976
 Alpha virt. eigenvalues --    2.62387   2.62460   2.63463   2.63820   2.64062
 Alpha virt. eigenvalues --    2.64943   2.66283   2.66456   2.67372   2.67448
 Alpha virt. eigenvalues --    2.67663   2.68103   2.70052   2.70357   2.71476
 Alpha virt. eigenvalues --    2.72072   2.73832   2.74145   2.75575   2.76305
 Alpha virt. eigenvalues --    2.77898   2.78714   2.79540   2.80174   2.81191
 Alpha virt. eigenvalues --    2.81544   2.82900   2.83108   2.83410   2.84899
 Alpha virt. eigenvalues --    2.87387   2.88134   2.88509   2.89849   2.91605
 Alpha virt. eigenvalues --    2.91986   2.92585   2.93268   2.94452   2.95501
 Alpha virt. eigenvalues --    2.96561   2.97550   2.98053   2.98723   3.01194
 Alpha virt. eigenvalues --    3.01653   3.03376   3.05396   3.09128   3.10298
 Alpha virt. eigenvalues --    3.11975   3.14806   3.17038   3.21579   3.30506
 Alpha virt. eigenvalues --    3.68119   3.69508   3.74098   3.83006   3.83762
 Alpha virt. eigenvalues --    3.90181   3.92083   3.93637   3.96003   3.96953
 Alpha virt. eigenvalues --    3.98160   4.01605   4.02748   4.03944   4.04288
 Alpha virt. eigenvalues --    4.06381   4.07774   4.08674   4.09802   4.10100
 Alpha virt. eigenvalues --    4.10129   4.13118   4.15062   4.15342   4.16091
 Alpha virt. eigenvalues --    4.17390   4.17985   4.20469   4.21452   4.25065
 Alpha virt. eigenvalues --    4.25564   4.27360   4.27599   4.30724   4.31383
 Alpha virt. eigenvalues --    4.31832   4.32376   4.33380   4.34504   4.36342
 Alpha virt. eigenvalues --    4.36897   4.37797   4.40947   4.42048   4.42769
 Alpha virt. eigenvalues --    4.47154   4.51583   4.51921   4.52795   4.53713
 Alpha virt. eigenvalues --    4.56935   4.59200   4.60366   4.62574   4.63106
 Alpha virt. eigenvalues --    4.64673   4.68324
          Condensed to atoms (all electrons):
 Mulliken charges:
               1
     1  N   -0.752682
     2  H    0.409687
     3  H    0.417241
     4  H    0.420490
     5  C   -0.118652
     6  H    0.203265
     7  C    0.658346
     8  C    0.132501
     9  H    0.169059
    10  O   -0.534757
    11  C   -0.483195
    12  H    0.185989
    13  H    0.182961
    14  H    0.179267
    15  O   -0.648115
    16  H    0.429349
    17  N   -0.598053
    18  H    0.360025
    19  C   -0.066173
    20  H    0.203866
    21  C    0.627320
    22  C   -0.390768
    23  H    0.165872
    24  H    0.216549
    25  O   -0.549666
    26  C    0.162637
    27  C   -0.148526
    28  H    0.167294
    29  C   -0.192979
    30  H    0.144182
    31  C   -0.128641
    32  H    0.162302
    33  C   -0.203800
    34  H    0.157240
    35  C   -0.162732
    36  H    0.158721
    37  N   -0.626360
    38  H    0.386323
    39  C   -0.018681
    40  H    0.170980
    41  C    0.590934
    42  C   -0.447833
    43  H    0.163477
    44  H    0.178248
    45  H    0.170103
    46  O   -0.539888
    47  N   -0.603655
    48  H    0.353538
    49  C   -0.061495
    50  H    0.201895
    51  C    0.618262
    52  C   -0.273085
    53  H    0.181896
    54  H    0.162086
    55  O   -0.549183
    56  C   -0.368089
    57  H    0.171742
    58  H    0.192155
    59  C    0.630140
    60  O   -0.509940
    61  O   -0.543943
    62  N   -0.614415
    63  H    0.363078
    64  C   -0.040565
    65  H    0.175087
    66  C    0.626010
    67  C   -0.447158
    68  H    0.143267
    69  H    0.163969
    70  H    0.186011
    71  O   -0.544427
    72  N   -0.623774
    73  H    0.343198
    74  C   -0.045096
    75  H    0.187632
    76  C    0.615621
    77  C   -0.255912
    78  H    0.149648
    79  H    0.127772
    80  O   -0.634420
    81  C   -0.094994
    82  H    0.166802
    83  C   -0.436120
    84  H    0.124911
    85  H    0.146237
    86  H    0.166827
    87  C   -0.443795
    88  H    0.128392
    89  H    0.157483
    90  H    0.130293
    91  N   -0.581865
    92  H    0.383923
    93  C   -0.091901
    94  H    0.130329
    95  C    0.590172
    96  C   -0.267127
    97  H    0.195826
    98  H    0.137339
    99  O   -0.600793
   100  C   -0.272714
   101  H    0.145964
   102  H    0.140698
   103  C   -0.192047
   104  H    0.171799
   105  H    0.212326
   106  N   -0.585710
   107  H    0.350060
   108  N   -0.780214
   109  H    0.356862
   110  H    0.455542
   111  N   -0.764636
   112  H    0.367357
   113  H    0.367398
   114  C    0.785653
   115  O   -0.566089
   116  H    0.425235
 Sum of Mulliken charges =   1.00000
 Mulliken charges with hydrogens summed into heavy atoms:
               1
     1  N    0.494735
     5  C    0.084614
     7  C    0.658346
     8  C    0.301560
    10  O   -0.534757
    11  C    0.065023
    15  O   -0.218766
    17  N   -0.238028
    19  C    0.137694
    21  C    0.627320
    22  C   -0.008347
    25  O   -0.549666
    26  C    0.162637
    27  C    0.018769
    29  C   -0.048798
    31  C    0.033661
    33  C   -0.046561
    35  C   -0.004012
    37  N   -0.240037
    39  C    0.152299
    41  C    0.590934
    42  C    0.063996
    46  O   -0.539888
    47  N   -0.250117
    49  C    0.140399
    51  C    0.618262
    52  C    0.070897
    55  O   -0.549183
    56  C   -0.004192
    59  C    0.630140
    60  O   -0.509940
    61  O   -0.118708
    62  N   -0.251337
    64  C    0.134522
    66  C    0.626010
    67  C    0.046090
    71  O   -0.544427
    72  N   -0.280576
    74  C    0.142535
    76  C    0.615621
    77  C    0.021508
    80  O   -0.634420
    81  C    0.071808
    83  C    0.001855
    87  C   -0.027626
    91  N   -0.197942
    93  C    0.038428
    95  C    0.590172
    96  C    0.066037
    99  O   -0.600793
   100  C    0.013947
   103  C    0.192077
   106  N   -0.235650
   108  N    0.032190
   111  N   -0.029882
   114  C    0.785653
   115  O   -0.566089
 Electronic spatial extent (au):  <R**2>=         101702.0553
 Charge=              1.0000 electrons
 Dipole moment (field-independent basis, Debye):
    X=            -15.7295    Y=            -10.0427    Z=            -36.7127  Tot=             41.1836
 Quadrupole moment (field-independent basis, Debye-Ang):
   XX=            104.4729   YY=           -197.8339   ZZ=           -311.3850
   XY=            218.8251   XZ=            126.0474   YZ=            104.8067
 Traceless Quadrupole moment (field-independent basis, Debye-Ang):
   XX=            239.3883   YY=            -62.9186   ZZ=           -176.4697
   XY=            218.8251   XZ=            126.0474   YZ=            104.8067
 Octapole moment (field-independent basis, Debye-Ang**2):
  XXX=             54.0701  YYY=            380.8261  ZZZ=          -2608.8060  XYY=           -349.8597
  XXY=            -25.1639  XXZ=          -2165.3871  XZZ=          -2787.8248  YZZ=           -651.4320
  YYZ=           -366.2458  XYZ=           -819.6168
 Hexadecapole moment (field-independent basis, Debye-Ang**3):
 XXXX=         -23258.0357 YYYY=         -13340.5939 ZZZZ=         -45510.0777 XXXY=           5747.3916
 XXXZ=         -11284.4485 YYYX=          -7231.6523 YYYZ=          -4824.6017 ZZZX=         -22900.0808
 ZZZY=          -5058.5571 XXYY=          -4345.5473 XXZZ=         -13858.4798 YYZZ=          -6655.3679
 XXYZ=           5278.1347 YYXZ=          -2934.4770 ZZXY=            326.2814
 N-N= 7.868536098951D+03 E-N=-2.219234947791D+04  KE= 2.756939843274D+03
 Unable to Open any file for archive entry.
 1\1\GINC-LAC-315\SP\RB3LYP\6-31G(d)\C36H59N10O11(1+)\KENGMITH\16-Jul-2
 022\0\\# B3LYP/6-31G* empiricaldispersion=gd3bj guess=read geom=check 
 nosymm integral(ultrafinegrid)\\Candidate Structure: Conf:796 Charge c
 alc in gas phase\\1,1\N,0,-8.4227730618,-5.0259366589,-6.3863425739\H,
 0,-7.8561088905,-5.7953530724,-5.9873784683\H,0,-8.9346917457,-4.59607
 64888,-5.5903020286\H,0,-9.0528331483,-5.3478197416,-7.1334333353\C,0,
 -7.5516178505,-3.924227832,-6.9200040229\H,0,-6.7106448539,-4.38646046
 53,-7.4402879194\C,0,-7.1363110429,-3.1661648807,-5.6479769052\C,0,-8.
 3926119851,-3.0845580851,-7.890610195\H,0,-9.1522870561,-2.5460647711,
 -7.3040360809\O,0,-7.9600308772,-3.1255611823,-4.7295154414\C,0,-7.530
 3612078,-2.0976753781,-8.6662978233\H,0,-7.0285133518,-1.3979303543,-7
 .9899380037\H,0,-8.1507080537,-1.5081159778,-9.3486338871\H,0,-6.77759
 44008,-2.6280853975,-9.2584252792\O,0,-9.0160657002,-4.0603859547,-8.7
 297080017\H,0,-9.6215495775,-3.6170403613,-9.3445898979\N,0,-5.9019384
 475,-2.6648410682,-5.6136427862\H,0,-5.2818023561,-2.6671911124,-6.419
 3421829\C,0,-5.2509184703,-2.2856069586,-4.3690377863\H,0,-6.006621793
 1,-1.893902642,-3.6868802164\C,0,-4.1919973468,-1.2410673405,-4.740951
 533\C,0,-4.5369129354,-3.5216756787,-3.7320458622\H,0,-3.6054973218,-3
 .6893718298,-4.2846255172\H,0,-4.281423766,-3.2483207752,-2.7044694114
 \O,0,-3.6922337625,-1.2599548124,-5.8681418643\C,0,-5.3820349244,-4.77
 12951201,-3.7787700804\C,0,-6.3675759702,-5.0142744084,-2.8126212623\H
 ,0,-6.4861392501,-4.3145113364,-1.9901775092\C,0,-5.2445700484,-5.6799
 112146,-4.8358886446\H,0,-4.4670643962,-5.5186571638,-5.5788254926\C,0
 ,-7.2013050896,-6.1272063506,-2.9044843033\H,0,-7.9554009819,-6.300392
 0489,-2.142778452\C,0,-6.0716172373,-6.8063409478,-4.9321770458\H,0,-5
 .9134390345,-7.5280579907,-5.730270704\C,0,-7.0589392741,-7.0292951141
 ,-3.9646719561\H,0,-7.6864549296,-7.9148139928,-4.0169363208\N,0,-3.84
 42650423,-0.4100705483,-3.7482824395\H,0,-4.2943214502,-0.4875010383,-
 2.8396355307\C,0,-2.7211623393,0.5314082456,-3.8312309018\H,0,-1.96967
 35678,0.08783902,-4.4907524657\C,0,-2.2357464186,0.6066197699,-2.38080
 18159\C,0,-3.1569584349,1.8972580977,-4.362056398\H,0,-2.2972007257,2.
 5720916199,-4.4324229693\H,0,-3.894460649,2.3395869197,-3.6872030643\H
 ,0,-3.5937705164,1.7838931136,-5.3578772476\O,0,-3.0306151955,0.944134
 0192,-1.5023808884\N,0,-0.9893445937,0.1574774365,-2.1234506088\H,0,-0
 .2859091087,0.0513082142,-2.8472279852\C,0,-0.5126436295,0.0101103947,
 -0.7614731335\H,0,-1.1152420011,0.6664770072,-0.1302934743\C,0,0.96590
 00224,0.4161706591,-0.7472876263\C,0,-0.6378600796,-1.453991964,-0.254
 3178939\H,0,-0.5659481001,-1.4504083862,0.8372849115\H,0,0.2159429822,
 -2.0294643211,-0.6311546101\O,0,1.6308496583,0.3930100905,-1.785171510
 1\C,0,-1.9069648926,-2.1909405912,-0.7029694429\H,0,-1.9325940426,-2.2
 920672973,-1.7905849161\H,0,-1.8777473473,-3.2108888892,-0.2957364335\
 C,0,-3.2412281206,-1.6077685994,-0.2927526042\O,0,-4.2713006242,-1.739
 366408,-0.9348398474\O,0,-3.1968719447,-0.9772096378,0.8880645416\N,0,
 1.4556247968,0.7296574475,0.463865296\H,0,0.8976442432,0.6532127604,1.
 3122263775\C,0,2.8651450257,0.9595042647,0.7230195976\H,0,3.4496484886
 ,0.2032082758,0.1841707258\C,0,3.0392425972,0.7571634752,2.2409138086\
 C,0,3.3122660171,2.3555005003,0.2652131037\H,0,4.3818955908,2.50514742
 57,0.445436809\H,0,2.7579015308,3.128560387,0.8063544203\H,0,3.1214469
 053,2.461039872,-0.8054697623\O,0,2.0588560919,0.5800240715,2.96787001
 53\N,0,4.3041302751,0.8095279912,2.6918728618\H,0,5.0939562578,0.91745
 5737,2.0668884011\C,0,4.6526615716,0.6100516692,4.0936953032\H,0,3.878
 5476309,1.0812182001,4.7017833859\C,0,6.0009406068,1.2923826642,4.3127
 035667\C,0,4.7397224056,-0.897740367,4.4272359063\H,0,3.8130931454,-1.
 3538079939,4.0561597419\H,0,5.5660200658,-1.318011811,3.8381543309\O,0
 ,6.8208611998,1.2826162704,3.3515944827\C,0,4.9160873967,-1.250340265,
 5.9143051968\H,0,5.7909356294,-0.7287000571,6.3177315633\C,0,3.7101956
 349,-0.8170908527,6.7563355314\H,0,2.7899431036,-1.3017955007,6.403971
 6258\H,0,3.5544806173,0.2659467029,6.7341896809\H,0,3.8684715367,-1.08
 42461533,7.8050030557\C,0,5.1570064705,-2.758561482,6.0532628468\H,0,4
 .297677715,-3.3319653932,5.6801934536\H,0,5.3108326316,-3.0299816886,7
 .1028786674\H,0,6.042579232,-3.0772808723,5.4899255045\N,0,6.201942408
 1,1.8279900966,5.5033894262\H,0,5.5712133635,1.5605773829,6.2961199047
 \C,0,7.4776120551,2.1232376176,6.1564798955\H,0,8.2790265269,1.5510124
 745,5.6756959472\C,0,7.2986692868,1.5633154537,7.646981027\C,0,7.85468
 87316,3.6115055606,6.2288610282\H,0,8.4064864334,3.7262836323,7.166525
 4442\H,0,6.9428727837,4.2175391146,6.3076354598\O,0,6.1386237197,1.119
 5306488,7.88590904\C,0,8.7542243818,4.1150313463,5.0951772212\H,0,9.60
 00685214,3.4216165313,5.0054705982\H,0,9.1797332459,5.0938456889,5.351
 2182945\C,0,8.0517625811,4.2148372576,3.7360306255\H,0,7.479181819,5.1
 407560786,3.6444415247\H,0,7.3555629811,3.3910938694,3.5798772308\N,0,
 9.0161349833,4.206541477,2.6152018738\H,0,9.3258165042,5.0926860563,2.
 2415267531\N,0,9.3258976586,1.9088955057,2.628782981\H,0,9.9329463585,
 1.1206920709,2.4571232785\H,0,8.3810914639,1.7056522695,3.0368683039\N
 ,0,10.8113194928,3.2838938249,1.4770893213\H,0,11.3407105608,4.1421682
 562,1.5309911044\H,0,11.322535905,2.4712755425,1.1651615672\C,0,9.7128
 930387,3.1230689555,2.2602843627\O,0,8.3063152907,1.6605702033,8.35483
 37136\H,0,-4.0804381181,-0.5928519731,1.0439097241\\Version=ES64L-G16R
 evC.01\HF=-2782.5150741\RMSD=6.209e-09\Dipole=-6.5557175,-2.7650505,-1
 3.9684573\Quadrupole=177.9793118,-46.7784285,-131.2008833,162.6911315,
 93.7131613,77.9211795\PG=C01 [X(C36H59N10O11)]\\@
 The archive entry for this job was punched.


 THAT'S WHAT MAKES US A GREAT COUNTRY.
 THE LITTLE THINGS ARE SERIOUS AND THE BIG ONES ARE NOT.
           WILL ROGERS
 Job cpu time:       0 days  0 hours  5 minutes 13.9 seconds.
 Elapsed time:       0 days  0 hours  1 minutes 19.6 seconds.
 File lengths (MBytes):  RWF=    608 Int=      0 D2E=      0 Chk=     96 Scr=     16
 Normal termination of Gaussian 16 at Sat Jul 16 15:21:19 2022.
