 Entering Gaussian System, Link 0=/opt/software/Gaussian/g16-AVX2-C.01/g16/g16
 Input=charge-conf-497.com
 Output=charge-conf-497.log
 Initial command:
 /opt/software/Gaussian/g16-AVX2-C.01/g16/l1.exe "/mnt/gs18/scratch/users/kengmith/Gau-21611.inp" -scrdir="/mnt/gs18/scratch/users/kengmith/"
 Entering Link 1 = /opt/software/Gaussian/g16-AVX2-C.01/g16/l1.exe PID=     21621.
  
 Copyright (c) 1988-2019, Gaussian, Inc.  All Rights Reserved.
  
 This is part of the Gaussian(R) 16 program.  It is based on
 the Gaussian(R) 09 system (copyright 2009, Gaussian, Inc.),
 the Gaussian(R) 03 system (copyright 2003, Gaussian, Inc.),
 the Gaussian(R) 98 system (copyright 1998, Gaussian, Inc.),
 the Gaussian(R) 94 system (copyright 1995, Gaussian, Inc.),
 the Gaussian 92(TM) system (copyright 1992, Gaussian, Inc.),
 the Gaussian 90(TM) system (copyright 1990, Gaussian, Inc.),
 the Gaussian 88(TM) system (copyright 1988, Gaussian, Inc.),
 the Gaussian 86(TM) system (copyright 1986, Carnegie Mellon
 University), and the Gaussian 82(TM) system (copyright 1983,
 Carnegie Mellon University). Gaussian is a federally registered
 trademark of Gaussian, Inc.
  
 This software contains proprietary and confidential information,
 including trade secrets, belonging to Gaussian, Inc.
  
 This software is provided under written license and may be
 used, copied, transmitted, or stored only in accord with that
 written license.
  
 The following legend is applicable only to US Government
 contracts under FAR:
  
                    RESTRICTED RIGHTS LEGEND
  
 Use, reproduction and disclosure by the US Government is
 subject to restrictions as set forth in subparagraphs (a)
 and (c) of the Commercial Computer Software - Restricted
 Rights clause in FAR 52.227-19.
  
 Gaussian, Inc.
 340 Quinnipiac St., Bldg. 40, Wallingford CT 06492
  
  
 ---------------------------------------------------------------
 Warning -- This program may not be used in any manner that
 competes with the business of Gaussian, Inc. or will provide
 assistance to any competitor of Gaussian, Inc.  The licensee
 of this program is prohibited from giving any competitor of
 Gaussian, Inc. access to this program.  By using this program,
 the user acknowledges that Gaussian, Inc. is engaged in the
 business of creating and licensing software in the field of
 computational chemistry and represents and warrants to the
 licensee that it is not a competitor of Gaussian, Inc. and that
 it will not use this program in any manner prohibited above.
 ---------------------------------------------------------------
  

 Cite this work as:
 Gaussian 16, Revision C.01,
 M. J. Frisch, G. W. Trucks, H. B. Schlegel, G. E. Scuseria, 
 M. A. Robb, J. R. Cheeseman, G. Scalmani, V. Barone, 
 G. A. Petersson, H. Nakatsuji, X. Li, M. Caricato, A. V. Marenich, 
 J. Bloino, B. G. Janesko, R. Gomperts, B. Mennucci, H. P. Hratchian, 
 J. V. Ortiz, A. F. Izmaylov, J. L. Sonnenberg, D. Williams-Young, 
 F. Ding, F. Lipparini, F. Egidi, J. Goings, B. Peng, A. Petrone, 
 T. Henderson, D. Ranasinghe, V. G. Zakrzewski, J. Gao, N. Rega, 
 G. Zheng, W. Liang, M. Hada, M. Ehara, K. Toyota, R. Fukuda, 
 J. Hasegawa, M. Ishida, T. Nakajima, Y. Honda, O. Kitao, H. Nakai, 
 T. Vreven, K. Throssell, J. A. Montgomery, Jr., J. E. Peralta, 
 F. Ogliaro, M. J. Bearpark, J. J. Heyd, E. N. Brothers, K. N. Kudin, 
 V. N. Staroverov, T. A. Keith, R. Kobayashi, J. Normand, 
 K. Raghavachari, A. P. Rendell, J. C. Burant, S. S. Iyengar, 
 J. Tomasi, M. Cossi, J. M. Millam, M. Klene, C. Adamo, R. Cammi, 
 J. W. Ochterski, R. L. Martin, K. Morokuma, O. Farkas, 
 J. B. Foresman, and D. J. Fox, Gaussian, Inc., Wallingford CT, 2019.
 
 ******************************************
 Gaussian 16:  ES64L-G16RevC.01  3-Jul-2019
                18-Jul-2022 
 ******************************************
 %mem=8gb
 %nproc=4
 Will use up to    4 processors via shared memory.
 %chk=conf-497.chk
 -------------------------------------------------------------------
 # B3LYP/6-31G* guess=read geom=check nosymm integral(ultrafinegrid)
 -------------------------------------------------------------------
 1/29=2,38=1,172=1/1;
 2/12=2,15=1,40=1/2;
 3/5=1,6=6,7=1,11=2,14=-4,25=1,30=1,74=-5,75=-5,116=-2/1,2,3;
 4/5=1/1;
 5/5=2,38=6/2;
 6/7=2,8=2,9=2,10=2,28=1/1;
 99/5=1,9=1/99;
 ------------------------------------------------------
 Candidate Structure: Conf:497 Charge calc in gas phase
 ------------------------------------------------------
 Structure from the checkpoint file:  "conf-497.chk"
 Charge =  1 Multiplicity = 1
 Redundant internal coordinates found in file.  (old form).
 N,0,-11.4334188954,7.3080040063,4.5945401811
 H,0,-11.8315906419,6.3258153585,4.6581732953
 H,0,-12.1154127594,7.9729050915,4.2236606431
 H,0,-11.1379251703,7.6058336096,5.5389223731
 C,0,-10.2199568929,7.1064281526,3.7156313598
 H,0,-10.5065750758,7.4051481654,2.7024248416
 C,0,-10.0575559875,5.5557861789,3.7274252156
 C,0,-9.0259440392,7.9600775803,4.2027502767
 H,0,-9.2529178034,9.0107187468,3.985515862
 H,0,-8.1584558699,7.7097911289,3.5829938997
 O,0,-11.0008885867,4.8889821643,4.1801939366
 C,0,-8.7141951213,7.7840402178,5.6754577325
 C,0,-9.3152434255,8.6295555516,6.6245092966
 H,0,-9.9216106749,9.4729200917,6.2935501556
 C,0,-7.8559256456,6.766955416,6.120374742
 H,0,-7.3536054909,6.1258859945,5.4001366268
 C,0,-9.0823171217,8.4489760243,7.9913422527
 H,0,-9.5438402042,9.1182328128,8.7113746383
 C,0,-7.619569948,6.5945879437,7.4841166847
 H,0,-6.9432165926,5.812393068,7.8159757015
 C,0,-8.2375894441,7.4264872016,8.4217100294
 H,0,-8.0471511702,7.2878491927,9.4816377005
 N,0,-8.9447890744,5.0632926742,3.2009509985
 H,0,-8.1290023566,5.6456454205,2.9984460102
 C,0,-8.5923412088,3.6422552977,3.2014496659
 H,0,-8.9569031732,3.1983124489,4.1348145018
 C,0,-7.0420652603,3.6408315849,3.2023842101
 C,0,-9.2046924281,2.8971244346,2.0063610243
 H,0,-8.943486376,1.8349071529,2.0328461544
 H,0,-8.8465155804,3.3156051121,1.0606022592
 H,0,-10.2949422788,2.9758052193,2.0403358542
 O,0,-6.4290735365,4.7180705537,3.1573220262
 N,0,-6.4595526557,2.4408415413,3.2546856783
 H,0,-6.9883655427,1.5687325862,3.2209262764
 C,0,-5.0200451072,2.2203095243,3.1617045807
 H,0,-4.6164055535,2.8697984304,2.37659264
 C,0,-4.8737011999,0.7387288674,2.7441860775
 C,0,-4.298713427,2.5188019061,4.486700387
 H,0,-3.2213661555,2.3502559159,4.3908660153
 H,0,-4.6793364933,1.8733025743,5.2849769768
 H,0,-4.4588568094,3.5641681728,4.7639685485
 O,0,-5.848699944,-0.0185057331,2.7961478954
 N,0,-3.6475780231,0.371623841,2.3404050497
 H,0,-2.8421464791,0.9857958026,2.4516569805
 C,0,-3.2701447538,-1.0098942789,2.0648941917
 H,0,-3.6907152541,-1.6417751708,2.8588583498
 C,0,-1.7288357698,-1.0354442726,2.1963994406
 C,0,-3.8302387099,-1.5383297342,0.7142765497
 H,0,-3.779134057,-2.6341789418,0.7394554919
 H,0,-4.8991623553,-1.2958186247,0.7190098833
 O,0,-1.1215453263,-0.0259319586,2.5625055482
 C,0,-3.1488502021,-1.0430191409,-0.5442516433
 C,0,-3.1802768859,0.3040357266,-0.9419238034
 H,0,-3.7265476976,1.0282762921,-0.3433166504
 C,0,-2.4610766451,-1.943827166,-1.3663877596
 H,0,-2.4182329679,-2.9963853116,-1.0986837672
 C,0,-2.5170821255,0.741360726,-2.0848690202
 H,0,-2.530082217,1.7872129855,-2.3765049058
 C,0,-1.8104886497,-1.525816143,-2.5247972906
 H,0,-1.2998355107,-2.2457457401,-3.1561517969
 O,0,-1.156218087,0.3011509074,-3.9724330472
 H,0,-0.5821695186,-0.4008295462,-4.3345679395
 C,0,-1.8086806568,-0.1709823624,-2.8798708033
 N,0,-1.1277724433,-2.2166750785,1.9424194586
 H,0,-1.6277667345,-2.9604399385,1.4673447625
 C,0,0.3252619183,-2.3714427818,1.9331722383
 H,0,0.7507616601,-1.365918504,1.9588867731
 C,0,0.6796797142,-3.0866120794,0.617337319
 C,0,0.7871732274,-3.1841122753,3.1674617652
 H,0,0.3304342843,-2.714019581,4.0486178366
 H,0,0.3529458725,-4.1893371146,3.0841854348
 O,0,-0.090014887,-3.9189781445,0.1317488534
 C,0,2.3092021084,-3.2966120395,3.3899744534
 H,0,2.7671948265,-3.7058188209,2.4788123903
 C,0,2.9612026483,-1.9351914139,3.6803206766
 H,0,2.5243057946,-1.476469897,4.5767218725
 H,0,4.037078754,-2.0502041935,3.8530993535
 H,0,2.8420265136,-1.2230317707,2.8556762352
 C,0,2.5923955252,-4.2820273634,4.5345417049
 H,0,2.1539854045,-3.9274880829,5.4764550798
 H,0,2.173498405,-5.2727957062,4.3231427453
 H,0,3.6703699969,-4.3996875648,4.6941242945
 N,0,1.866004913,-2.7514070986,0.0669309447
 H,0,2.5041324582,-2.1032072704,0.518674102
 C,0,2.400704994,-3.3674320243,-1.1373006953
 H,0,2.0690330997,-4.4112316463,-1.1664071304
 C,0,3.9338392014,-3.2814187797,-1.012954619
 C,0,1.8803954478,-2.6278063021,-2.3980642081
 H,0,0.8060783738,-2.4874208807,-2.2584302309
 H,0,2.3271593692,-1.6270365372,-2.4314467432
 O,0,4.4538418228,-2.4245220919,-0.2883181622
 C,0,2.1237577201,-3.3638811917,-3.7199914448
 H,0,1.6978402724,-4.3777044332,-3.6846397923
 H,0,3.1848864283,-3.5053303537,-3.9528046728
 C,0,1.4810671763,-2.6708609144,-4.9009797928
 O,0,0.6731424149,-1.7598105938,-4.8533798445
 O,0,1.8931059225,-3.1924227553,-6.0695183224
 N,0,4.6327294189,-4.1591738115,-1.7525523437
 H,0,4.1910944932,-4.7806849447,-2.4310275452
 C,0,6.0624726272,-4.0461846299,-1.9930938457
 H,0,6.3002145976,-2.979420963,-2.0922315341
 C,0,6.3386826802,-4.7362242056,-3.3751497364
 C,0,6.9205287847,-4.6645505283,-0.8474357296
 H,0,7.5212229838,-5.4876431865,-1.2502438372
 H,0,6.237822315,-5.1130856515,-0.1193242056
 O,0,7.5515987166,-4.657690339,-3.7827239733
 C,0,7.8414344017,-3.6928085149,-0.0832170673
 H,0,8.3939113582,-4.2739167169,0.6668986329
 H,0,7.2303075882,-2.9622878081,0.4591289313
 C,0,8.850867581,-2.9079701976,-0.9584440477
 H,0,9.7073034925,-2.5765413594,-0.3600180507
 H,0,8.3885901526,-1.9973019791,-1.3496574969
 N,0,9.2904389226,-3.6635407953,-2.1325746066
 H,0,8.5170254002,-3.8746152294,-2.8454858996
 N,0,11.3799448591,-4.5059148265,-1.4436532639
 H,0,11.9046540908,-5.3538902262,-1.2862708732
 H,0,11.4661914366,-3.7867111165,-0.7418066441
 N,0,10.1527687972,-5.535509743,-3.1320444022
 H,0,10.9818302778,-5.9408086847,-3.5424676406
 H,0,9.276243466,-5.556279718,-3.6667179158
 C,0,10.2649735666,-4.5518520229,-2.2154540288
 O,0,5.3870220019,-5.2840315536,-3.9439176867
 H,0,1.4229663321,-2.7119079562,-6.7774670883
 Recover connectivity data from disk.
                           ----------------------------
                           !    Current Parameters    !
                           ! (Angstroms and Degrees)  !
 --------------------------                            --------------------------
 ! Name  Definition              Value                                          !
 --------------------------------------------------------------------------------
 ! R1    R(1,2)                  1.0617                                         !
 ! R2    R(1,3)                  1.0221                                         !
 ! R3    R(1,4)                  1.0334                                         !
 ! R4    R(1,5)                  1.5118                                         !
 ! R5    R(5,6)                  1.0945                                         !
 ! R6    R(5,7)                  1.5592                                         !
 ! R7    R(5,8)                  1.5465                                         !
 ! R8    R(7,11)                 1.2408                                         !
 ! R9    R(7,23)                 1.3259                                         !
 ! R10   R(8,9)                  1.0966                                         !
 ! R11   R(8,10)                 1.0951                                         !
 ! R12   R(8,12)                 1.5156                                         !
 ! R13   R(12,13)                1.406                                          !
 ! R14   R(12,15)                1.4032                                         !
 ! R15   R(13,14)                1.0902                                         !
 ! R16   R(13,17)                1.3982                                         !
 ! R17   R(15,16)                1.0872                                         !
 ! R18   R(15,19)                1.3948                                         !
 ! R19   R(17,18)                1.086                                          !
 ! R20   R(17,21)                1.3944                                         !
 ! R21   R(19,20)                1.086                                          !
 ! R22   R(19,21)                1.3975                                         !
 ! R23   R(21,22)                1.0858                                         !
 ! R24   R(23,24)                1.0226                                         !
 ! R25   R(23,25)                1.4641                                         !
 ! R26   R(25,26)                1.096                                          !
 ! R27   R(25,27)                1.5503                                         !
 ! R28   R(25,28)                1.5357                                         !
 ! R29   R(27,32)                1.2403                                         !
 ! R30   R(27,33)                1.3349                                         !
 ! R31   R(28,29)                1.0942                                         !
 ! R32   R(28,30)                1.0945                                         !
 ! R33   R(28,31)                1.0936                                         !
 ! R34   R(33,34)                1.0205                                         !
 ! R35   R(33,35)                1.4593                                         !
 ! R36   R(35,36)                1.096                                          !
 ! R37   R(35,37)                1.5462                                         !
 ! R38   R(35,38)                1.5379                                         !
 ! R39   R(37,42)                1.2356                                         !
 ! R40   R(37,43)                1.3421                                         !
 ! R41   R(38,39)                1.0947                                         !
 ! R42   R(38,40)                1.0949                                         !
 ! R43   R(38,41)                1.0933                                         !
 ! R44   R(43,44)                1.019                                          !
 ! R45   R(43,45)                1.4584                                         !
 ! R46   R(45,46)                1.0984                                         !
 ! R47   R(45,47)                1.5471                                         !
 ! R48   R(45,48)                1.5547                                         !
 ! R49   R(47,51)                1.2337                                         !
 ! R50   R(47,64)                1.3495                                         !
 ! R51   R(48,49)                1.0973                                         !
 ! R52   R(48,50)                1.0961                                         !
 ! R53   R(48,52)                1.5144                                         !
 ! R54   R(52,53)                1.4049                                         !
 ! R55   R(52,55)                1.4001                                         !
 ! R56   R(53,54)                1.0869                                         !
 ! R57   R(53,57)                1.3919                                         !
 ! R58   R(55,56)                1.0869                                         !
 ! R59   R(55,59)                1.3928                                         !
 ! R60   R(57,58)                1.0858                                         !
 ! R61   R(57,63)                1.4022                                         !
 ! R62   R(59,60)                1.0852                                         !
 ! R63   R(59,63)                1.4006                                         !
 ! R64   R(61,62)                0.9764                                         !
 ! R65   R(61,63)                1.3573                                         !
 ! R66   R(64,65)                1.0143                                         !
 ! R67   R(64,66)                1.4613                                         !
 ! R68   R(66,67)                1.0921                                         !
 ! R69   R(66,68)                1.539                                          !
 ! R70   R(66,69)                1.5483                                         !
 ! R71   R(68,72)                1.2333                                         !
 ! R72   R(68,83)                1.3501                                         !
 ! R73   R(69,70)                1.0982                                         !
 ! R74   R(69,71)                1.0982                                         !
 ! R75   R(69,73)                1.5423                                         !
 ! R76   R(73,74)                1.0988                                         !
 ! R77   R(73,75)                1.5372                                         !
 ! R78   R(73,79)                1.5366                                         !
 ! R79   R(75,76)                1.0977                                         !
 ! R80   R(75,77)                1.0957                                         !
 ! R81   R(75,78)                1.0961                                         !
 ! R82   R(79,80)                1.0978                                         !
 ! R83   R(79,81)                1.0963                                         !
 ! R84   R(79,82)                1.0961                                         !
 ! R85   R(83,84)                1.0156                                         !
 ! R86   R(83,85)                1.4545                                         !
 ! R87   R(85,86)                1.0956                                         !
 ! R88   R(85,87)                1.5406                                         !
 ! R89   R(85,88)                1.5515                                         !
 ! R90   R(87,91)                1.2368                                         !
 ! R91   R(87,98)                1.3438                                         !
 ! R92   R(88,89)                1.0924                                         !
 ! R93   R(88,90)                1.0965                                         !
 ! R94   R(88,92)                1.5325                                         !
 ! R95   R(92,93)                1.1002                                         !
 ! R96   R(92,94)                1.0955                                         !
 ! R97   R(92,95)                1.5126                                         !
 ! R98   R(95,96)                1.2186                                         !
 ! R99   R(95,97)                1.3444                                         !
 ! R100  R(97,123)               0.9763                                         !
 ! R101  R(98,99)                1.0206                                         !
 ! R102  R(98,100)               1.4542                                         !
 ! R103  R(100,101)              1.0974                                         !
 ! R104  R(100,102)              1.5692                                         !
 ! R105  R(100,103)              1.5592                                         !
 ! R106  R(102,106)              1.282                                          !
 ! R107  R(102,122)              1.2366                                         !
 ! R108  R(103,104)              1.0957                                         !
 ! R109  R(103,105)              1.0943                                         !
 ! R110  R(103,107)              1.5416                                         !
 ! R111  R(107,108)              1.098                                          !
 ! R112  R(107,109)              1.096                                          !
 ! R113  R(107,110)              1.5495                                         !
 ! R114  R(110,111)              1.0961                                         !
 ! R115  R(110,112)              1.0936                                         !
 ! R116  R(110,113)              1.4638                                         !
 ! R117  R(113,114)              1.0728                                         !
 ! R118  R(113,121)              1.3212                                         !
 ! R119  R(115,116)              1.0095                                         !
 ! R120  R(115,117)              1.0086                                         !
 ! R121  R(115,121)              1.3568                                         !
 ! R122  R(118,119)              1.01                                           !
 ! R123  R(118,120)              1.0269                                         !
 ! R124  R(118,121)              1.3492                                         !
 ! A1    A(2,1,3)              111.9186                                         !
 ! A2    A(2,1,4)              108.6073                                         !
 ! A3    A(2,1,5)              102.2694                                         !
 ! A4    A(3,1,4)              109.567                                          !
 ! A5    A(3,1,5)              114.2888                                         !
 ! A6    A(4,1,5)              109.8891                                         !
 ! A7    A(1,5,6)              106.9533                                         !
 ! A8    A(1,5,7)              102.2284                                         !
 ! A9    A(1,5,8)              111.2839                                         !
 ! A10   A(6,5,7)              107.8008                                         !
 ! A11   A(6,5,8)              110.0665                                         !
 ! A12   A(7,5,8)              117.7859                                         !
 ! A13   A(5,7,11)             117.261                                          !
 ! A14   A(5,7,23)             116.9895                                         !
 ! A15   A(11,7,23)            125.6867                                         !
 ! A16   A(5,8,9)              107.8574                                         !
 ! A17   A(5,8,10)             107.8894                                         !
 ! A18   A(5,8,12)             113.6259                                         !
 ! A19   A(9,8,10)             105.7128                                         !
 ! A20   A(9,8,12)             110.2639                                         !
 ! A21   A(10,8,12)            111.1264                                         !
 ! A22   A(8,12,13)            119.8754                                         !
 ! A23   A(8,12,15)            121.2044                                         !
 ! A24   A(13,12,15)           118.9028                                         !
 ! A25   A(12,13,14)           119.8723                                         !
 ! A26   A(12,13,17)           120.7276                                         !
 ! A27   A(14,13,17)           119.2964                                         !
 ! A28   A(12,15,16)           119.9956                                         !
 ! A29   A(12,15,19)           120.2145                                         !
 ! A30   A(16,15,19)           119.7729                                         !
 ! A31   A(13,17,18)           119.8508                                         !
 ! A32   A(13,17,21)           119.8238                                         !
 ! A33   A(18,17,21)           120.3134                                         !
 ! A34   A(15,19,20)           119.5595                                         !
 ! A35   A(15,19,21)           120.4954                                         !
 ! A36   A(20,19,21)           119.9431                                         !
 ! A37   A(17,21,19)           119.8243                                         !
 ! A38   A(17,21,22)           120.0782                                         !
 ! A39   A(19,21,22)           120.0892                                         !
 ! A40   A(7,23,24)            122.4555                                         !
 ! A41   A(7,23,25)            124.2233                                         !
 ! A42   A(24,23,25)           111.1475                                         !
 ! A43   A(23,25,26)           108.2624                                         !
 ! A44   A(23,25,27)           103.9821                                         !
 ! A45   A(23,25,28)           112.0045                                         !
 ! A46   A(26,25,27)           109.3751                                         !
 ! A47   A(26,25,28)           109.485                                          !
 ! A48   A(27,25,28)           113.5008                                         !
 ! A49   A(25,27,32)           119.566                                          !
 ! A50   A(25,27,33)           115.9261                                         !
 ! A51   A(32,27,33)           124.5078                                         !
 ! A52   A(25,28,29)           110.9161                                         !
 ! A53   A(25,28,30)           110.882                                          !
 ! A54   A(25,28,31)           109.7812                                         !
 ! A55   A(29,28,30)           108.2992                                         !
 ! A56   A(29,28,31)           107.8834                                         !
 ! A57   A(30,28,31)           109.0013                                         !
 ! A58   A(27,33,34)           122.7386                                         !
 ! A59   A(27,33,35)           124.3194                                         !
 ! A60   A(34,33,35)           112.3292                                         !
 ! A61   A(33,35,36)           108.6261                                         !
 ! A62   A(33,35,37)           104.7959                                         !
 ! A63   A(33,35,38)           112.2387                                         !
 ! A64   A(36,35,37)           109.8491                                         !
 ! A65   A(36,35,38)           109.2343                                         !
 ! A66   A(37,35,38)           111.977                                          !
 ! A67   A(35,37,42)           120.0782                                         !
 ! A68   A(35,37,43)           115.4552                                         !
 ! A69   A(42,37,43)           124.4665                                         !
 ! A70   A(35,38,39)           110.8742                                         !
 ! A71   A(35,38,40)           110.5292                                         !
 ! A72   A(35,38,41)           109.5958                                         !
 ! A73   A(39,38,40)           108.3725                                         !
 ! A74   A(39,38,41)           108.2753                                         !
 ! A75   A(40,38,41)           109.1403                                         !
 ! A76   A(37,43,44)           121.6294                                         !
 ! A77   A(37,43,45)           123.5309                                         !
 ! A78   A(44,43,45)           112.7693                                         !
 ! A79   A(43,45,46)           108.0166                                         !
 ! A80   A(43,45,47)           104.9166                                         !
 ! A81   A(43,45,48)           113.1321                                         !
 ! A82   A(46,45,47)           108.0898                                         !
 ! A83   A(46,45,48)           107.1258                                         !
 ! A84   A(47,45,48)           115.2857                                         !
 ! A85   A(45,47,51)           120.1406                                         !
 ! A86   A(45,47,64)           116.2437                                         !
 ! A87   A(51,47,64)           123.5643                                         !
 ! A88   A(45,48,49)           107.6213                                         !
 ! A89   A(45,48,50)           105.8055                                         !
 ! A90   A(45,48,52)           116.6587                                         !
 ! A91   A(49,48,50)           105.4424                                         !
 ! A92   A(49,48,52)           108.9494                                         !
 ! A93   A(50,48,52)           111.7157                                         !
 ! A94   A(48,52,53)           122.5997                                         !
 ! A95   A(48,52,55)           119.9043                                         !
 ! A96   A(53,52,55)           117.4947                                         !
 ! A97   A(52,53,54)           119.6218                                         !
 ! A98   A(52,53,57)           121.5361                                         !
 ! A99   A(54,53,57)           118.8402                                         !
 ! A100  A(52,55,56)           119.8529                                         !
 ! A101  A(52,55,59)           121.6497                                         !
 ! A102  A(56,55,59)           118.4943                                         !
 ! A103  A(53,57,58)           121.1622                                         !
 ! A104  A(53,57,63)           120.1214                                         !
 ! A105  A(58,57,63)           118.7153                                         !
 ! A106  A(55,59,60)           120.303                                          !
 ! A107  A(55,59,63)           120.1173                                         !
 ! A108  A(60,59,63)           119.5795                                         !
 ! A109  A(62,61,63)           109.3332                                         !
 ! A110  A(57,63,59)           119.0124                                         !
 ! A111  A(57,63,61)           118.2225                                         !
 ! A112  A(59,63,61)           122.7631                                         !
 ! A113  A(47,64,65)           120.6925                                         !
 ! A114  A(47,64,66)           122.4653                                         !
 ! A115  A(65,64,66)           114.1748                                         !
 ! A116  A(64,66,67)           106.8423                                         !
 ! A117  A(64,66,68)           106.4764                                         !
 ! A118  A(64,66,69)           110.3158                                         !
 ! A119  A(67,66,68)           110.9928                                         !
 ! A120  A(67,66,69)           110.38                                           !
 ! A121  A(68,66,69)           111.6526                                         !
 ! A122  A(66,68,72)           120.4336                                         !
 ! A123  A(66,68,83)           115.8206                                         !
 ! A124  A(72,68,83)           123.7416                                         !
 ! A125  A(66,69,70)           106.9107                                         !
 ! A126  A(66,69,71)           107.58                                           !
 ! A127  A(66,69,73)           116.5965                                         !
 ! A128  A(70,69,71)           106.7517                                         !
 ! A129  A(70,69,73)           109.0197                                         !
 ! A130  A(71,69,73)           109.535                                          !
 ! A131  A(69,73,74)           108.5934                                         !
 ! A132  A(69,73,75)           112.4097                                         !
 ! A133  A(69,73,79)           109.6398                                         !
 ! A134  A(74,73,75)           108.0389                                         !
 ! A135  A(74,73,79)           107.5784                                         !
 ! A136  A(75,73,79)           110.4323                                         !
 ! A137  A(73,75,76)           110.8277                                         !
 ! A138  A(73,75,77)           110.6892                                         !
 ! A139  A(73,75,78)           112.7816                                         !
 ! A140  A(76,75,77)           107.8132                                         !
 ! A141  A(76,75,78)           107.4339                                         !
 ! A142  A(77,75,78)           107.0733                                         !
 ! A143  A(73,79,80)           111.0013                                         !
 ! A144  A(73,79,81)           111.4391                                         !
 ! A145  A(73,79,82)           111.0106                                         !
 ! A146  A(80,79,81)           107.7425                                         !
 ! A147  A(80,79,82)           107.609                                          !
 ! A148  A(81,79,82)           107.8706                                         !
 ! A149  A(68,83,84)           121.9546                                         !
 ! A150  A(68,83,85)           123.7393                                         !
 ! A151  A(84,83,85)           114.0543                                         !
 ! A152  A(83,85,86)           108.313                                          !
 ! A153  A(83,85,87)           105.9841                                         !
 ! A154  A(83,85,88)           110.34                                           !
 ! A155  A(86,85,87)           110.8916                                         !
 ! A156  A(86,85,88)           109.3326                                         !
 ! A157  A(87,85,88)           111.8824                                         !
 ! A158  A(85,87,91)           120.2894                                         !
 ! A159  A(85,87,98)           115.8915                                         !
 ! A160  A(91,87,98)           123.8014                                         !
 ! A161  A(85,88,89)           106.6898                                         !
 ! A162  A(85,88,90)           108.8562                                         !
 ! A163  A(85,88,92)           114.7536                                         !
 ! A164  A(89,88,90)           106.6967                                         !
 ! A165  A(89,88,92)           109.1569                                         !
 ! A166  A(90,88,92)           110.3298                                         !
 ! A167  A(88,92,93)           110.6956                                         !
 ! A168  A(88,92,94)           113.5245                                         !
 ! A169  A(88,92,95)           112.7025                                         !
 ! A170  A(93,92,94)           105.2371                                         !
 ! A171  A(93,92,95)           106.4263                                         !
 ! A172  A(94,92,95)           107.7445                                         !
 ! A173  A(92,95,96)           126.4211                                         !
 ! A174  A(92,95,97)           111.757                                          !
 ! A175  A(96,95,97)           121.8166                                         !
 ! A176  A(95,97,123)          106.9637                                         !
 ! A177  A(87,98,99)           122.5868                                         !
 ! A178  A(87,98,100)          123.4766                                         !
 ! A179  A(99,98,100)          111.2713                                         !
 ! A180  A(98,100,101)         107.6654                                         !
 ! A181  A(98,100,102)         106.5327                                         !
 ! A182  A(98,100,103)         112.8733                                         !
 ! A183  A(101,100,102)        108.0442                                         !
 ! A184  A(101,100,103)        109.4307                                         !
 ! A185  A(102,100,103)        112.0777                                         !
 ! A186  A(100,102,106)        114.8093                                         !
 ! A187  A(100,102,122)        117.672                                          !
 ! A188  A(106,102,122)        127.5186                                         !
 ! A189  A(100,103,104)        109.238                                          !
 ! A190  A(100,103,105)        107.9463                                         !
 ! A191  A(100,103,107)        116.2962                                         !
 ! A192  A(104,103,105)        106.1847                                         !
 ! A193  A(104,103,107)        109.1641                                         !
 ! A194  A(105,103,107)        107.5314                                         !
 ! A195  A(103,107,108)        107.7972                                         !
 ! A196  A(103,107,109)        109.4124                                         !
 ! A197  A(103,107,110)        115.3687                                         !
 ! A198  A(108,107,109)        107.173                                          !
 ! A199  A(108,107,110)        109.0358                                         !
 ! A200  A(109,107,110)        107.7669                                         !
 ! A201  A(107,110,111)        110.7191                                         !
 ! A202  A(107,110,112)        110.3927                                         !
 ! A203  A(107,110,113)        112.7837                                         !
 ! A204  A(111,110,112)        105.8897                                         !
 ! A205  A(111,110,113)        111.061                                          !
 ! A206  A(112,110,113)        105.6533                                         !
 ! A207  A(110,113,114)        114.7138                                         !
 ! A208  A(110,113,121)        128.2321                                         !
 ! A209  A(114,113,121)        110.9635                                         !
 ! A210  A(116,115,117)        116.4892                                         !
 ! A211  A(116,115,121)        119.1668                                         !
 ! A212  A(117,115,121)        119.3563                                         !
 ! A213  A(119,118,120)        118.7473                                         !
 ! A214  A(119,118,121)        120.025                                          !
 ! A215  A(120,118,121)        116.0681                                         !
 ! A216  A(113,121,115)        123.2076                                         !
 ! A217  A(113,121,118)        118.1286                                         !
 ! A218  A(115,121,118)        118.6508                                         !
 ! D1    D(2,1,5,6)             99.0973                                         !
 ! D2    D(2,1,5,7)            -14.0493                                         !
 ! D3    D(2,1,5,8)           -140.6571                                         !
 ! D4    D(3,1,5,6)            -22.0511                                         !
 ! D5    D(3,1,5,7)           -135.1977                                         !
 ! D6    D(3,1,5,8)             98.1946                                         !
 ! D7    D(4,1,5,6)           -145.6932                                         !
 ! D8    D(4,1,5,7)            101.1602                                         !
 ! D9    D(4,1,5,8)            -25.4476                                         !
 ! D10   D(1,5,7,11)            12.6278                                         !
 ! D11   D(1,5,7,23)          -170.0892                                         !
 ! D12   D(6,5,7,11)           -99.8888                                         !
 ! D13   D(6,5,7,23)            77.3942                                         !
 ! D14   D(8,5,7,11)           134.9054                                         !
 ! D15   D(8,5,7,23)           -47.8116                                         !
 ! D16   D(1,5,8,9)            -70.913                                          !
 ! D17   D(1,5,8,10)           175.323                                          !
 ! D18   D(1,5,8,12)            51.6409                                         !
 ! D19   D(6,5,8,9)             47.4764                                         !
 ! D20   D(6,5,8,10)           -66.2877                                         !
 ! D21   D(6,5,8,12)           170.0302                                         !
 ! D22   D(7,5,8,9)            171.5573                                         !
 ! D23   D(7,5,8,10)            57.7933                                         !
 ! D24   D(7,5,8,12)           -65.8888                                         !
 ! D25   D(5,7,23,24)           14.3867                                         !
 ! D26   D(5,7,23,25)          176.1317                                         !
 ! D27   D(11,7,23,24)        -168.5872                                         !
 ! D28   D(11,7,23,25)          -6.8422                                         !
 ! D29   D(5,8,12,13)          -91.073                                          !
 ! D30   D(5,8,12,15)           87.3946                                         !
 ! D31   D(9,8,12,13)           30.1442                                         !
 ! D32   D(9,8,12,15)         -151.3883                                         !
 ! D33   D(10,8,12,13)         147.0253                                         !
 ! D34   D(10,8,12,15)         -34.5072                                         !
 ! D35   D(8,12,13,14)          -6.3077                                         !
 ! D36   D(8,12,13,17)         177.4199                                         !
 ! D37   D(15,12,13,14)        175.1895                                         !
 ! D38   D(15,12,13,17)         -1.0829                                         !
 ! D39   D(8,12,15,16)           3.7236                                         !
 ! D40   D(8,12,15,19)        -177.7832                                         !
 ! D41   D(13,12,15,16)       -177.7942                                         !
 ! D42   D(13,12,15,19)          0.699                                          !
 ! D43   D(12,13,17,18)        179.2211                                         !
 ! D44   D(12,13,17,21)          0.4741                                         !
 ! D45   D(14,13,17,18)          2.9274                                         !
 ! D46   D(14,13,17,21)       -175.8196                                         !
 ! D47   D(12,15,19,20)       -179.2                                            !
 ! D48   D(12,15,19,21)          0.2894                                         !
 ! D49   D(16,15,19,20)         -0.7034                                         !
 ! D50   D(16,15,19,21)        178.786                                          !
 ! D51   D(13,17,21,19)          0.5269                                         !
 ! D52   D(13,17,21,22)        179.4801                                         !
 ! D53   D(18,17,21,19)       -178.2142                                         !
 ! D54   D(18,17,21,22)          0.739                                          !
 ! D55   D(15,19,21,17)         -0.9103                                         !
 ! D56   D(15,19,21,22)       -179.8634                                         !
 ! D57   D(20,19,21,17)        178.5771                                         !
 ! D58   D(20,19,21,22)         -0.376                                          !
 ! D59   D(7,23,25,26)         -35.011                                          !
 ! D60   D(7,23,25,27)        -151.2541                                         !
 ! D61   D(7,23,25,28)          85.7998                                         !
 ! D62   D(24,23,25,26)        128.5254                                         !
 ! D63   D(24,23,25,27)         12.2822                                         !
 ! D64   D(24,23,25,28)       -110.6638                                         !
 ! D65   D(23,25,27,32)         -2.4022                                         !
 ! D66   D(23,25,27,33)        177.5315                                         !
 ! D67   D(26,25,27,32)       -117.8627                                         !
 ! D68   D(26,25,27,33)         62.071                                          !
 ! D69   D(28,25,27,32)        119.557                                          !
 ! D70   D(28,25,27,33)        -60.5093                                         !
 ! D71   D(23,25,28,29)       -179.1019                                         !
 ! D72   D(23,25,28,30)         60.5293                                         !
 ! D73   D(23,25,28,31)        -59.9707                                         !
 ! D74   D(26,25,28,29)        -59.0019                                         !
 ! D75   D(26,25,28,30)       -179.3707                                         !
 ! D76   D(26,25,28,31)         60.1293                                         !
 ! D77   D(27,25,28,29)         63.5177                                         !
 ! D78   D(27,25,28,30)        -56.8511                                         !
 ! D79   D(27,25,28,31)       -177.3511                                         !
 ! D80   D(25,27,33,34)          4.7559                                         !
 ! D81   D(25,27,33,35)        175.0857                                         !
 ! D82   D(32,27,33,34)       -175.3141                                         !
 ! D83   D(32,27,33,35)         -4.9843                                         !
 ! D84   D(27,33,35,36)        -42.1615                                         !
 ! D85   D(27,33,35,37)       -159.5245                                         !
 ! D86   D(27,33,35,38)         78.7282                                         !
 ! D87   D(34,33,35,36)        129.0523                                         !
 ! D88   D(34,33,35,37)         11.6894                                         !
 ! D89   D(34,33,35,38)       -110.0579                                         !
 ! D90   D(33,35,37,42)        -12.6147                                         !
 ! D91   D(33,35,37,43)        167.4045                                         !
 ! D92   D(36,35,37,42)       -129.1379                                         !
 ! D93   D(36,35,37,43)         50.8813                                         !
 ! D94   D(38,35,37,42)        109.3038                                         !
 ! D95   D(38,35,37,43)        -70.677                                          !
 ! D96   D(33,35,38,39)       -179.7695                                         !
 ! D97   D(33,35,38,40)         60.0311                                         !
 ! D98   D(33,35,38,41)        -60.2971                                         !
 ! D99   D(36,35,38,39)        -59.2308                                         !
 ! D100  D(36,35,38,40)       -179.4302                                         !
 ! D101  D(36,35,38,41)         60.2416                                         !
 ! D102  D(37,35,38,39)         62.6803                                         !
 ! D103  D(37,35,38,40)        -57.5191                                         !
 ! D104  D(37,35,38,41)       -177.8473                                         !
 ! D105  D(35,37,43,44)          9.7888                                         !
 ! D106  D(35,37,43,45)        172.2327                                         !
 ! D107  D(42,37,43,44)       -170.1911                                         !
 ! D108  D(42,37,43,45)         -7.7471                                         !
 ! D109  D(37,43,45,46)        -42.8924                                         !
 ! D110  D(37,43,45,47)       -158.0143                                         !
 ! D111  D(37,43,45,48)         75.5105                                         !
 ! D112  D(44,43,45,46)        120.9346                                         !
 ! D113  D(44,43,45,47)          5.8127                                         !
 ! D114  D(44,43,45,48)       -120.6625                                         !
 ! D115  D(43,45,47,51)          4.5033                                         !
 ! D116  D(43,45,47,64)       -178.0118                                         !
 ! D117  D(46,45,47,51)       -110.5677                                         !
 ! D118  D(46,45,47,64)         66.9172                                         !
 ! D119  D(48,45,47,51)        129.6361                                         !
 ! D120  D(48,45,47,64)        -52.879                                          !
 ! D121  D(43,45,48,49)       -162.2636                                         !
 ! D122  D(43,45,48,50)        -49.9133                                         !
 ! D123  D(43,45,48,52)         75.0043                                         !
 ! D124  D(46,45,48,49)        -43.3446                                         !
 ! D125  D(46,45,48,50)         69.0057                                         !
 ! D126  D(46,45,48,52)       -166.0767                                         !
 ! D127  D(47,45,48,49)         76.9803                                         !
 ! D128  D(47,45,48,50)       -170.6694                                         !
 ! D129  D(47,45,48,52)        -45.7518                                         !
 ! D130  D(45,47,64,65)         15.1468                                         !
 ! D131  D(45,47,64,66)        175.5529                                         !
 ! D132  D(51,47,64,65)       -167.4635                                         !
 ! D133  D(51,47,64,66)         -7.0574                                         !
 ! D134  D(45,48,52,53)        -65.3789                                         !
 ! D135  D(45,48,52,55)        115.0587                                         !
 ! D136  D(49,48,52,53)        172.5809                                         !
 ! D137  D(49,48,52,55)         -6.9815                                         !
 ! D138  D(50,48,52,53)         56.4916                                         !
 ! D139  D(50,48,52,55)       -123.0709                                         !
 ! D140  D(48,52,53,54)         -1.179                                          !
 ! D141  D(48,52,53,57)        178.3124                                         !
 ! D142  D(55,52,53,54)        178.3934                                         !
 ! D143  D(55,52,53,57)         -2.1152                                         !
 ! D144  D(48,52,55,56)         -0.0031                                         !
 ! D145  D(48,52,55,59)       -179.3561                                         !
 ! D146  D(53,52,55,56)       -179.5875                                         !
 ! D147  D(53,52,55,59)          1.0595                                         !
 ! D148  D(52,53,57,58)       -178.8495                                         !
 ! D149  D(52,53,57,63)          0.7674                                         !
 ! D150  D(54,53,57,58)          0.6458                                         !
 ! D151  D(54,53,57,63)       -179.7374                                         !
 ! D152  D(52,55,59,60)       -178.8331                                         !
 ! D153  D(52,55,59,63)          1.3419                                         !
 ! D154  D(56,55,59,60)          1.8053                                         !
 ! D155  D(56,55,59,63)       -178.0197                                         !
 ! D156  D(53,57,63,59)          1.6713                                         !
 ! D157  D(53,57,63,61)       -178.8364                                         !
 ! D158  D(58,57,63,59)       -178.7026                                         !
 ! D159  D(58,57,63,61)          0.7898                                         !
 ! D160  D(55,59,63,57)         -2.7054                                         !
 ! D161  D(55,59,63,61)        177.8265                                         !
 ! D162  D(60,59,63,57)        177.4683                                         !
 ! D163  D(60,59,63,61)         -1.9998                                         !
 ! D164  D(62,61,63,57)        169.8689                                         !
 ! D165  D(62,61,63,59)        -10.6591                                         !
 ! D166  D(47,64,66,67)        -11.1336                                         !
 ! D167  D(47,64,66,68)       -129.8105                                         !
 ! D168  D(47,64,66,69)        108.8706                                         !
 ! D169  D(65,64,66,67)        150.4394                                         !
 ! D170  D(65,64,66,68)         31.7625                                         !
 ! D171  D(65,64,66,69)        -89.5564                                         !
 ! D172  D(64,66,68,72)        -33.4005                                         !
 ! D173  D(64,66,68,83)        147.3144                                         !
 ! D174  D(67,66,68,72)       -149.3206                                         !
 ! D175  D(67,66,68,83)         31.3943                                         !
 ! D176  D(69,66,68,72)         87.0614                                         !
 ! D177  D(69,66,68,83)        -92.2237                                         !
 ! D178  D(64,66,69,70)        -50.9749                                         !
 ! D179  D(64,66,69,71)         63.3768                                         !
 ! D180  D(64,66,69,73)       -173.1937                                         !
 ! D181  D(67,66,69,70)         66.8731                                         !
 ! D182  D(67,66,69,71)       -178.7752                                         !
 ! D183  D(67,66,69,73)        -55.3457                                         !
 ! D184  D(68,66,69,70)       -169.1631                                         !
 ! D185  D(68,66,69,71)        -54.8114                                         !
 ! D186  D(68,66,69,73)         68.6181                                         !
 ! D187  D(66,68,83,84)          2.9944                                         !
 ! D188  D(66,68,83,85)        176.883                                          !
 ! D189  D(72,68,83,84)       -176.2644                                         !
 ! D190  D(72,68,83,85)         -2.3757                                         !
 ! D191  D(66,69,73,74)        -55.176                                          !
 ! D192  D(66,69,73,75)         64.3045                                         !
 ! D193  D(66,69,73,79)       -172.4585                                         !
 ! D194  D(70,69,73,74)       -176.286                                          !
 ! D195  D(70,69,73,75)        -56.8055                                         !
 ! D196  D(70,69,73,79)         66.4315                                         !
 ! D197  D(71,69,73,74)         67.2397                                         !
 ! D198  D(71,69,73,75)       -173.2798                                         !
 ! D199  D(71,69,73,79)        -50.0428                                         !
 ! D200  D(69,73,75,76)         59.3108                                         !
 ! D201  D(69,73,75,77)        178.8837                                         !
 ! D202  D(69,73,75,78)        -61.1828                                         !
 ! D203  D(74,73,75,76)        179.114                                          !
 ! D204  D(74,73,75,77)        -61.3132                                         !
 ! D205  D(74,73,75,78)         58.6203                                         !
 ! D206  D(79,73,75,76)        -63.4814                                         !
 ! D207  D(79,73,75,77)         56.0915                                         !
 ! D208  D(79,73,75,78)        176.025                                          !
 ! D209  D(69,73,79,80)        -61.8857                                         !
 ! D210  D(69,73,79,81)         58.2093                                         !
 ! D211  D(69,73,79,82)        178.4731                                         !
 ! D212  D(74,73,79,80)       -179.8022                                         !
 ! D213  D(74,73,79,81)        -59.7072                                         !
 ! D214  D(74,73,79,82)         60.5566                                         !
 ! D215  D(75,73,79,80)         62.5095                                         !
 ! D216  D(75,73,79,81)       -177.3954                                         !
 ! D217  D(75,73,79,82)        -57.1317                                         !
 ! D218  D(68,83,85,86)        -32.4432                                         !
 ! D219  D(68,83,85,87)       -151.4908                                         !
 ! D220  D(68,83,85,88)         87.1998                                         !
 ! D221  D(84,83,85,86)        141.8799                                         !
 ! D222  D(84,83,85,87)         22.8323                                         !
 ! D223  D(84,83,85,88)        -98.4771                                         !
 ! D224  D(83,85,87,91)        -23.2265                                         !
 ! D225  D(83,85,87,98)        158.2446                                         !
 ! D226  D(86,85,87,91)       -140.5606                                         !
 ! D227  D(86,85,87,98)         40.9105                                         !
 ! D228  D(88,85,87,91)         97.0844                                         !
 ! D229  D(88,85,87,98)        -81.4446                                         !
 ! D230  D(83,85,88,89)        -46.2033                                         !
 ! D231  D(83,85,88,90)         68.59                                           !
 ! D232  D(83,85,88,92)       -167.2336                                         !
 ! D233  D(86,85,88,89)         72.8212                                         !
 ! D234  D(86,85,88,90)       -172.3855                                         !
 ! D235  D(86,85,88,92)        -48.2091                                         !
 ! D236  D(87,85,88,89)       -163.9378                                         !
 ! D237  D(87,85,88,90)        -49.1445                                         !
 ! D238  D(87,85,88,92)         75.0319                                         !
 ! D239  D(85,87,98,99)          6.2718                                         !
 ! D240  D(85,87,98,100)       166.1397                                         !
 ! D241  D(91,87,98,99)       -172.1996                                         !
 ! D242  D(91,87,98,100)       -12.3316                                         !
 ! D243  D(85,88,92,93)         55.3066                                         !
 ! D244  D(85,88,92,94)        -62.7837                                         !
 ! D245  D(85,88,92,95)        174.3666                                         !
 ! D246  D(89,88,92,93)        -64.3607                                         !
 ! D247  D(89,88,92,94)        177.5489                                         !
 ! D248  D(89,88,92,95)         54.6993                                         !
 ! D249  D(90,88,92,93)        178.699                                          !
 ! D250  D(90,88,92,94)         60.6086                                         !
 ! D251  D(90,88,92,95)        -62.2411                                         !
 ! D252  D(88,92,95,96)        -11.5848                                         !
 ! D253  D(88,92,95,97)        169.2428                                         !
 ! D254  D(93,92,95,96)        109.9303                                         !
 ! D255  D(93,92,95,97)        -69.2421                                         !
 ! D256  D(94,92,95,96)       -137.6106                                         !
 ! D257  D(94,92,95,97)         43.217                                          !
 ! D258  D(92,95,97,123)       178.6851                                         !
 ! D259  D(96,95,97,123)        -0.5311                                         !
 ! D260  D(87,98,100,101)      -36.3743                                         !
 ! D261  D(87,98,100,102)     -152.0727                                         !
 ! D262  D(87,98,100,103)       84.5082                                         !
 ! D263  D(99,98,100,101)      125.4939                                         !
 ! D264  D(99,98,100,102)        9.7955                                         !
 ! D265  D(99,98,100,103)     -113.6236                                         !
 ! D266  D(98,100,102,106)     176.0795                                         !
 ! D267  D(98,100,102,122)      -3.8437                                         !
 ! D268  D(101,100,102,106)     60.6361                                         !
 ! D269  D(101,100,102,122)   -119.287                                          !
 ! D270  D(103,100,102,106)    -60.0073                                         !
 ! D271  D(103,100,102,122)    120.0696                                         !
 ! D272  D(98,100,103,104)     118.3709                                         !
 ! D273  D(98,100,103,105)       3.3247                                         !
 ! D274  D(98,100,103,107)    -117.5545                                         !
 ! D275  D(101,100,103,104)   -121.7571                                         !
 ! D276  D(101,100,103,105)    123.1967                                         !
 ! D277  D(101,100,103,107)      2.3175                                         !
 ! D278  D(102,100,103,104)     -1.9205                                         !
 ! D279  D(102,100,103,105)   -116.9667                                         !
 ! D280  D(102,100,103,107)    122.1541                                         !
 ! D281  D(100,103,107,108)   -178.5865                                         !
 ! D282  D(100,103,107,109)     65.1875                                         !
 ! D283  D(100,103,107,110)    -56.4917                                         !
 ! D284  D(104,103,107,108)    -54.4738                                         !
 ! D285  D(104,103,107,109)   -170.6998                                         !
 ! D286  D(104,103,107,110)     67.621                                          !
 ! D287  D(105,103,107,108)     60.3133                                         !
 ! D288  D(105,103,107,109)    -55.9127                                         !
 ! D289  D(105,103,107,110)   -177.5919                                         !
 ! D290  D(103,107,110,111)   -156.7417                                         !
 ! D291  D(103,107,110,112)     86.3281                                         !
 ! D292  D(103,107,110,113)    -31.6001                                         !
 ! D293  D(108,107,110,111)    -35.3131                                         !
 ! D294  D(108,107,110,112)   -152.2433                                         !
 ! D295  D(108,107,110,113)     89.8285                                         !
 ! D296  D(109,107,110,111)     80.6975                                         !
 ! D297  D(109,107,110,112)    -36.2327                                         !
 ! D298  D(109,107,110,113)   -154.1608                                         !
 ! D299  D(107,110,113,114)     64.8566                                         !
 ! D300  D(107,110,113,121)    -84.9099                                         !
 ! D301  D(111,110,113,114)   -170.1878                                         !
 ! D302  D(111,110,113,121)     40.0457                                         !
 ! D303  D(112,110,113,114)    -55.8202                                         !
 ! D304  D(112,110,113,121)    154.4133                                         !
 ! D305  D(110,113,121,115)    -30.5663                                         !
 ! D306  D(110,113,121,118)    150.7696                                         !
 ! D307  D(114,113,121,115)    178.7629                                         !
 ! D308  D(114,113,121,118)      0.0989                                         !
 ! D309  D(116,115,121,113)    156.7781                                         !
 ! D310  D(116,115,121,118)    -24.5644                                         !
 ! D311  D(117,115,121,113)      2.6233                                         !
 ! D312  D(117,115,121,118)   -178.7193                                         !
 ! D313  D(119,118,121,113)    150.545                                          !
 ! D314  D(119,118,121,115)    -28.1812                                         !
 ! D315  D(120,118,121,113)     -3.7614                                         !
 ! D316  D(120,118,121,115)    177.5123                                         !
 --------------------------------------------------------------------------------
 Symmetry turned off by external request.
 Stoichiometry    C41H61N10O11(1+)
 Framework group  C1[X(C41H61N10O11)]
 Deg. of freedom   363
 Full point group                 C1      NOp   1
                          Input orientation:                          
 ---------------------------------------------------------------------
 Center     Atomic      Atomic             Coordinates (Angstroms)
 Number     Number       Type             X           Y           Z
 ---------------------------------------------------------------------
      1          7           0      -11.433419    7.308004    4.594540
      2          1           0      -11.831591    6.325815    4.658173
      3          1           0      -12.115413    7.972905    4.223661
      4          1           0      -11.137925    7.605834    5.538922
      5          6           0      -10.219957    7.106428    3.715631
      6          1           0      -10.506575    7.405148    2.702425
      7          6           0      -10.057556    5.555786    3.727425
      8          6           0       -9.025944    7.960078    4.202750
      9          1           0       -9.252918    9.010719    3.985516
     10          1           0       -8.158456    7.709791    3.582994
     11          8           0      -11.000889    4.888982    4.180194
     12          6           0       -8.714195    7.784040    5.675458
     13          6           0       -9.315243    8.629556    6.624509
     14          1           0       -9.921611    9.472920    6.293550
     15          6           0       -7.855926    6.766955    6.120375
     16          1           0       -7.353605    6.125886    5.400137
     17          6           0       -9.082317    8.448976    7.991342
     18          1           0       -9.543840    9.118233    8.711375
     19          6           0       -7.619570    6.594588    7.484117
     20          1           0       -6.943217    5.812393    7.815976
     21          6           0       -8.237589    7.426487    8.421710
     22          1           0       -8.047151    7.287849    9.481638
     23          7           0       -8.944789    5.063293    3.200951
     24          1           0       -8.129002    5.645645    2.998446
     25          6           0       -8.592341    3.642255    3.201450
     26          1           0       -8.956903    3.198312    4.134815
     27          6           0       -7.042065    3.640832    3.202384
     28          6           0       -9.204692    2.897124    2.006361
     29          1           0       -8.943486    1.834907    2.032846
     30          1           0       -8.846516    3.315605    1.060602
     31          1           0      -10.294942    2.975805    2.040336
     32          8           0       -6.429074    4.718071    3.157322
     33          7           0       -6.459553    2.440842    3.254686
     34          1           0       -6.988366    1.568733    3.220926
     35          6           0       -5.020045    2.220310    3.161705
     36          1           0       -4.616406    2.869798    2.376593
     37          6           0       -4.873701    0.738729    2.744186
     38          6           0       -4.298713    2.518802    4.486700
     39          1           0       -3.221366    2.350256    4.390866
     40          1           0       -4.679336    1.873303    5.284977
     41          1           0       -4.458857    3.564168    4.763969
     42          8           0       -5.848700   -0.018506    2.796148
     43          7           0       -3.647578    0.371624    2.340405
     44          1           0       -2.842146    0.985796    2.451657
     45          6           0       -3.270145   -1.009894    2.064894
     46          1           0       -3.690715   -1.641775    2.858858
     47          6           0       -1.728836   -1.035444    2.196399
     48          6           0       -3.830239   -1.538330    0.714277
     49          1           0       -3.779134   -2.634179    0.739455
     50          1           0       -4.899162   -1.295819    0.719010
     51          8           0       -1.121545   -0.025932    2.562506
     52          6           0       -3.148850   -1.043019   -0.544252
     53          6           0       -3.180277    0.304036   -0.941924
     54          1           0       -3.726548    1.028276   -0.343317
     55          6           0       -2.461077   -1.943827   -1.366388
     56          1           0       -2.418233   -2.996385   -1.098684
     57          6           0       -2.517082    0.741361   -2.084869
     58          1           0       -2.530082    1.787213   -2.376505
     59          6           0       -1.810489   -1.525816   -2.524797
     60          1           0       -1.299836   -2.245746   -3.156152
     61          8           0       -1.156218    0.301151   -3.972433
     62          1           0       -0.582170   -0.400830   -4.334568
     63          6           0       -1.808681   -0.170982   -2.879871
     64          7           0       -1.127772   -2.216675    1.942419
     65          1           0       -1.627767   -2.960440    1.467345
     66          6           0        0.325262   -2.371443    1.933172
     67          1           0        0.750762   -1.365919    1.958887
     68          6           0        0.679680   -3.086612    0.617337
     69          6           0        0.787173   -3.184112    3.167462
     70          1           0        0.330434   -2.714020    4.048618
     71          1           0        0.352946   -4.189337    3.084185
     72          8           0       -0.090015   -3.918978    0.131749
     73          6           0        2.309202   -3.296612    3.389974
     74          1           0        2.767195   -3.705819    2.478812
     75          6           0        2.961203   -1.935191    3.680321
     76          1           0        2.524306   -1.476470    4.576722
     77          1           0        4.037079   -2.050204    3.853099
     78          1           0        2.842027   -1.223032    2.855676
     79          6           0        2.592396   -4.282027    4.534542
     80          1           0        2.153985   -3.927488    5.476455
     81          1           0        2.173498   -5.272796    4.323143
     82          1           0        3.670370   -4.399688    4.694124
     83          7           0        1.866005   -2.751407    0.066931
     84          1           0        2.504132   -2.103207    0.518674
     85          6           0        2.400705   -3.367432   -1.137301
     86          1           0        2.069033   -4.411232   -1.166407
     87          6           0        3.933839   -3.281419   -1.012955
     88          6           0        1.880395   -2.627806   -2.398064
     89          1           0        0.806078   -2.487421   -2.258430
     90          1           0        2.327159   -1.627037   -2.431447
     91          8           0        4.453842   -2.424522   -0.288318
     92          6           0        2.123758   -3.363881   -3.719991
     93          1           0        1.697840   -4.377704   -3.684640
     94          1           0        3.184886   -3.505330   -3.952805
     95          6           0        1.481067   -2.670861   -4.900980
     96          8           0        0.673142   -1.759811   -4.853380
     97          8           0        1.893106   -3.192423   -6.069518
     98          7           0        4.632729   -4.159174   -1.752552
     99          1           0        4.191094   -4.780685   -2.431028
    100          6           0        6.062473   -4.046185   -1.993094
    101          1           0        6.300215   -2.979421   -2.092232
    102          6           0        6.338683   -4.736224   -3.375150
    103          6           0        6.920529   -4.664551   -0.847436
    104          1           0        7.521223   -5.487643   -1.250244
    105          1           0        6.237822   -5.113086   -0.119324
    106          8           0        7.551599   -4.657690   -3.782724
    107          6           0        7.841434   -3.692809   -0.083217
    108          1           0        8.393911   -4.273917    0.666899
    109          1           0        7.230308   -2.962288    0.459129
    110          6           0        8.850868   -2.907970   -0.958444
    111          1           0        9.707303   -2.576541   -0.360018
    112          1           0        8.388590   -1.997302   -1.349657
    113          7           0        9.290439   -3.663541   -2.132575
    114          1           0        8.517025   -3.874615   -2.845486
    115          7           0       11.379945   -4.505915   -1.443653
    116          1           0       11.904654   -5.353890   -1.286271
    117          1           0       11.466191   -3.786711   -0.741807
    118          7           0       10.152769   -5.535510   -3.132044
    119          1           0       10.981830   -5.940809   -3.542468
    120          1           0        9.276243   -5.556280   -3.666718
    121          6           0       10.264974   -4.551852   -2.215454
    122          8           0        5.387022   -5.284032   -3.943918
    123          1           0        1.422966   -2.711908   -6.777467
 ---------------------------------------------------------------------
 Rotational constants (GHZ):           0.0770406           0.0094107           0.0089399
 Standard basis: 6-31G(d) (6D, 7F)
  1052 basis functions,  1980 primitive gaussians,  1052 cartesian basis functions
   232 alpha electrons      232 beta electrons
       nuclear repulsion energy      8750.3472322684 Hartrees.
 NAtoms=  123 NActive=  123 NUniq=  123 SFac= 1.00D+00 NAtFMM=   60 NAOKFM=T Big=T
 Integral buffers will be    131072 words long.
 Raffenetti 2 integral format.
 Two-electron integral symmetry is turned off.
 One-electron integrals computed using PRISM.
 NBasis=  1052 RedAO= T EigKep=  4.27D-04  NBF=  1052
 NBsUse=  1052 1.00D-06 EigRej= -1.00D+00 NBFU=  1052
 Initial guess from the checkpoint file:  "conf-497.chk"
 B after Tr=     0.000000    0.000000    0.000000
         Rot=    1.000000    0.000000    0.000000    0.000000 Ang=   0.00 deg.
 Requested convergence on RMS density matrix=1.00D-08 within 128 cycles.
 Requested convergence on MAX density matrix=1.00D-06.
 Requested convergence on             energy=1.00D-06.
 No special actions if energy rises.
 SCF Done:  E(RB3LYP) =  -2974.04764283     A.U. after    3 cycles
            NFock=  3  Conv=0.82D-09     -V/T= 2.0094
 Hyperfine terms turned off by default for NAtoms > 100.

 **********************************************************************

            Population analysis using the SCF Density.

 **********************************************************************

 Alpha  occ. eigenvalues --  -19.26023 -19.24366 -19.21489 -19.19525 -19.18831
 Alpha  occ. eigenvalues --  -19.18696 -19.17032 -19.15849 -19.15654 -19.13196
 Alpha  occ. eigenvalues --  -19.12246 -14.58647 -14.48450 -14.45417 -14.44552
 Alpha  occ. eigenvalues --  -14.43258 -14.42124 -14.41967 -14.40748 -14.40140
 Alpha  occ. eigenvalues --  -14.38964 -10.42840 -10.40260 -10.40245 -10.38399
 Alpha  occ. eigenvalues --  -10.37515 -10.35607 -10.34148 -10.34076 -10.33699
 Alpha  occ. eigenvalues --  -10.32985 -10.32578 -10.31662 -10.31134 -10.30653
 Alpha  occ. eigenvalues --  -10.30532 -10.29781 -10.29689 -10.29462 -10.29327
 Alpha  occ. eigenvalues --  -10.29249 -10.29032 -10.27698 -10.27658 -10.27510
 Alpha  occ. eigenvalues --  -10.27266 -10.25777 -10.25371 -10.24488 -10.24099
 Alpha  occ. eigenvalues --  -10.23862 -10.23393 -10.23048 -10.23030 -10.22792
 Alpha  occ. eigenvalues --  -10.22118 -10.22048 -10.21746 -10.21261 -10.21158
 Alpha  occ. eigenvalues --  -10.21146 -10.21058  -1.18430  -1.15671  -1.13360
 Alpha  occ. eigenvalues --   -1.12681  -1.10535  -1.08932  -1.08889  -1.07891
 Alpha  occ. eigenvalues --   -1.07330  -1.07093  -1.06431  -1.05789  -1.05230
 Alpha  occ. eigenvalues --   -1.01207  -0.98718  -0.98713  -0.97314  -0.97272
 Alpha  occ. eigenvalues --   -0.96986  -0.96887  -0.96635  -0.95395  -0.92575
 Alpha  occ. eigenvalues --   -0.88372  -0.88066  -0.85907  -0.85542  -0.85210
 Alpha  occ. eigenvalues --   -0.84680  -0.84271  -0.83994  -0.82154  -0.79819
 Alpha  occ. eigenvalues --   -0.79410  -0.78718  -0.77396  -0.77054  -0.76321
 Alpha  occ. eigenvalues --   -0.76092  -0.73745  -0.73658  -0.73063  -0.72279
 Alpha  occ. eigenvalues --   -0.72073  -0.70976  -0.70666  -0.70625  -0.70274
 Alpha  occ. eigenvalues --   -0.69880  -0.68926  -0.68400  -0.66467  -0.65906
 Alpha  occ. eigenvalues --   -0.65771  -0.65357  -0.64850  -0.64354  -0.63627
 Alpha  occ. eigenvalues --   -0.63046  -0.62994  -0.62603  -0.61788  -0.61484
 Alpha  occ. eigenvalues --   -0.61151  -0.61070  -0.60699  -0.60409  -0.59439
 Alpha  occ. eigenvalues --   -0.58789  -0.58132  -0.57508  -0.57112  -0.56968
 Alpha  occ. eigenvalues --   -0.56744  -0.56476  -0.56275  -0.55623  -0.55161
 Alpha  occ. eigenvalues --   -0.54605  -0.54508  -0.54159  -0.53727  -0.53141
 Alpha  occ. eigenvalues --   -0.52973  -0.52721  -0.52426  -0.52211  -0.51976
 Alpha  occ. eigenvalues --   -0.51627  -0.51513  -0.51391  -0.51105  -0.51003
 Alpha  occ. eigenvalues --   -0.50919  -0.50886  -0.50578  -0.49981  -0.49540
 Alpha  occ. eigenvalues --   -0.49430  -0.49284  -0.48820  -0.48626  -0.48166
 Alpha  occ. eigenvalues --   -0.47865  -0.47641  -0.47489  -0.47278  -0.46879
 Alpha  occ. eigenvalues --   -0.46819  -0.46530  -0.46433  -0.46347  -0.46077
 Alpha  occ. eigenvalues --   -0.45801  -0.45068  -0.45009  -0.44941  -0.44740
 Alpha  occ. eigenvalues --   -0.44652  -0.44413  -0.44142  -0.43739  -0.43571
 Alpha  occ. eigenvalues --   -0.43462  -0.43173  -0.42865  -0.42796  -0.42552
 Alpha  occ. eigenvalues --   -0.42305  -0.42073  -0.41721  -0.41609  -0.41099
 Alpha  occ. eigenvalues --   -0.40942  -0.40596  -0.40052  -0.39714  -0.39399
 Alpha  occ. eigenvalues --   -0.39129  -0.38985  -0.38771  -0.38542  -0.38111
 Alpha  occ. eigenvalues --   -0.37706  -0.37174  -0.36901  -0.36521  -0.36433
 Alpha  occ. eigenvalues --   -0.36063  -0.36035  -0.35936  -0.35667  -0.35586
 Alpha  occ. eigenvalues --   -0.35029  -0.34566  -0.33088  -0.32834  -0.32645
 Alpha  occ. eigenvalues --   -0.32011  -0.31227  -0.30820  -0.30540  -0.29564
 Alpha  occ. eigenvalues --   -0.29241  -0.29071  -0.28228  -0.27785  -0.27427
 Alpha  occ. eigenvalues --   -0.26392  -0.24105
 Alpha virt. eigenvalues --   -0.12220  -0.11774  -0.11603  -0.08154  -0.07078
 Alpha virt. eigenvalues --   -0.05527  -0.04546  -0.04132  -0.03729  -0.03093
 Alpha virt. eigenvalues --   -0.02720  -0.02592  -0.02262  -0.01980  -0.01519
 Alpha virt. eigenvalues --   -0.01130  -0.01034  -0.00341   0.00908   0.01282
 Alpha virt. eigenvalues --    0.01505   0.01793   0.02485   0.02514   0.02854
 Alpha virt. eigenvalues --    0.03284   0.03564   0.04043   0.04214   0.04463
 Alpha virt. eigenvalues --    0.05090   0.05368   0.05735   0.05815   0.05977
 Alpha virt. eigenvalues --    0.06176   0.06596   0.06722   0.06794   0.06932
 Alpha virt. eigenvalues --    0.07419   0.07770   0.07971   0.08369   0.08551
 Alpha virt. eigenvalues --    0.08771   0.08939   0.09177   0.09320   0.09804
[...]
 Alpha virt. eigenvalues --    0.94453   0.94732   0.95109   0.95169   0.95541
 Alpha virt. eigenvalues --    0.95637   0.96042   0.96689   0.96799   0.96996
 Alpha virt. eigenvalues --    0.97569   0.97944   0.98408   0.98772   0.99238
 Alpha virt. eigenvalues --    0.99637   0.99925   1.00797   1.01402   1.01533
 Alpha virt. eigenvalues --    1.01815   1.02341   1.02654   1.03499   1.03760
 Alpha virt. eigenvalues --    1.04042   1.04144   1.04442   1.04828   1.04904
 Alpha virt. eigenvalues --    1.05768   1.06072   1.06718   1.07254   1.07438
 Alpha virt. eigenvalues --    1.07974   1.08616   1.08936   1.09463   1.09727
 Alpha virt. eigenvalues --    1.10217   1.10788   1.11350   1.11872   1.12493
 Alpha virt. eigenvalues --    1.13504   1.14021   1.14831   1.14993   1.15742
 Alpha virt. eigenvalues --    1.15772   1.16171   1.16523   1.16953   1.16997
 Alpha virt. eigenvalues --    1.17112   1.18168   1.18644   1.20252   1.21320
 Alpha virt. eigenvalues --    1.21487   1.21860   1.22245   1.23160   1.23339
 Alpha virt. eigenvalues --    1.23778   1.24678   1.25510   1.26383   1.26859
 Alpha virt. eigenvalues --    1.27575   1.28347   1.28702   1.29322   1.29452
 Alpha virt. eigenvalues --    1.29972   1.30334   1.30921   1.31232   1.31386
 Alpha virt. eigenvalues --    1.31924   1.32294   1.33238   1.34561   1.34811
 Alpha virt. eigenvalues --    1.35135   1.35721   1.35970   1.36204   1.36608
 Alpha virt. eigenvalues --    1.37655   1.37938   1.38419   1.39219   1.39390
 Alpha virt. eigenvalues --    1.39823   1.40403   1.40782   1.40948   1.41144
 Alpha virt. eigenvalues --    1.41979   1.42511   1.42962   1.43314   1.43650
 Alpha virt. eigenvalues --    1.43719   1.44107   1.44410   1.45350   1.45577
 Alpha virt. eigenvalues --    1.46379   1.46743   1.46965   1.47473   1.48346
 Alpha virt. eigenvalues --    1.48427   1.48864   1.49100   1.49325   1.50710
 Alpha virt. eigenvalues --    1.50994   1.52541   1.52826   1.53831   1.54832
 Alpha virt. eigenvalues --    1.54936   1.55386   1.55698   1.56466   1.58026
 Alpha virt. eigenvalues --    1.58368   1.58550   1.59516   1.59869   1.60389
 Alpha virt. eigenvalues --    1.61323   1.62803   1.62989   1.63435   1.64083
 Alpha virt. eigenvalues --    1.64483   1.64871   1.65069   1.65539   1.65976
 Alpha virt. eigenvalues --    1.66349   1.66626   1.67122   1.67376   1.67891
 Alpha virt. eigenvalues --    1.68149   1.68553   1.68851   1.69169   1.69884
 Alpha virt. eigenvalues --    1.69919   1.70274   1.70391   1.71095   1.71383
 Alpha virt. eigenvalues --    1.71922   1.72704   1.72941   1.73339   1.73465
 Alpha virt. eigenvalues --    1.73766   1.74054   1.74296   1.74501   1.75102
 Alpha virt. eigenvalues --    1.75308   1.75496   1.75815   1.75865   1.76156
 Alpha virt. eigenvalues --    1.76475   1.77062   1.77165   1.77212   1.77758
 Alpha virt. eigenvalues --    1.78494   1.78527   1.78956   1.79668   1.79764
 Alpha virt. eigenvalues --    1.80058   1.80192   1.80434   1.80839   1.81211
 Alpha virt. eigenvalues --    1.81521   1.82038   1.82377   1.82477   1.83543
 Alpha virt. eigenvalues --    1.83587   1.83962   1.84291   1.85025   1.85276
 Alpha virt. eigenvalues --    1.85445   1.85930   1.86187   1.86353   1.86501
 Alpha virt. eigenvalues --    1.86887   1.87686   1.87862   1.88364   1.88638
 Alpha virt. eigenvalues --    1.89021   1.89532   1.89725   1.89891   1.90174
 Alpha virt. eigenvalues --    1.90333   1.91048   1.91285   1.92170   1.92376
 Alpha virt. eigenvalues --    1.92577   1.92771   1.93121   1.93319   1.93781
 Alpha virt. eigenvalues --    1.93960   1.94128   1.94299   1.94760   1.95141
 Alpha virt. eigenvalues --    1.95235   1.95498   1.95723   1.95891   1.96034
 Alpha virt. eigenvalues --    1.97155   1.97339   1.97465   1.97542   1.98630
 Alpha virt. eigenvalues --    1.98888   2.00297   2.00675   2.00934   2.01098
 Alpha virt. eigenvalues --    2.01740   2.02381   2.02911   2.03065   2.03223
 Alpha virt. eigenvalues --    2.03813   2.04180   2.04390   2.04743   2.04825
 Alpha virt. eigenvalues --    2.05346   2.06138   2.06526   2.06955   2.07083
 Alpha virt. eigenvalues --    2.07366   2.08820   2.08964   2.09124   2.09263
 Alpha virt. eigenvalues --    2.09618   2.10821   2.11265   2.11451   2.11798
 Alpha virt. eigenvalues --    2.12890   2.13547   2.14285   2.15065   2.15464
 Alpha virt. eigenvalues --    2.16308   2.16775   2.17490   2.17760   2.18147
 Alpha virt. eigenvalues --    2.18527   2.18912   2.19763   2.20143   2.20654
 Alpha virt. eigenvalues --    2.20891   2.21223   2.21508   2.21897   2.22485
 Alpha virt. eigenvalues --    2.22750   2.23124   2.23997   2.24366   2.25006
 Alpha virt. eigenvalues --    2.25578   2.25689   2.26295   2.26534   2.26907
 Alpha virt. eigenvalues --    2.27042   2.27281   2.28710   2.29052   2.29235
 Alpha virt. eigenvalues --    2.30584   2.30735   2.31210   2.31971   2.32402
 Alpha virt. eigenvalues --    2.32833   2.33138   2.34217   2.34601   2.35167
 Alpha virt. eigenvalues --    2.35241   2.35872   2.36946   2.37954   2.38050
 Alpha virt. eigenvalues --    2.38840   2.39645   2.40720   2.40796   2.41502
 Alpha virt. eigenvalues --    2.42163   2.42989   2.43419   2.43737   2.44635
 Alpha virt. eigenvalues --    2.44761   2.45113   2.45231   2.45457   2.46305
 Alpha virt. eigenvalues --    2.46840   2.47840   2.48177   2.48495   2.48933
 Alpha virt. eigenvalues --    2.49389   2.49951   2.50217   2.50847   2.51904
 Alpha virt. eigenvalues --    2.52068   2.52929   2.53808   2.54041   2.54475
 Alpha virt. eigenvalues --    2.54666   2.55514   2.56480   2.57808   2.58349
 Alpha virt. eigenvalues --    2.59039   2.59405   2.59793   2.60447   2.60879
 Alpha virt. eigenvalues --    2.61434   2.61742   2.62604   2.62853   2.63025
 Alpha virt. eigenvalues --    2.63222   2.63884   2.64308   2.64617   2.64822
 Alpha virt. eigenvalues --    2.65174   2.65833   2.66194   2.67370   2.68144
 Alpha virt. eigenvalues --    2.68587   2.69367   2.69738   2.71015   2.71520
 Alpha virt. eigenvalues --    2.72869   2.73813   2.74666   2.75971   2.76763
 Alpha virt. eigenvalues --    2.77610   2.77972   2.79362   2.79511   2.81580
 Alpha virt. eigenvalues --    2.82142   2.82902   2.84851   2.85772   2.87363
 Alpha virt. eigenvalues --    2.88092   2.88256   2.88786   2.90170   2.91062
 Alpha virt. eigenvalues --    2.92315   2.92831   2.93661   2.93958   2.94919
 Alpha virt. eigenvalues --    2.95532   2.95686   2.97547   2.98394   2.99054
 Alpha virt. eigenvalues --    3.00780   3.02545   3.04145   3.05439   3.07911
 Alpha virt. eigenvalues --    3.09984   3.10348   3.13002   3.15805   3.16710
 Alpha virt. eigenvalues --    3.19333   3.29468   3.39202   3.68257   3.72503
 Alpha virt. eigenvalues --    3.80802   3.81353   3.91245   3.94683   3.94944
 Alpha virt. eigenvalues --    3.95507   3.96660   3.98301   3.98529   3.99176
 Alpha virt. eigenvalues --    3.99595   4.01150   4.02618   4.02906   4.04181
 Alpha virt. eigenvalues --    4.05027   4.05620   4.07209   4.09250   4.10282
 Alpha virt. eigenvalues --    4.11356   4.12553   4.14068   4.14291   4.15148
 Alpha virt. eigenvalues --    4.17022   4.17614   4.17925   4.20159   4.20830
 Alpha virt. eigenvalues --    4.23393   4.24586   4.24724   4.26516   4.26924
 Alpha virt. eigenvalues --    4.28431   4.29059   4.30631   4.31132   4.33142
 Alpha virt. eigenvalues --    4.33487   4.35027   4.35634   4.39385   4.43535
 Alpha virt. eigenvalues --    4.44563   4.45465   4.46561   4.47498   4.51076
 Alpha virt. eigenvalues --    4.52011   4.53218   4.55287   4.56075   4.59985
 Alpha virt. eigenvalues --    4.61565   4.62424   4.63738   4.65647   4.74716
          Condensed to atoms (all electrons):
 Mulliken charges:
               1
     1  N   -0.757547
     2  H    0.433265
     3  H    0.409224
     4  H    0.403663
     5  C   -0.112508
     6  H    0.227842
     7  C    0.656622
     8  C   -0.393925
     9  H    0.188287
    10  H    0.210451
    11  O   -0.541984
    12  C    0.139191
    13  C   -0.235001
    14  H    0.140542
    15  C   -0.184386
    16  H    0.167020
    17  C   -0.118861
    18  H    0.164180
    19  C   -0.125477
    20  H    0.165490
    21  C   -0.121395
    22  H    0.166975
    23  N   -0.608657
    24  H    0.377676
    25  C   -0.063102
    26  H    0.201138
    27  C    0.634535
    28  C   -0.454670
    29  H    0.183642
    30  H    0.173138
    31  H    0.183976
    32  O   -0.558475
    33  N   -0.619066
    34  H    0.369406
    35  C   -0.046064
    36  H    0.187971
    37  C    0.619264
    38  C   -0.454830
    39  H    0.175337
    40  H    0.164022
    41  H    0.176640
    42  O   -0.547962
    43  N   -0.616555
    44  H    0.365856
    45  C   -0.041350
    46  H    0.183499
    47  C    0.623186
    48  C   -0.381304
    49  H    0.147331
    50  H    0.184732
    51  O   -0.545620
    52  C    0.166794
    53  C   -0.184628
    54  H    0.108132
    55  C   -0.202305
    56  H    0.142218
    57  C   -0.159785
    58  H    0.130716
    59  C   -0.199296
    60  H    0.136614
    61  O   -0.675504
    62  H    0.451401
    63  C    0.347896
    64  N   -0.609600
    65  H    0.353891
    66  C   -0.073934
    67  H    0.184587
    68  C    0.636552
    69  C   -0.248247
    70  H    0.146547
    71  H    0.145283
    72  O   -0.555592
    73  C   -0.087471
    74  H    0.136225
    75  C   -0.447230
    76  H    0.144788
    77  H    0.148848
    78  H    0.143849
    79  C   -0.443687
    80  H    0.141678
    81  H    0.146032
    82  H    0.144137
    83  N   -0.616639
    84  H    0.360513
    85  C   -0.054663
    86  H    0.175849
    87  C    0.609485
    88  C   -0.269064
    89  H    0.190233
    90  H    0.161334
    91  O   -0.557685
    92  C   -0.387329
    93  H    0.193473
    94  H    0.212177
    95  C    0.594541
    96  O   -0.489127
    97  O   -0.543743
    98  N   -0.619297
    99  H    0.359287
   100  C   -0.054795
   101  H    0.157616
   102  C    0.604869
   103  C   -0.279340
   104  H    0.147849
   105  H    0.164117
   106  O   -0.639205
   107  C   -0.275904
   108  H    0.133547
   109  H    0.181947
   110  C   -0.174085
   111  H    0.143437
   112  H    0.189963
   113  N   -0.603202
   114  H    0.420820
   115  N   -0.757495
   116  H    0.363766
   117  H    0.366586
   118  N   -0.778257
   119  H    0.352343
   120  H    0.415332
   121  C    0.758458
   122  O   -0.538844
   123  H    0.416863
 Sum of Mulliken charges =   1.00000
 Mulliken charges with hydrogens summed into heavy atoms:
               1
     1  N    0.488605
     5  C    0.115335
     7  C    0.656622
     8  C    0.004814
    11  O   -0.541984
    12  C    0.139191
    13  C   -0.094459
    15  C   -0.017366
    17  C    0.045319
    19  C    0.040012
    21  C    0.045580
    23  N   -0.230981
    25  C    0.138036
    27  C    0.634535
    28  C    0.086087
    32  O   -0.558475
    33  N   -0.249659
    35  C    0.141906
    37  C    0.619264
    38  C    0.061169
    42  O   -0.547962
    43  N   -0.250699
    45  C    0.142149
    47  C    0.623186
    48  C   -0.049242
    51  O   -0.545620
    52  C    0.166794
    53  C   -0.076496
    55  C   -0.060087
    57  C   -0.029070
    59  C   -0.062682
    61  O   -0.224103
    63  C    0.347896
    64  N   -0.255708
    66  C    0.110653
    68  C    0.636552
    69  C    0.043583
    72  O   -0.555592
    73  C    0.048754
    75  C   -0.009746
    79  C   -0.011840
    83  N   -0.256126
    85  C    0.121185
    87  C    0.609485
    88  C    0.082503
    91  O   -0.557685
    92  C    0.018321
    95  C    0.594541
    96  O   -0.489127
    97  O   -0.126880
    98  N   -0.260010
   100  C    0.102821
   102  C    0.604869
   103  C    0.032626
   106  O   -0.639205
   107  C    0.039590
   110  C    0.159315
   113  N   -0.182382
   115  N   -0.027143
   118  N   -0.010583
   121  C    0.758458
   122  O   -0.538844
 Electronic spatial extent (au):  <R**2>=         116070.3022
 Charge=              1.0000 electrons
 Dipole moment (field-independent basis, Debye):
    X=            -21.8798    Y=             21.5199    Z=             19.9970  Tot=             36.6294
 Quadrupole moment (field-independent basis, Debye-Ang):
   XX=            282.3473   YY=           -123.7583   ZZ=           -259.1024
   XY=           -387.8069   XZ=           -191.6467   YZ=            131.5432
 Traceless Quadrupole moment (field-independent basis, Debye-Ang):
   XX=            315.8518   YY=            -90.2538   ZZ=           -225.5980
   XY=           -387.8069   XZ=           -191.6467   YZ=            131.5432
 Octapole moment (field-independent basis, Debye-Ang**2):
  XXX=           -588.1789  YYY=           1671.3431  ZZZ=           -422.9731  XYY=          -1538.5820
  XXY=           2244.5580  XXZ=           1375.1200  XZZ=           -606.5341  YZZ=            817.2200
  YYZ=            738.5089  XYZ=          -1407.2047
 Hexadecapole moment (field-independent basis, Debye-Ang**3):
 XXXX=          -1673.6448 YYYY=         -24282.7451 ZZZZ=         -21908.3188 XXXY=         -26144.1607
 XXXZ=          -6834.7060 YYYX=           3649.4691 YYYZ=          -3337.6367 ZZZX=          10644.3554
 ZZZY=          -6208.1813 XXYY=          11653.8514 XXZZ=          -8946.7605 YYZZ=          -5269.8916
 XXYZ=          12945.6614 YYXZ=          -6114.3685 ZZXY=            567.1508
 N-N= 8.750347232268D+03 E-N=-2.440083402317D+04  KE= 2.946354359748D+03
 Unable to Open any file for archive entry.
 1\1\GINC-AMR-100\SP\RB3LYP\6-31G(d)\C41H61N10O11(1+)\KENGMITH\18-Jul-2
 022\0\\# B3LYP/6-31G* guess=read geom=check nosymm integral(ultrafineg
 rid)\\Candidate Structure: Conf:497 Charge calc in gas phase\\1,1\N,0,
 -11.4334188954,7.3080040063,4.5945401811\H,0,-11.8315906419,6.32581535
 85,4.6581732953\H,0,-12.1154127594,7.9729050915,4.2236606431\H,0,-11.1
 379251703,7.6058336096,5.5389223731\C,0,-10.2199568929,7.1064281526,3.
 7156313598\H,0,-10.5065750758,7.4051481654,2.7024248416\C,0,-10.057555
 9875,5.5557861789,3.7274252156\C,0,-9.0259440392,7.9600775803,4.202750
 2767\H,0,-9.2529178034,9.0107187468,3.985515862\H,0,-8.1584558699,7.70
 97911289,3.5829938997\O,0,-11.0008885867,4.8889821643,4.1801939366\C,0
 ,-8.7141951213,7.7840402178,5.6754577325\C,0,-9.3152434255,8.629555551
 6,6.6245092966\H,0,-9.9216106749,9.4729200917,6.2935501556\C,0,-7.8559
 256456,6.766955416,6.120374742\H,0,-7.3536054909,6.1258859945,5.400136
 6268\C,0,-9.0823171217,8.4489760243,7.9913422527\H,0,-9.5438402042,9.1
 182328128,8.7113746383\C,0,-7.619569948,6.5945879437,7.4841166847\H,0,
 -6.9432165926,5.812393068,7.8159757015\C,0,-8.2375894441,7.4264872016,
 8.4217100294\H,0,-8.0471511702,7.2878491927,9.4816377005\N,0,-8.944789
 0744,5.0632926742,3.2009509985\H,0,-8.1290023566,5.6456454205,2.998446
 0102\C,0,-8.5923412088,3.6422552977,3.2014496659\H,0,-8.9569031732,3.1
 983124489,4.1348145018\C,0,-7.0420652603,3.6408315849,3.2023842101\C,0
 ,-9.2046924281,2.8971244346,2.0063610243\H,0,-8.943486376,1.8349071529
 ,2.0328461544\H,0,-8.8465155804,3.3156051121,1.0606022592\H,0,-10.2949
 422788,2.9758052193,2.0403358542\O,0,-6.4290735365,4.7180705537,3.1573
 220262\N,0,-6.4595526557,2.4408415413,3.2546856783\H,0,-6.9883655427,1
 .5687325862,3.2209262764\C,0,-5.0200451072,2.2203095243,3.1617045807\H
 ,0,-4.6164055535,2.8697984304,2.37659264\C,0,-4.8737011999,0.738728867
 4,2.7441860775\C,0,-4.298713427,2.5188019061,4.486700387\H,0,-3.221366
 1555,2.3502559159,4.3908660153\H,0,-4.6793364933,1.8733025743,5.284976
 9768\H,0,-4.4588568094,3.5641681728,4.7639685485\O,0,-5.848699944,-0.0
 185057331,2.7961478954\N,0,-3.6475780231,0.371623841,2.3404050497\H,0,
 -2.8421464791,0.9857958026,2.4516569805\C,0,-3.2701447538,-1.009894278
 9,2.0648941917\H,0,-3.6907152541,-1.6417751708,2.8588583498\C,0,-1.728
 8357698,-1.0354442726,2.1963994406\C,0,-3.8302387099,-1.5383297342,0.7
 142765497\H,0,-3.779134057,-2.6341789418,0.7394554919\H,0,-4.899162355
 3,-1.2958186247,0.7190098833\O,0,-1.1215453263,-0.0259319586,2.5625055
 482\C,0,-3.1488502021,-1.0430191409,-0.5442516433\C,0,-3.1802768859,0.
 3040357266,-0.9419238034\H,0,-3.7265476976,1.0282762921,-0.3433166504\
 C,0,-2.4610766451,-1.943827166,-1.3663877596\H,0,-2.4182329679,-2.9963
 853116,-1.0986837672\C,0,-2.5170821255,0.741360726,-2.0848690202\H,0,-
 2.530082217,1.7872129855,-2.3765049058\C,0,-1.8104886497,-1.525816143,
 -2.5247972906\H,0,-1.2998355107,-2.2457457401,-3.1561517969\O,0,-1.156
 218087,0.3011509074,-3.9724330472\H,0,-0.5821695186,-0.4008295462,-4.3
 345679395\C,0,-1.8086806568,-0.1709823624,-2.8798708033\N,0,-1.1277724
 433,-2.2166750785,1.9424194586\H,0,-1.6277667345,-2.9604399385,1.46734
 47625\C,0,0.3252619183,-2.3714427818,1.9331722383\H,0,0.7507616601,-1.
 365918504,1.9588867731\C,0,0.6796797142,-3.0866120794,0.617337319\C,0,
 0.7871732274,-3.1841122753,3.1674617652\H,0,0.3304342843,-2.714019581,
 4.0486178366\H,0,0.3529458725,-4.1893371146,3.0841854348\O,0,-0.090014
 887,-3.9189781445,0.1317488534\C,0,2.3092021084,-3.2966120395,3.389974
 4534\H,0,2.7671948265,-3.7058188209,2.4788123903\C,0,2.9612026483,-1.9
 351914139,3.6803206766\H,0,2.5243057946,-1.476469897,4.5767218725\H,0,
 4.037078754,-2.0502041935,3.8530993535\H,0,2.8420265136,-1.2230317707,
 2.8556762352\C,0,2.5923955252,-4.2820273634,4.5345417049\H,0,2.1539854
 045,-3.9274880829,5.4764550798\H,0,2.173498405,-5.2727957062,4.3231427
 453\H,0,3.6703699969,-4.3996875648,4.6941242945\N,0,1.866004913,-2.751
 4070986,0.0669309447\H,0,2.5041324582,-2.1032072704,0.518674102\C,0,2.
 400704994,-3.3674320243,-1.1373006953\H,0,2.0690330997,-4.4112316463,-
 1.1664071304\C,0,3.9338392014,-3.2814187797,-1.012954619\C,0,1.8803954
 478,-2.6278063021,-2.3980642081\H,0,0.8060783738,-2.4874208807,-2.2584
 302309\H,0,2.3271593692,-1.6270365372,-2.4314467432\O,0,4.4538418228,-
 2.4245220919,-0.2883181622\C,0,2.1237577201,-3.3638811917,-3.719991444
 8\H,0,1.6978402724,-4.3777044332,-3.6846397923\H,0,3.1848864283,-3.505
 3303537,-3.9528046728\C,0,1.4810671763,-2.6708609144,-4.9009797928\O,0
 ,0.6731424149,-1.7598105938,-4.8533798445\O,0,1.8931059225,-3.19242275
 53,-6.0695183224\N,0,4.6327294189,-4.1591738115,-1.7525523437\H,0,4.19
 10944932,-4.7806849447,-2.4310275452\C,0,6.0624726272,-4.0461846299,-1
 .9930938457\H,0,6.3002145976,-2.979420963,-2.0922315341\C,0,6.33868268
 02,-4.7362242056,-3.3751497364\C,0,6.9205287847,-4.6645505283,-0.84743
 57296\H,0,7.5212229838,-5.4876431865,-1.2502438372\H,0,6.237822315,-5.
 1130856515,-0.1193242056\O,0,7.5515987166,-4.657690339,-3.7827239733\C
 ,0,7.8414344017,-3.6928085149,-0.0832170673\H,0,8.3939113582,-4.273916
 7169,0.6668986329\H,0,7.2303075882,-2.9622878081,0.4591289313\C,0,8.85
 0867581,-2.9079701976,-0.9584440477\H,0,9.7073034925,-2.5765413594,-0.
 3600180507\H,0,8.3885901526,-1.9973019791,-1.3496574969\N,0,9.29043892
 26,-3.6635407953,-2.1325746066\H,0,8.5170254002,-3.8746152294,-2.84548
 58996\N,0,11.3799448591,-4.5059148265,-1.4436532639\H,0,11.9046540908,
 -5.3538902262,-1.2862708732\H,0,11.4661914366,-3.7867111165,-0.7418066
 441\N,0,10.1527687972,-5.535509743,-3.1320444022\H,0,10.9818302778,-5.
 9408086847,-3.5424676406\H,0,9.276243466,-5.556279718,-3.6667179158\C,
 0,10.2649735666,-4.5518520229,-2.2154540288\O,0,5.3870220019,-5.284031
 5536,-3.9439176867\H,0,1.4229663321,-2.7119079562,-6.7774670883\\Versi
 on=ES64L-G16RevC.01\HF=-2974.0476428\RMSD=8.224e-10\Dipole=-6.5269601,
 8.6626364,6.1156188\Quadrupole=234.8280407,-67.1014816,-167.7265591,-2
 88.3249537,-142.4846472,97.799151\PG=C01 [X(C41H61N10O11)]\\@
 The archive entry for this job was punched.


 LIFE IS A CONTINUAL STRUGGLE AGAINST THE TENDENCY TO PRODUCE ENTROPY.
 Job cpu time:       0 days  0 hours  6 minutes 47.8 seconds.
 Elapsed time:       0 days  0 hours  1 minutes 47.1 seconds.
 File lengths (MBytes):  RWF=    696 Int=      0 D2E=      0 Chk=    112 Scr=     16
 Normal termination of Gaussian 16 at Mon Jul 18 02:04:28 2022.
