 Entering Gaussian System, Link 0=/opt/software/Gaussian/g16-AVX2-C.01/g16/g16
 Input=charge-conf-399.com
 Output=charge-conf-399.log
 Initial command:
 /opt/software/Gaussian/g16-AVX2-C.01/g16/l1.exe "/mnt/gs18/scratch/users/kengmith/Gau-18556.inp" -scrdir="/mnt/gs18/scratch/users/kengmith/"
 Entering Link 1 = /opt/software/Gaussian/g16-AVX2-C.01/g16/l1.exe PID=     18568.
  
 Copyright (c) 1988-2019, Gaussian, Inc.  All Rights Reserved.
  
 This is part of the Gaussian(R) 16 program.  It is based on
 the Gaussian(R) 09 system (copyright 2009, Gaussian, Inc.),
 the Gaussian(R) 03 system (copyright 2003, Gaussian, Inc.),
 the Gaussian(R) 98 system (copyright 1998, Gaussian, Inc.),
 the Gaussian(R) 94 system (copyright 1995, Gaussian, Inc.),
 the Gaussian 92(TM) system (copyright 1992, Gaussian, Inc.),
 the Gaussian 90(TM) system (copyright 1990, Gaussian, Inc.),
 the Gaussian 88(TM) system (copyright 1988, Gaussian, Inc.),
 the Gaussian 86(TM) system (copyright 1986, Carnegie Mellon
 University), and the Gaussian 82(TM) system (copyright 1983,
 Carnegie Mellon University). Gaussian is a federally registered
 trademark of Gaussian, Inc.
  
 This software contains proprietary and confidential information,
 including trade secrets, belonging to Gaussian, Inc.
  
 This software is provided under written license and may be
 used, copied, transmitted, or stored only in accord with that
 written license.
  
 The following legend is applicable only to US Government
 contracts under FAR:
  
                    RESTRICTED RIGHTS LEGEND
  
 Use, reproduction and disclosure by the US Government is
 subject to restrictions as set forth in subparagraphs (a)
 and (c) of the Commercial Computer Software - Restricted
 Rights clause in FAR 52.227-19.
  
 Gaussian, Inc.
 340 Quinnipiac St., Bldg. 40, Wallingford CT 06492
  
  
 ---------------------------------------------------------------
 Warning -- This program may not be used in any manner that
 competes with the business of Gaussian, Inc. or will provide
 assistance to any competitor of Gaussian, Inc.  The licensee
 of this program is prohibited from giving any competitor of
 Gaussian, Inc. access to this program.  By using this program,
 the user acknowledges that Gaussian, Inc. is engaged in the
 business of creating and licensing software in the field of
 computational chemistry and represents and warrants to the
 licensee that it is not a competitor of Gaussian, Inc. and that
 it will not use this program in any manner prohibited above.
 ---------------------------------------------------------------
  

 Cite this work as:
 Gaussian 16, Revision C.01,
 M. J. Frisch, G. W. Trucks, H. B. Schlegel, G. E. Scuseria, 
 M. A. Robb, J. R. Cheeseman, G. Scalmani, V. Barone, 
 G. A. Petersson, H. Nakatsuji, X. Li, M. Caricato, A. V. Marenich, 
 J. Bloino, B. G. Janesko, R. Gomperts, B. Mennucci, H. P. Hratchian, 
 J. V. Ortiz, A. F. Izmaylov, J. L. Sonnenberg, D. Williams-Young, 
 F. Ding, F. Lipparini, F. Egidi, J. Goings, B. Peng, A. Petrone, 
 T. Henderson, D. Ranasinghe, V. G. Zakrzewski, J. Gao, N. Rega, 
 G. Zheng, W. Liang, M. Hada, M. Ehara, K. Toyota, R. Fukuda, 
 J. Hasegawa, M. Ishida, T. Nakajima, Y. Honda, O. Kitao, H. Nakai, 
 T. Vreven, K. Throssell, J. A. Montgomery, Jr., J. E. Peralta, 
 F. Ogliaro, M. J. Bearpark, J. J. Heyd, E. N. Brothers, K. N. Kudin, 
 V. N. Staroverov, T. A. Keith, R. Kobayashi, J. Normand, 
 K. Raghavachari, A. P. Rendell, J. C. Burant, S. S. Iyengar, 
 J. Tomasi, M. Cossi, J. M. Millam, M. Klene, C. Adamo, R. Cammi, 
 J. W. Ochterski, R. L. Martin, K. Morokuma, O. Farkas, 
 J. B. Foresman, and D. J. Fox, Gaussian, Inc., Wallingford CT, 2019.
 
 ******************************************
 Gaussian 16:  ES64L-G16RevC.01  3-Jul-2019
                18-Jul-2022 
 ******************************************
 %mem=8gb
 %nproc=4
 Will use up to    4 processors via shared memory.
 %chk=conf-399.chk
 -------------------------------------------------------------------
 # B3LYP/6-31G* guess=read geom=check nosymm integral(ultrafinegrid)
 -------------------------------------------------------------------
 1/29=2,38=1,172=1/1;
 2/12=2,15=1,40=1/2;
 3/5=1,6=6,7=1,11=2,14=-4,25=1,30=1,74=-5,75=-5,116=-2/1,2,3;
 4/5=1/1;
 5/5=2,38=6/2;
 6/7=2,8=2,9=2,10=2,28=1/1;
 99/5=1,9=1/99;
 ------------------------------------------------------
 Candidate Structure: Conf:399 Charge calc in gas phase
 ------------------------------------------------------
 Structure from the checkpoint file:  "conf-399.chk"
 Charge =  1 Multiplicity = 1
 Redundant internal coordinates found in file.  (old form).
 N,0,-10.9422903589,4.6582620639,4.2523277704
 H,0,-11.2004462032,5.3524966412,3.5455615496
 H,0,-11.4019137958,4.9069404139,5.1418241927
 H,0,-11.2211778851,3.70384663,3.8969490079
 C,0,-9.44726442,4.5246234785,4.4284999043
 H,0,-8.9793441645,5.4420151287,4.0656817862
 C,0,-9.0969956506,3.2942177914,3.5512747069
 C,0,-9.1135875477,4.2922647983,5.9239171722
 H,0,-8.021906917,4.291017646,6.0120179753
 H,0,-9.4550818976,3.2891204007,6.2062274446
 O,0,-10.031714688,2.5555328845,3.2056847499
 C,0,-9.7382126733,5.3387455464,6.8233398654
 C,0,-9.1786366379,6.6206764345,6.933369445
 H,0,-8.2497177995,6.8532122848,6.4167416299
 C,0,-10.9254406209,5.0542112576,7.518052255
 H,0,-11.3440600042,4.0490055017,7.4865493491
 C,0,-9.7914338636,7.593930918,7.7211042364
 H,0,-9.3405472325,8.5779482417,7.8091387621
 C,0,-11.5423545269,6.033414378,8.3041120935
 H,0,-12.4517185718,5.7947395122,8.8475825317
 C,0,-10.9769068054,7.3038837228,8.4037378827
 H,0,-11.4491412032,8.0633431439,9.0194110717
 N,0,-7.812017489,3.1185162807,3.2740320931
 H,0,-7.0720401967,3.7310470449,3.6313431335
 C,0,-7.2539998335,1.9686338548,2.5605418181
 H,0,-7.6614571353,1.0505669252,2.9998515971
 C,0,-5.7338074238,2.0546503861,2.8470978913
 C,0,-7.5746683504,2.0059846186,1.0579698714
 H,0,-7.1525280671,1.1327242691,0.5515602928
 H,0,-7.1577203784,2.9065234063,0.5960926681
 H,0,-8.6572747541,1.9937256601,0.9079616667
 O,0,-5.2748679443,3.0431893011,3.4313153136
 N,0,-4.9991175917,1.021277737,2.4179843723
 H,0,-5.3939420227,0.2518028426,1.8794984815
 C,0,-3.5433413656,0.9784515201,2.4954285397
 H,0,-3.1531194147,1.9694391891,2.2365893617
 C,0,-3.1101439281,-0.0488349164,1.4283108272
 C,0,-3.0482532314,0.5921342055,3.8999661954
 H,0,-1.9542662732,0.5811449186,3.9395370414
 H,0,-3.4148767543,-0.4013839005,4.1773870725
 H,0,-3.4100191778,1.3227028005,4.6281844451
 O,0,-3.9378068469,-0.8091731433,0.9171965437
 N,0,-1.8001826974,-0.0505465594,1.1242170681
 H,0,-1.1331635309,0.5457692867,1.6063728283
 C,0,-1.1965583409,-1.0023553135,0.2036970909
 H,0,-1.6025925962,-1.9979607963,0.4152855088
 C,0,0.310435503,-0.9836936972,0.5147785279
 C,0,-1.5156053924,-0.6438107663,-1.281210501
 H,0,-2.5909097998,-0.4376128219,-1.3072689026
 H,0,-0.9930799527,0.280830446,-1.5476600534
 O,0,0.7861158802,-0.1207357364,1.2666497531
 C,0,-1.1830652845,-1.7403602109,-2.2720595951
 C,0,-0.1737943649,-1.569473629,-3.2343824486
 H,0,0.3660085697,-0.6270325946,-3.2745858391
 C,0,-1.885503189,-2.9549471694,-2.2615925918
 H,0,-2.6896089664,-3.1060112466,-1.5440530441
 C,0,0.1296526735,-2.5757531326,-4.1478005007
 H,0,0.903724126,-2.4403963491,-4.8964323908
 C,0,-1.5882666789,-3.9713862269,-3.1687485443
 H,0,-2.1489146968,-4.9040990993,-3.1463252551
 O,0,-0.2322859007,-4.7348773693,-5.0334765534
 H,0,-0.8099685467,-5.5071353578,-4.9290438231
 C,0,-0.5759431768,-3.7839369608,-4.117523639
 N,0,1.058291384,-1.9453347038,-0.0661413483
 H,0,0.6319334243,-2.5187847008,-0.786009143
 C,0,2.5192474242,-2.0230884062,0.0980280514
 H,0,2.7234402729,-1.6935126322,1.1203442419
 C,0,3.1817061877,-1.0235363074,-0.8854191807
 C,0,2.9888646719,-3.4652892147,-0.1137161724
 H,0,2.3109190772,-4.1235962747,0.4459775587
 H,0,2.8783571758,-3.7066832798,-1.1777162065
 O,0,3.7251112513,-1.4138817381,-1.9349826693
 C,0,4.4392666205,-3.7593955693,0.3233550776
 H,0,5.100616119,-3.0423407949,-0.1824169938
 C,0,4.6410929333,-3.6121412102,1.8395620938
 H,0,3.9896786109,-4.3035374088,2.3896852559
 H,0,5.6759664638,-3.8436114571,2.1148401263
 H,0,4.4317089893,-2.5976324997,2.1974997773
 C,0,4.8426187906,-5.1670158268,-0.1411093031
 H,0,4.2065677274,-5.9310851987,0.3241877064
 H,0,4.7512418297,-5.2714823657,-1.228372766
 H,0,5.8800328486,-5.3884723736,0.1327840729
 N,0,3.0602226685,0.2601322679,-0.5257980736
 H,0,2.5639770132,0.436529378,0.343764419
 C,0,3.3283131289,1.4068714512,-1.3920546715
 H,0,2.9983273882,1.142151158,-2.4001429754
 C,0,4.8299276642,1.7788243498,-1.4159979666
 C,0,2.4855528502,2.6075885767,-0.867773911
 H,0,1.6051176446,2.1961246827,-0.3606250233
 H,0,3.0677468857,3.1433898691,-0.1093372422
 O,0,5.5730496724,1.4891834728,-0.4682374797
 C,0,2.0081396097,3.6020235133,-1.9328357866
 H,0,2.8273131304,3.9890779468,-2.5672109976
 H,0,1.5812745546,4.4897488437,-1.4503750715
 C,0,0.9532893923,3.0194961912,-2.8373054649
 O,0,0.6257789614,1.8440228126,-2.8959895019
 O,0,0.3777537892,3.955994995,-3.6158488867
 N,0,5.2075354176,2.4483297937,-2.5248354032
 H,0,4.4707773297,2.7693706214,-3.1821798443
 C,0,6.194035467,3.5455824875,-2.5464795207
 H,0,6.3497978763,3.8925718404,-1.5185042205
 C,0,5.5114700483,4.7101394393,-3.3899059985
 C,0,7.5597900151,3.2091609094,-3.159174907
 H,0,8.101971138,4.1575144454,-3.1896558287
 H,0,7.412058934,2.9241594842,-4.211065946
 O,0,4.3648231377,4.4141936371,-3.8602304058
 C,0,8.3663799277,2.1281948565,-2.4011809892
 H,0,7.8352301306,1.8607597591,-1.4808860745
 H,0,9.3394342346,2.5211922057,-2.0803898998
 C,0,8.6669160012,0.8668138629,-3.2286024353
 H,0,9.0947324614,0.0726936034,-2.6079170269
 H,0,9.3954392734,1.091985382,-4.0129162176
 N,0,7.5032375742,0.2983198822,-3.9327350609
 H,0,7.2844375657,0.7026440146,-4.8330285947
 N,0,6.585652518,-0.7337354147,-2.0504594174
 H,0,5.7603306819,-1.2349532293,-1.7275751337
 H,0,6.8366172975,0.0190952421,-1.4103594722
 N,0,5.537074547,-0.9350360199,-4.0997929307
 H,0,4.6710414896,-1.1636137108,-3.611892864
 H,0,5.5058316438,-0.778900714,-5.096510095
 C,0,6.5332061468,-0.4189238158,-3.3600129583
 O,0,6.1837952918,5.7391695282,-3.5060888601
 H,0,-0.2475268654,3.4870359486,-4.1998379646
 Recover connectivity data from disk.
                           ----------------------------
                           !    Current Parameters    !
                           ! (Angstroms and Degrees)  !
 --------------------------                            --------------------------
 ! Name  Definition              Value                                          !
 --------------------------------------------------------------------------------
 ! R1    R(1,2)                  1.0238                                         !
 ! R2    R(1,3)                  1.0316                                         !
 ! R3    R(1,4)                  1.0559                                         !
 ! R4    R(1,5)                  1.5113                                         !
 ! R5    R(5,6)                  1.0919                                         !
 ! R6    R(5,7)                  1.5512                                         !
 ! R7    R(5,8)                  1.5497                                         !
 ! R8    R(7,11)                 1.2405                                         !
 ! R9    R(7,23)                 1.3262                                         !
 ! R10   R(8,9)                  1.0952                                         !
 ! R11   R(8,10)                 1.0966                                         !
 ! R12   R(8,12)                 1.5147                                         !
 ! R13   R(12,13)                1.4031                                         !
 ! R14   R(12,15)                1.4047                                         !
 ! R15   R(13,14)                1.0881                                         !
 ! R16   R(13,17)                1.394                                          !
 ! R17   R(15,16)                1.0893                                         !
 ! R18   R(15,19)                1.399                                          !
 ! R19   R(17,18)                1.086                                          !
 ! R20   R(17,21)                1.3984                                         !
 ! R21   R(19,20)                1.0859                                         !
 ! R22   R(19,21)                1.3942                                         !
 ! R23   R(21,22)                1.0857                                         !
 ! R24   R(23,24)                1.0249                                         !
 ! R25   R(23,25)                1.4638                                         !
 ! R26   R(25,26)                1.0963                                         !
 ! R27   R(25,27)                1.5494                                         !
 ! R28   R(25,28)                1.5369                                         !
 ! R29   R(27,32)                1.2366                                         !
 ! R30   R(27,33)                1.3386                                         !
 ! R31   R(28,29)                1.0942                                         !
 ! R32   R(28,30)                1.0946                                         !
 ! R33   R(28,31)                1.093                                          !
 ! R34   R(33,34)                1.0188                                         !
 ! R35   R(33,35)                1.4585                                         !
 ! R36   R(35,36)                1.0961                                         !
 ! R37   R(35,37)                1.5433                                         !
 ! R38   R(35,38)                1.5385                                         !
 ! R39   R(37,42)                1.2347                                         !
 ! R40   R(37,43)                1.3448                                         !
 ! R41   R(38,39)                1.0948                                         !
 ! R42   R(38,40)                1.0947                                         !
 ! R43   R(38,41)                1.0931                                         !
 ! R44   R(43,44)                1.0164                                         !
 ! R45   R(43,45)                1.4552                                         !
 ! R46   R(45,46)                1.0958                                         !
 ! R47   R(45,47)                1.5389                                         !
 ! R48   R(45,48)                1.5605                                         !
 ! R49   R(47,51)                1.2395                                         !
 ! R50   R(47,64)                1.3496                                         !
 ! R51   R(48,49)                1.0952                                         !
 ! R52   R(48,50)                1.095                                          !
 ! R53   R(48,52)                1.5149                                         !
 ! R54   R(52,53)                1.405                                          !
 ! R55   R(52,55)                1.4031                                         !
 ! R56   R(53,54)                1.0868                                         !
 ! R57   R(53,57)                1.3925                                         !
 ! R58   R(55,56)                1.0882                                         !
 ! R59   R(55,59)                1.3944                                         !
 ! R60   R(57,58)                1.0853                                         !
 ! R61   R(57,63)                1.3995                                         !
 ! R62   R(59,60)                1.0885                                         !
 ! R63   R(59,63)                1.4                                            !
 ! R64   R(61,62)                0.9701                                         !
 ! R65   R(61,63)                1.3643                                         !
 ! R66   R(64,65)                1.0143                                         !
 ! R67   R(64,66)                1.4722                                         !
 ! R68   R(66,67)                1.0934                                         !
 ! R69   R(66,68)                1.5508                                         !
 ! R70   R(66,69)                1.5314                                         !
 ! R71   R(68,72)                1.2447                                         !
 ! R72   R(68,83)                1.3386                                         !
 ! R73   R(69,70)                1.0983                                         !
 ! R74   R(69,71)                1.0966                                         !
 ! R75   R(69,73)                1.5431                                         !
 ! R76   R(73,74)                1.0988                                         !
 ! R77   R(73,75)                1.5367                                         !
 ! R78   R(73,79)                1.5362                                         !
 ! R79   R(75,76)                1.0977                                         !
 ! R80   R(75,77)                1.0956                                         !
 ! R81   R(75,78)                1.096                                          !
 ! R82   R(79,80)                1.0977                                         !
 ! R83   R(79,81)                1.0961                                         !
 ! R84   R(79,82)                1.0956                                         !
 ! R85   R(83,84)                1.0166                                         !
 ! R86   R(83,85)                1.4619                                         !
 ! R87   R(85,86)                1.0933                                         !
 ! R88   R(85,87)                1.5472                                         !
 ! R89   R(85,88)                1.5578                                         !
 ! R90   R(87,91)                1.2387                                         !
 ! R91   R(87,98)                1.3492                                         !
 ! R92   R(88,89)                1.0962                                         !
 ! R93   R(88,90)                1.096                                          !
 ! R94   R(88,92)                1.5334                                         !
 ! R95   R(92,93)                1.106                                          !
 ! R96   R(92,94)                1.0968                                         !
 ! R97   R(92,95)                1.5067                                         !
 ! R98   R(95,96)                1.2217                                         !
 ! R99   R(95,97)                1.347                                          !
 ! R100  R(97,123)               0.9757                                         !
 ! R101  R(98,99)                1.0383                                         !
 ! R102  R(98,100)               1.4757                                         !
 ! R103  R(100,101)              1.0961                                         !
 ! R104  R(100,102)              1.5917                                         !
 ! R105  R(100,103)              1.5342                                         !
 ! R106  R(102,106)              1.2742                                         !
 ! R107  R(102,122)              1.2347                                         !
 ! R108  R(103,104)              1.0928                                         !
 ! R109  R(103,105)              1.0998                                         !
 ! R110  R(103,107)              1.5471                                         !
 ! R111  R(107,108)              1.0957                                         !
 ! R112  R(107,109)              1.0974                                         !
 ! R113  R(107,110)              1.5382                                         !
 ! R114  R(110,111)              1.0949                                         !
 ! R115  R(110,112)              1.0939                                         !
 ! R116  R(110,113)              1.4742                                         !
 ! R117  R(113,114)              1.0109                                         !
 ! R118  R(113,121)              1.3354                                         !
 ! R119  R(115,116)              1.0182                                         !
 ! R120  R(115,117)              1.0195                                         !
 ! R121  R(115,121)              1.3479                                         !
 ! R122  R(118,119)              1.02                                           !
 ! R123  R(118,120)              1.0094                                         !
 ! R124  R(118,121)              1.3438                                         !
 ! A1    A(2,1,3)              108.6282                                         !
 ! A2    A(2,1,4)              108.2992                                         !
 ! A3    A(2,1,5)              112.9473                                         !
 ! A4    A(3,1,4)              112.9786                                         !
 ! A5    A(3,1,5)              111.1945                                         !
 ! A6    A(4,1,5)              102.7431                                         !
 ! A7    A(1,5,6)              108.1137                                         !
 ! A8    A(1,5,7)              103.1557                                         !
 ! A9    A(1,5,8)              109.8003                                         !
 ! A10   A(6,5,7)              112.4432                                         !
 ! A11   A(6,5,8)              110.7537                                         !
 ! A12   A(7,5,8)              112.2198                                         !
 ! A13   A(5,7,11)             117.3708                                         !
 ! A14   A(5,7,23)             116.2374                                         !
 ! A15   A(11,7,23)            126.3662                                         !
 ! A16   A(5,8,9)              107.0023                                         !
 ! A17   A(5,8,10)             108.5733                                         !
 ! A18   A(5,8,12)             112.372                                          !
 ! A19   A(9,8,10)             106.7767                                         !
 ! A20   A(9,8,12)             111.3501                                         !
 ! A21   A(10,8,12)            110.5308                                         !
 ! A22   A(8,12,13)            120.887                                          !
 ! A23   A(8,12,15)            120.1508                                         !
 ! A24   A(13,12,15)           118.9063                                         !
 ! A25   A(12,13,14)           119.9024                                         !
 ! A26   A(12,13,17)           120.4567                                         !
 ! A27   A(14,13,17)           119.6302                                         !
 ! A28   A(12,15,16)           119.829                                          !
 ! A29   A(12,15,19)           120.5839                                         !
 ! A30   A(16,15,19)           119.5147                                         !
 ! A31   A(13,17,18)           119.73                                           !
 ! A32   A(13,17,21)           120.2454                                         !
 ! A33   A(18,17,21)           120.023                                          !
 ! A34   A(15,19,20)           119.776                                          !
 ! A35   A(15,19,21)           119.9413                                         !
 ! A36   A(20,19,21)           120.2749                                         !
 ! A37   A(17,21,19)           119.8648                                         !
 ! A38   A(17,21,22)           120.0297                                         !
 ! A39   A(19,21,22)           120.1015                                         !
 ! A40   A(7,23,24)            123.1942                                         !
 ! A41   A(7,23,25)            125.122                                          !
 ! A42   A(24,23,25)           111.357                                          !
 ! A43   A(23,25,26)           108.7134                                         !
 ! A44   A(23,25,27)           103.9029                                         !
 ! A45   A(23,25,28)           112.2048                                         !
 ! A46   A(26,25,27)           109.6972                                         !
 ! A47   A(26,25,28)           109.5473                                         !
 ! A48   A(27,25,28)           112.5941                                         !
 ! A49   A(25,27,32)           119.7298                                         !
 ! A50   A(25,27,33)           115.8732                                         !
 ! A51   A(32,27,33)           124.395                                          !
 ! A52   A(25,28,29)           110.6463                                         !
 ! A53   A(25,28,30)           110.6747                                         !
 ! A54   A(25,28,31)           109.9117                                         !
 ! A55   A(29,28,30)           108.3216                                         !
 ! A56   A(29,28,31)           108.0387                                         !
 ! A57   A(30,28,31)           109.1839                                         !
 ! A58   A(27,33,34)           122.6706                                         !
 ! A59   A(27,33,35)           123.6073                                         !
 ! A60   A(34,33,35)           113.1235                                         !
 ! A61   A(33,35,36)           108.4381                                         !
 ! A62   A(33,35,37)           105.2488                                         !
 ! A63   A(33,35,38)           112.151                                          !
 ! A64   A(36,35,37)           109.7925                                         !
 ! A65   A(36,35,38)           109.1504                                         !
 ! A66   A(37,35,38)           111.9484                                         !
 ! A67   A(35,37,42)           120.531                                          !
 ! A68   A(35,37,43)           115.5077                                         !
 ! A69   A(42,37,43)           123.9591                                         !
 ! A70   A(35,38,39)           110.9212                                         !
 ! A71   A(35,38,40)           110.5763                                         !
 ! A72   A(35,38,41)           109.5028                                         !
 ! A73   A(39,38,40)           108.4448                                         !
 ! A74   A(39,38,41)           108.2609                                         !
 ! A75   A(40,38,41)           109.0799                                         !
 ! A76   A(37,43,44)           122.0909                                         !
 ! A77   A(37,43,45)           123.225                                          !
 ! A78   A(44,43,45)           114.3062                                         !
 ! A79   A(43,45,46)           108.5668                                         !
 ! A80   A(43,45,47)           105.6882                                         !
 ! A81   A(43,45,48)           111.52                                           !
 ! A82   A(46,45,47)           109.5623                                         !
 ! A83   A(46,45,48)           108.4643                                         !
 ! A84   A(47,45,48)           112.9404                                         !
 ! A85   A(45,47,51)           120.4572                                         !
 ! A86   A(45,47,64)           116.5505                                         !
 ! A87   A(51,47,64)           122.9921                                         !
 ! A88   A(45,48,49)           105.4637                                         !
 ! A89   A(45,48,50)           109.1471                                         !
 ! A90   A(45,48,52)           114.2799                                         !
 ! A91   A(49,48,50)           107.6832                                         !
 ! A92   A(49,48,52)           109.6487                                         !
 ! A93   A(50,48,52)           110.3245                                         !
 ! A94   A(48,52,53)           121.176                                          !
 ! A95   A(48,52,55)           120.7854                                         !
 ! A96   A(53,52,55)           118.0362                                         !
 ! A97   A(52,53,54)           119.1833                                         !
 ! A98   A(52,53,57)           121.1948                                         !
 ! A99   A(54,53,57)           119.6134                                         !
 ! A100  A(52,55,56)           119.6694                                         !
 ! A101  A(52,55,59)           121.2932                                         !
 ! A102  A(56,55,59)           119.0301                                         !
 ! A103  A(53,57,58)           121.182                                          !
 ! A104  A(53,57,63)           119.9878                                         !
 ! A105  A(58,57,63)           118.8282                                         !
 ! A106  A(55,59,60)           120.0941                                         !
 ! A107  A(55,59,63)           119.8283                                         !
 ! A108  A(60,59,63)           120.0744                                         !
 ! A109  A(62,61,63)           109.427                                          !
 ! A110  A(57,63,59)           119.6575                                         !
 ! A111  A(57,63,61)           117.4011                                         !
 ! A112  A(59,63,61)           122.9414                                         !
 ! A113  A(47,64,65)           118.3846                                         !
 ! A114  A(47,64,66)           122.6508                                         !
 ! A115  A(65,64,66)           117.8016                                         !
 ! A116  A(64,66,67)           105.8831                                         !
 ! A117  A(64,66,68)           108.611                                          !
 ! A118  A(64,66,69)           109.7931                                         !
 ! A119  A(67,66,68)           108.5949                                         !
 ! A120  A(67,66,69)           110.8473                                         !
 ! A121  A(68,66,69)           112.8484                                         !
 ! A122  A(66,68,72)           121.2711                                         !
 ! A123  A(66,68,83)           114.1381                                         !
 ! A124  A(72,68,83)           124.534                                          !
 ! A125  A(66,69,70)           107.7412                                         !
 ! A126  A(66,69,71)           108.0922                                         !
 ! A127  A(66,69,73)           115.3756                                         !
 ! A128  A(70,69,71)           107.4757                                         !
 ! A129  A(70,69,73)           108.7602                                         !
 ! A130  A(71,69,73)           109.1218                                         !
 ! A131  A(69,73,74)           108.1178                                         !
 ! A132  A(69,73,75)           112.6225                                         !
 ! A133  A(69,73,79)           109.6212                                         !
 ! A134  A(74,73,75)           108.215                                          !
 ! A135  A(74,73,79)           107.5035                                         !
 ! A136  A(75,73,79)           110.5884                                         !
 ! A137  A(73,75,76)           110.8659                                         !
 ! A138  A(73,75,77)           110.5934                                         !
 ! A139  A(73,75,78)           112.6969                                         !
 ! A140  A(76,75,77)           107.5505                                         !
 ! A141  A(76,75,78)           107.8171                                         !
 ! A142  A(77,75,78)           107.0956                                         !
 ! A143  A(73,79,80)           110.9481                                         !
 ! A144  A(73,79,81)           111.4299                                         !
 ! A145  A(73,79,82)           110.9937                                         !
 ! A146  A(80,79,81)           107.8084                                         !
 ! A147  A(80,79,82)           107.5788                                         !
 ! A148  A(81,79,82)           107.9184                                         !
 ! A149  A(68,83,84)           116.1346                                         !
 ! A150  A(68,83,85)           125.1954                                         !
 ! A151  A(84,83,85)           117.4023                                         !
 ! A152  A(83,85,86)           107.5233                                         !
 ! A153  A(83,85,87)           112.0689                                         !
 ! A154  A(83,85,88)           107.8159                                         !
 ! A155  A(86,85,87)           109.6875                                         !
 ! A156  A(86,85,88)           109.4917                                         !
 ! A157  A(87,85,88)           110.1795                                         !
 ! A158  A(85,87,91)           120.944                                          !
 ! A159  A(85,87,98)           113.8063                                         !
 ! A160  A(91,87,98)           125.2359                                         !
 ! A161  A(85,88,89)           107.5111                                         !
 ! A162  A(85,88,90)           108.8031                                         !
 ! A163  A(85,88,92)           115.756                                          !
 ! A164  A(89,88,90)           106.8571                                         !
 ! A165  A(89,88,92)           108.3433                                         !
 ! A166  A(90,88,92)           109.2079                                         !
 ! A167  A(88,92,93)           113.2503                                         !
 ! A168  A(88,92,94)           109.9096                                         !
 ! A169  A(88,92,95)           112.5945                                         !
 ! A170  A(93,92,94)           104.9101                                         !
 ! A171  A(93,92,95)           108.0306                                         !
 ! A172  A(94,92,95)           107.7283                                         !
 ! A173  A(92,95,96)           126.0534                                         !
 ! A174  A(92,95,97)           112.1667                                         !
 ! A175  A(96,95,97)           121.7798                                         !
 ! A176  A(95,97,123)          106.5951                                         !
 ! A177  A(87,98,99)           118.3701                                         !
 ! A178  A(87,98,100)          124.6196                                         !
 ! A179  A(99,98,100)          103.602                                          !
 ! A180  A(98,100,101)         108.4596                                         !
 ! A181  A(98,100,102)         105.3741                                         !
 ! A182  A(98,100,103)         115.9706                                         !
 ! A183  A(101,100,102)        109.0437                                         !
 ! A184  A(101,100,103)        108.5088                                         !
 ! A185  A(102,100,103)        109.3029                                         !
 ! A186  A(100,102,106)        114.303                                          !
 ! A187  A(100,102,122)        115.2227                                         !
 ! A188  A(106,102,122)        130.4562                                         !
 ! A189  A(100,103,104)        105.2183                                         !
 ! A190  A(100,103,105)        108.615                                          !
 ! A191  A(100,103,107)        114.9385                                         !
 ! A192  A(104,103,105)        105.3581                                         !
 ! A193  A(104,103,107)        111.1821                                         !
 ! A194  A(105,103,107)        110.951                                          !
 ! A195  A(103,107,108)        109.2267                                         !
 ! A196  A(103,107,109)        110.8112                                         !
 ! A197  A(103,107,110)        114.2847                                         !
 ! A198  A(108,107,109)        105.7669                                         !
 ! A199  A(108,107,110)        110.265                                          !
 ! A200  A(109,107,110)        106.1219                                         !
 ! A201  A(107,110,111)        111.4788                                         !
 ! A202  A(107,110,112)        110.3044                                         !
 ! A203  A(107,110,113)        114.7681                                         !
 ! A204  A(111,110,112)        107.1883                                         !
 ! A205  A(111,110,113)        107.4277                                         !
 ! A206  A(112,110,113)        105.2264                                         !
 ! A207  A(110,113,114)        116.2323                                         !
 ! A208  A(110,113,121)        125.1461                                         !
 ! A209  A(114,113,121)        116.0748                                         !
 ! A210  A(116,115,117)        111.342                                          !
 ! A211  A(116,115,121)        113.0508                                         !
 ! A212  A(117,115,121)        116.5574                                         !
 ! A213  A(119,118,120)        118.7343                                         !
 ! A214  A(119,118,121)        116.8803                                         !
 ! A215  A(120,118,121)        120.4733                                         !
 ! A216  A(113,121,115)        120.9203                                         !
 ! A217  A(113,121,118)        120.5713                                         !
 ! A218  A(115,121,118)        118.2931                                         !
 ! D1    D(2,1,5,6)             21.86                                           !
 ! D2    D(2,1,5,7)            -97.4121                                         !
 ! D3    D(2,1,5,8)            142.7924                                         !
 ! D4    D(3,1,5,6)           -100.5664                                         !
 ! D5    D(3,1,5,7)            140.1615                                         !
 ! D6    D(3,1,5,8)             20.366                                          !
 ! D7    D(4,1,5,6)            138.3039                                         !
 ! D8    D(4,1,5,7)             19.0318                                         !
 ! D9    D(4,1,5,8)           -100.7638                                         !
 ! D10   D(1,5,7,11)           -16.329                                          !
 ! D11   D(1,5,7,23)           165.391                                          !
 ! D12   D(6,5,7,11)          -132.5601                                         !
 ! D13   D(6,5,7,23)            49.16                                           !
 ! D14   D(8,5,7,11)           101.7869                                         !
 ! D15   D(8,5,7,23)           -76.493                                          !
 ! D16   D(1,5,8,9)           -175.0925                                         !
 ! D17   D(1,5,8,10)            69.9994                                         !
 ! D18   D(1,5,8,12)           -52.5755                                         !
 ! D19   D(6,5,8,9)            -55.7652                                         !
 ! D20   D(6,5,8,10)          -170.6733                                         !
 ! D21   D(6,5,8,12)            66.7519                                         !
 ! D22   D(7,5,8,9)             70.8048                                         !
 ! D23   D(7,5,8,10)           -44.1034                                         !
 ! D24   D(7,5,8,12)          -166.6782                                         !
 ! D25   D(5,7,23,24)            1.8225                                         !
 ! D26   D(5,7,23,25)          174.6838                                         !
 ! D27   D(11,7,23,24)        -176.2805                                         !
 ! D28   D(11,7,23,25)          -3.4192                                         !
 ! D29   D(5,8,12,13)          -77.5687                                         !
 ! D30   D(5,8,12,15)           99.6803                                         !
 ! D31   D(9,8,12,13)           42.4579                                         !
 ! D32   D(9,8,12,15)         -140.2931                                         !
 ! D33   D(10,8,12,13)         160.9683                                         !
 ! D34   D(10,8,12,15)         -21.7827                                         !
 ! D35   D(8,12,13,14)          -3.8285                                         !
 ! D36   D(8,12,13,17)         177.3671                                         !
 ! D37   D(15,12,13,14)        178.8888                                         !
 ! D38   D(15,12,13,17)          0.0845                                         !
 ! D39   D(8,12,15,16)           5.9749                                         !
 ! D40   D(8,12,15,19)        -177.1347                                         !
 ! D41   D(13,12,15,16)       -176.7219                                         !
 ! D42   D(13,12,15,19)          0.1685                                         !
 ! D43   D(12,13,17,18)        179.134                                          !
 ! D44   D(12,13,17,21)         -0.4146                                         !
 ! D45   D(14,13,17,18)          0.3263                                         !
 ! D46   D(14,13,17,21)       -179.2222                                         !
 ! D47   D(12,15,19,20)       -179.0783                                         !
 ! D48   D(12,15,19,21)         -0.092                                          !
 ! D49   D(16,15,19,20)         -2.1781                                         !
 ! D50   D(16,15,19,21)        176.8082                                         !
 ! D51   D(13,17,21,19)          0.4908                                         !
 ! D52   D(13,17,21,22)        179.7605                                         !
 ! D53   D(18,17,21,19)       -179.0565                                         !
 ! D54   D(18,17,21,22)          0.2133                                         !
 ! D55   D(15,19,21,17)         -0.2377                                         !
 ! D56   D(15,19,21,22)       -179.5069                                         !
 ! D57   D(20,19,21,17)        178.7435                                         !
 ! D58   D(20,19,21,22)         -0.5257                                         !
 ! D59   D(7,23,25,26)         -48.085                                          !
 ! D60   D(7,23,25,27)        -164.8576                                         !
 ! D61   D(7,23,25,28)          73.2357                                         !
 ! D62   D(24,23,25,26)        125.5039                                         !
 ! D63   D(24,23,25,27)          8.7313                                         !
 ! D64   D(24,23,25,28)       -113.1754                                         !
 ! D65   D(23,25,27,32)         -7.3899                                         !
 ! D66   D(23,25,27,33)        173.1035                                         !
 ! D67   D(26,25,27,32)       -123.4729                                         !
 ! D68   D(26,25,27,33)         57.0204                                         !
 ! D69   D(28,25,27,32)        114.2578                                         !
 ! D70   D(28,25,27,33)        -65.2488                                         !
 ! D71   D(23,25,28,29)       -179.5916                                         !
 ! D72   D(23,25,28,30)         60.3264                                         !
 ! D73   D(23,25,28,31)        -60.3536                                         !
 ! D74   D(26,25,28,29)        -58.7508                                         !
 ! D75   D(26,25,28,30)       -178.8327                                         !
 ! D76   D(26,25,28,31)         60.4873                                         !
 ! D77   D(27,25,28,29)         63.603                                          !
 ! D78   D(27,25,28,30)        -56.479                                          !
 ! D79   D(27,25,28,31)       -177.159                                          !
 ! D80   D(25,27,33,34)          4.0726                                         !
 ! D81   D(25,27,33,35)        174.5865                                         !
 ! D82   D(32,27,33,34)       -175.4082                                         !
 ! D83   D(32,27,33,35)         -4.8943                                         !
 ! D84   D(27,33,35,36)        -40.3716                                         !
 ! D85   D(27,33,35,37)       -157.8137                                         !
 ! D86   D(27,33,35,38)         80.2308                                         !
 ! D87   D(34,33,35,36)        130.9519                                         !
 ! D88   D(34,33,35,37)         13.5099                                         !
 ! D89   D(34,33,35,38)       -108.4456                                         !
 ! D90   D(33,35,37,42)        -13.9173                                         !
 ! D91   D(33,35,37,43)        166.607                                          !
 ! D92   D(36,35,37,42)       -130.4373                                         !
 ! D93   D(36,35,37,43)         50.0871                                         !
 ! D94   D(38,35,37,42)        108.1694                                         !
 ! D95   D(38,35,37,43)        -71.3063                                         !
 ! D96   D(33,35,38,39)       -179.1253                                         !
 ! D97   D(33,35,38,40)         60.5224                                         !
 ! D98   D(33,35,38,41)        -59.7009                                         !
 ! D99   D(36,35,38,39)        -58.9361                                         !
 ! D100  D(36,35,38,40)       -179.2883                                         !
 ! D101  D(36,35,38,41)         60.4884                                         !
 ! D102  D(37,35,38,39)         62.8267                                         !
 ! D103  D(37,35,38,40)        -57.5256                                         !
 ! D104  D(37,35,38,41)       -177.7488                                         !
 ! D105  D(35,37,43,44)          3.5764                                         !
 ! D106  D(35,37,43,45)        176.114                                          !
 ! D107  D(42,37,43,44)       -175.8791                                         !
 ! D108  D(42,37,43,45)         -3.3415                                         !
 ! D109  D(37,43,45,46)        -43.2176                                         !
 ! D110  D(37,43,45,47)       -160.6837                                         !
 ! D111  D(37,43,45,48)         76.2272                                         !
 ! D112  D(44,43,45,46)        129.848                                          !
 ! D113  D(44,43,45,47)         12.3819                                         !
 ! D114  D(44,43,45,48)       -110.7072                                         !
 ! D115  D(43,45,47,51)        -10.1236                                         !
 ! D116  D(43,45,47,64)        169.6824                                         !
 ! D117  D(46,45,47,51)       -126.9182                                         !
 ! D118  D(46,45,47,64)         52.8878                                         !
 ! D119  D(48,45,47,51)        112.0589                                         !
 ! D120  D(48,45,47,64)        -68.1351                                         !
 ! D121  D(43,45,48,49)        -46.8537                                         !
 ! D122  D(43,45,48,50)         68.5929                                         !
 ! D123  D(43,45,48,52)       -167.3529                                         !
 ! D124  D(46,45,48,49)         72.6518                                         !
 ! D125  D(46,45,48,50)       -171.9016                                         !
 ! D126  D(46,45,48,52)        -47.8474                                         !
 ! D127  D(47,45,48,49)       -165.7038                                         !
 ! D128  D(47,45,48,50)        -50.2572                                         !
 ! D129  D(47,45,48,52)         73.797                                          !
 ! D130  D(45,47,64,65)         10.2464                                         !
 ! D131  D(45,47,64,66)        177.6397                                         !
 ! D132  D(51,47,64,65)       -169.953                                          !
 ! D133  D(51,47,64,66)         -2.5597                                         !
 ! D134  D(45,48,52,53)       -114.2216                                         !
 ! D135  D(45,48,52,55)         66.354                                          !
 ! D136  D(49,48,52,53)        127.6373                                         !
 ! D137  D(49,48,52,55)        -51.7871                                         !
 ! D138  D(50,48,52,53)          9.2001                                         !
 ! D139  D(50,48,52,55)       -170.2244                                         !
 ! D140  D(48,52,53,54)         -0.8835                                         !
 ! D141  D(48,52,53,57)       -179.8173                                         !
 ! D142  D(55,52,53,54)        178.5563                                         !
 ! D143  D(55,52,53,57)         -0.3774                                         !
 ! D144  D(48,52,55,56)          0.9899                                         !
 ! D145  D(48,52,55,59)        179.9973                                         !
 ! D146  D(53,52,55,56)       -178.4523                                         !
 ! D147  D(53,52,55,59)          0.5552                                         !
 ! D148  D(52,53,57,58)        179.4843                                         !
 ! D149  D(52,53,57,63)          0.0026                                         !
 ! D150  D(54,53,57,58)          0.5551                                         !
 ! D151  D(54,53,57,63)       -178.9267                                         !
 ! D152  D(52,55,59,60)       -179.7034                                         !
 ! D153  D(52,55,59,63)         -0.3564                                         !
 ! D154  D(56,55,59,60)         -0.6897                                         !
 ! D155  D(56,55,59,63)        178.6572                                         !
 ! D156  D(53,57,63,59)          0.2074                                         !
 ! D157  D(53,57,63,61)       -179.7838                                         !
 ! D158  D(58,57,63,59)       -179.2865                                         !
 ! D159  D(58,57,63,61)          0.7222                                         !
 ! D160  D(55,59,63,57)         -0.0333                                         !
 ! D161  D(55,59,63,61)        179.9574                                         !
 ! D162  D(60,59,63,57)        179.3138                                         !
 ! D163  D(60,59,63,61)         -0.6955                                         !
 ! D164  D(62,61,63,57)       -178.0999                                         !
 ! D165  D(62,61,63,59)          1.9091                                         !
 ! D166  D(47,64,66,67)         35.2424                                         !
 ! D167  D(47,64,66,68)        -81.2222                                         !
 ! D168  D(47,64,66,69)        154.9542                                         !
 ! D169  D(65,64,66,67)       -157.2949                                         !
 ! D170  D(65,64,66,68)         86.2406                                         !
 ! D171  D(65,64,66,69)        -37.5831                                         !
 ! D172  D(64,66,68,72)       -103.574                                          !
 ! D173  D(64,66,68,83)         73.8018                                         !
 ! D174  D(67,66,68,72)        141.719                                          !
 ! D175  D(67,66,68,83)        -40.9052                                         !
 ! D176  D(69,66,68,72)         18.4062                                         !
 ! D177  D(69,66,68,83)       -164.218                                          !
 ! D178  D(64,66,69,70)        -45.5786                                         !
 ! D179  D(64,66,69,71)         70.2842                                         !
 ! D180  D(64,66,69,73)       -167.2787                                         !
 ! D181  D(67,66,69,70)         71.055                                          !
 ! D182  D(67,66,69,71)       -173.0822                                         !
 ! D183  D(67,66,69,73)        -50.6451                                         !
 ! D184  D(68,66,69,70)       -166.8907                                         !
 ! D185  D(68,66,69,71)        -51.0279                                         !
 ! D186  D(68,66,69,73)         71.4092                                         !
 ! D187  D(66,68,83,84)          0.6378                                         !
 ! D188  D(66,68,83,85)       -166.1129                                         !
 ! D189  D(72,68,83,84)        177.915                                          !
 ! D190  D(72,68,83,85)         11.1643                                         !
 ! D191  D(66,69,73,74)        -54.4222                                         !
 ! D192  D(66,69,73,75)         65.0929                                         !
 ! D193  D(66,69,73,79)       -171.3333                                         !
 ! D194  D(70,69,73,74)       -175.5723                                         !
 ! D195  D(70,69,73,75)        -56.0572                                         !
 ! D196  D(70,69,73,79)         67.5166                                         !
 ! D197  D(71,69,73,74)         67.4636                                         !
 ! D198  D(71,69,73,75)       -173.0213                                         !
 ! D199  D(71,69,73,79)        -49.4475                                         !
 ! D200  D(69,73,75,76)         59.8828                                         !
 ! D201  D(69,73,75,77)        179.0897                                         !
 ! D202  D(69,73,75,78)        -61.0724                                         !
 ! D203  D(74,73,75,76)        179.3415                                         !
 ! D204  D(74,73,75,77)        -61.4515                                         !
 ! D205  D(74,73,75,78)         58.3863                                         !
 ! D206  D(79,73,75,76)        -63.1521                                         !
 ! D207  D(79,73,75,77)         56.0548                                         !
 ! D208  D(79,73,75,78)        175.8927                                         !
 ! D209  D(69,73,79,80)        -62.0749                                         !
 ! D210  D(69,73,79,81)         58.0615                                         !
 ! D211  D(69,73,79,82)        178.3681                                         !
 ! D212  D(74,73,79,80)       -179.3716                                         !
 ! D213  D(74,73,79,81)        -59.2352                                         !
 ! D214  D(74,73,79,82)         61.0714                                         !
 ! D215  D(75,73,79,80)         62.6858                                         !
 ! D216  D(75,73,79,81)       -177.1778                                         !
 ! D217  D(75,73,79,82)        -56.8712                                         !
 ! D218  D(68,83,85,86)         36.5432                                         !
 ! D219  D(68,83,85,87)        -84.0691                                         !
 ! D220  D(68,83,85,88)        154.5129                                         !
 ! D221  D(84,83,85,86)       -130.056                                          !
 ! D222  D(84,83,85,87)        109.3316                                         !
 ! D223  D(84,83,85,88)        -12.0863                                         !
 ! D224  D(83,85,87,91)        -25.0684                                         !
 ! D225  D(83,85,87,98)        156.216                                          !
 ! D226  D(86,85,87,91)       -144.4177                                         !
 ! D227  D(86,85,87,98)         36.8667                                         !
 ! D228  D(88,85,87,91)         94.9808                                         !
 ! D229  D(88,85,87,98)        -83.7348                                         !
 ! D230  D(83,85,88,89)        -27.1481                                         !
 ! D231  D(83,85,88,90)         88.2337                                         !
 ! D232  D(83,85,88,92)       -148.3884                                         !
 ! D233  D(86,85,88,89)         89.5467                                         !
 ! D234  D(86,85,88,90)       -155.0715                                         !
 ! D235  D(86,85,88,92)        -31.6937                                         !
 ! D236  D(87,85,88,89)       -149.7342                                         !
 ! D237  D(87,85,88,90)        -34.3525                                         !
 ! D238  D(87,85,88,92)         89.0254                                         !
 ! D239  D(85,87,98,99)          8.4097                                         !
 ! D240  D(85,87,98,100)       142.6438                                         !
 ! D241  D(91,87,98,99)       -170.2416                                         !
 ! D242  D(91,87,98,100)       -36.0074                                         !
 ! D243  D(85,88,92,93)        -53.216                                          !
 ! D244  D(85,88,92,94)       -170.1817                                         !
 ! D245  D(85,88,92,95)         69.7187                                         !
 ! D246  D(89,88,92,93)       -174.0086                                         !
 ! D247  D(89,88,92,94)         69.0257                                         !
 ! D248  D(89,88,92,95)        -51.0739                                         !
 ! D249  D(90,88,92,93)         69.9493                                         !
 ! D250  D(90,88,92,94)        -47.0163                                         !
 ! D251  D(90,88,92,95)       -167.116                                          !
 ! D252  D(88,92,95,96)        -10.7558                                         !
 ! D253  D(88,92,95,97)        169.4034                                         !
 ! D254  D(93,92,95,96)        115.0548                                         !
 ! D255  D(93,92,95,97)        -64.7861                                         !
 ! D256  D(94,92,95,96)       -132.1062                                         !
 ! D257  D(94,92,95,97)         48.0529                                         !
 ! D258  D(92,95,97,123)       176.7219                                         !
 ! D259  D(96,95,97,123)        -3.1268                                         !
 ! D260  D(87,98,100,101)      -15.0556                                         !
 ! D261  D(87,98,100,102)     -131.7056                                         !
 ! D262  D(87,98,100,103)      107.2788                                         !
 ! D263  D(99,98,100,101)      124.5057                                         !
 ! D264  D(99,98,100,102)        7.8557                                         !
 ! D265  D(99,98,100,103)     -113.1599                                         !
 ! D266  D(98,100,102,106)      -2.4171                                         !
 ! D267  D(98,100,102,122)     178.966                                          !
 ! D268  D(101,100,102,106)   -118.6686                                         !
 ! D269  D(101,100,102,122)     62.7146                                         !
 ! D270  D(103,100,102,106)    122.8591                                         !
 ! D271  D(103,100,102,122)    -55.7577                                         !
 ! D272  D(98,100,103,104)     173.7807                                         !
 ! D273  D(98,100,103,105)      61.3691                                         !
 ! D274  D(98,100,103,107)     -63.5718                                         !
 ! D275  D(101,100,103,104)    -63.9109                                         !
 ! D276  D(101,100,103,105)   -176.3226                                         !
 ! D277  D(101,100,103,107)     58.7366                                         !
 ! D278  D(102,100,103,104)     54.8944                                         !
 ! D279  D(102,100,103,105)    -57.5172                                         !
 ! D280  D(102,100,103,107)    177.5419                                         !
 ! D281  D(100,103,107,108)     -5.4808                                         !
 ! D282  D(100,103,107,109)   -121.6115                                         !
 ! D283  D(100,103,107,110)    118.5606                                         !
 ! D284  D(104,103,107,108)    113.9033                                         !
 ! D285  D(104,103,107,109)     -2.2274                                         !
 ! D286  D(104,103,107,110)   -122.0553                                         !
 ! D287  D(105,103,107,108)   -129.191                                          !
 ! D288  D(105,103,107,109)    114.6783                                         !
 ! D289  D(105,103,107,110)     -5.1496                                         !
 ! D290  D(103,107,110,111)   -170.9133                                         !
 ! D291  D(103,107,110,112)     70.1269                                         !
 ! D292  D(103,107,110,113)    -48.5009                                         !
 ! D293  D(108,107,110,111)    -47.4294                                         !
 ! D294  D(108,107,110,112)   -166.3892                                         !
 ! D295  D(108,107,110,113)     74.983                                          !
 ! D296  D(109,107,110,111)     66.6644                                         !
 ! D297  D(109,107,110,112)    -52.2954                                         !
 ! D298  D(109,107,110,113)   -170.9231                                         !
 ! D299  D(107,110,113,114)     84.6184                                         !
 ! D300  D(107,110,113,121)    -76.4976                                         !
 ! D301  D(111,110,113,114)   -150.8063                                         !
 ! D302  D(111,110,113,121)     48.0777                                         !
 ! D303  D(112,110,113,114)    -36.8247                                         !
 ! D304  D(112,110,113,121)    162.0594                                         !
 ! D305  D(110,113,121,115)     -3.0043                                         !
 ! D306  D(110,113,121,118)   -177.5822                                         !
 ! D307  D(114,113,121,115)   -164.1467                                         !
 ! D308  D(114,113,121,118)     21.2754                                         !
 ! D309  D(116,115,121,113)    176.6164                                         !
 ! D310  D(116,115,121,118)     -8.685                                          !
 ! D311  D(117,115,121,113)     45.7076                                         !
 ! D312  D(117,115,121,118)   -139.5938                                         !
 ! D313  D(119,118,121,113)   -158.0525                                         !
 ! D314  D(119,118,121,115)     27.2297                                         !
 ! D315  D(120,118,121,113)     -0.5887                                         !
 ! D316  D(120,118,121,115)   -175.3065                                         !
 --------------------------------------------------------------------------------
 Symmetry turned off by external request.
 Stoichiometry    C41H61N10O11(1+)
 Framework group  C1[X(C41H61N10O11)]
 Deg. of freedom   363
 Full point group                 C1      NOp   1
                          Input orientation:                          
 ---------------------------------------------------------------------
 Center     Atomic      Atomic             Coordinates (Angstroms)
 Number     Number       Type             X           Y           Z
 ---------------------------------------------------------------------
      1          7           0      -10.942290    4.658262    4.252328
      2          1           0      -11.200446    5.352497    3.545562
      3          1           0      -11.401914    4.906940    5.141824
      4          1           0      -11.221178    3.703847    3.896949
      5          6           0       -9.447264    4.524623    4.428500
      6          1           0       -8.979344    5.442015    4.065682
      7          6           0       -9.096996    3.294218    3.551275
      8          6           0       -9.113588    4.292265    5.923917
      9          1           0       -8.021907    4.291018    6.012018
     10          1           0       -9.455082    3.289120    6.206227
     11          8           0      -10.031715    2.555533    3.205685
     12          6           0       -9.738213    5.338746    6.823340
     13          6           0       -9.178637    6.620676    6.933369
     14          1           0       -8.249718    6.853212    6.416742
     15          6           0      -10.925441    5.054211    7.518052
     16          1           0      -11.344060    4.049006    7.486549
     17          6           0       -9.791434    7.593931    7.721104
     18          1           0       -9.340547    8.577948    7.809139
     19          6           0      -11.542355    6.033414    8.304112
     20          1           0      -12.451719    5.794740    8.847583
     21          6           0      -10.976907    7.303884    8.403738
     22          1           0      -11.449141    8.063343    9.019411
     23          7           0       -7.812017    3.118516    3.274032
     24          1           0       -7.072040    3.731047    3.631343
     25          6           0       -7.254000    1.968634    2.560542
     26          1           0       -7.661457    1.050567    2.999852
     27          6           0       -5.733807    2.054650    2.847098
     28          6           0       -7.574668    2.005985    1.057970
     29          1           0       -7.152528    1.132724    0.551560
     30          1           0       -7.157720    2.906523    0.596093
     31          1           0       -8.657275    1.993726    0.907962
     32          8           0       -5.274868    3.043189    3.431315
     33          7           0       -4.999118    1.021278    2.417984
     34          1           0       -5.393942    0.251803    1.879498
     35          6           0       -3.543341    0.978452    2.495429
     36          1           0       -3.153119    1.969439    2.236589
     37          6           0       -3.110144   -0.048835    1.428311
     38          6           0       -3.048253    0.592134    3.899966
     39          1           0       -1.954266    0.581145    3.939537
     40          1           0       -3.414877   -0.401384    4.177387
     41          1           0       -3.410019    1.322703    4.628184
     42          8           0       -3.937807   -0.809173    0.917197
     43          7           0       -1.800183   -0.050547    1.124217
     44          1           0       -1.133164    0.545769    1.606373
     45          6           0       -1.196558   -1.002355    0.203697
     46          1           0       -1.602593   -1.997961    0.415286
     47          6           0        0.310436   -0.983694    0.514779
     48          6           0       -1.515605   -0.643811   -1.281211
     49          1           0       -2.590910   -0.437613   -1.307269
     50          1           0       -0.993080    0.280830   -1.547660
     51          8           0        0.786116   -0.120736    1.266650
     52          6           0       -1.183065   -1.740360   -2.272060
     53          6           0       -0.173794   -1.569474   -3.234382
     54          1           0        0.366009   -0.627033   -3.274586
     55          6           0       -1.885503   -2.954947   -2.261593
     56          1           0       -2.689609   -3.106011   -1.544053
     57          6           0        0.129653   -2.575753   -4.147801
     58          1           0        0.903724   -2.440396   -4.896432
     59          6           0       -1.588267   -3.971386   -3.168749
     60          1           0       -2.148915   -4.904099   -3.146325
     61          8           0       -0.232286   -4.734877   -5.033477
     62          1           0       -0.809969   -5.507135   -4.929044
     63          6           0       -0.575943   -3.783937   -4.117524
     64          7           0        1.058291   -1.945335   -0.066141
     65          1           0        0.631933   -2.518785   -0.786009
     66          6           0        2.519247   -2.023088    0.098028
     67          1           0        2.723440   -1.693513    1.120344
     68          6           0        3.181706   -1.023536   -0.885419
     69          6           0        2.988865   -3.465289   -0.113716
     70          1           0        2.310919   -4.123596    0.445978
     71          1           0        2.878357   -3.706683   -1.177716
     72          8           0        3.725111   -1.413882   -1.934983
     73          6           0        4.439267   -3.759396    0.323355
     74          1           0        5.100616   -3.042341   -0.182417
     75          6           0        4.641093   -3.612141    1.839562
     76          1           0        3.989679   -4.303537    2.389685
     77          1           0        5.675966   -3.843611    2.114840
     78          1           0        4.431709   -2.597632    2.197500
     79          6           0        4.842619   -5.167016   -0.141109
     80          1           0        4.206568   -5.931085    0.324188
     81          1           0        4.751242   -5.271482   -1.228373
     82          1           0        5.880033   -5.388472    0.132784
     83          7           0        3.060223    0.260132   -0.525798
     84          1           0        2.563977    0.436529    0.343764
     85          6           0        3.328313    1.406871   -1.392055
     86          1           0        2.998327    1.142151   -2.400143
     87          6           0        4.829928    1.778824   -1.415998
     88          6           0        2.485553    2.607589   -0.867774
     89          1           0        1.605118    2.196125   -0.360625
     90          1           0        3.067747    3.143390   -0.109337
     91          8           0        5.573050    1.489183   -0.468237
     92          6           0        2.008140    3.602024   -1.932836
     93          1           0        2.827313    3.989078   -2.567211
     94          1           0        1.581275    4.489749   -1.450375
     95          6           0        0.953289    3.019496   -2.837305
     96          8           0        0.625779    1.844023   -2.895990
     97          8           0        0.377754    3.955995   -3.615849
     98          7           0        5.207535    2.448330   -2.524835
     99          1           0        4.470777    2.769371   -3.182180
    100          6           0        6.194035    3.545582   -2.546480
    101          1           0        6.349798    3.892572   -1.518504
    102          6           0        5.511470    4.710139   -3.389906
    103          6           0        7.559790    3.209161   -3.159175
    104          1           0        8.101971    4.157514   -3.189656
    105          1           0        7.412059    2.924159   -4.211066
    106          8           0        4.364823    4.414194   -3.860230
    107          6           0        8.366380    2.128195   -2.401181
    108          1           0        7.835230    1.860760   -1.480886
    109          1           0        9.339434    2.521192   -2.080390
    110          6           0        8.666916    0.866814   -3.228602
    111          1           0        9.094732    0.072694   -2.607917
    112          1           0        9.395439    1.091985   -4.012916
    113          7           0        7.503238    0.298320   -3.932735
    114          1           0        7.284438    0.702644   -4.833029
    115          7           0        6.585653   -0.733735   -2.050459
    116          1           0        5.760331   -1.234953   -1.727575
    117          1           0        6.836617    0.019095   -1.410359
    118          7           0        5.537075   -0.935036   -4.099793
    119          1           0        4.671041   -1.163614   -3.611893
    120          1           0        5.505832   -0.778901   -5.096510
    121          6           0        6.533206   -0.418924   -3.360013
    122          8           0        6.183795    5.739170   -3.506089
    123          1           0       -0.247527    3.487036   -4.199838
 ---------------------------------------------------------------------
 Rotational constants (GHZ):           0.0550124           0.0119064           0.0109120
 Standard basis: 6-31G(d) (6D, 7F)
  1052 basis functions,  1980 primitive gaussians,  1052 cartesian basis functions
   232 alpha electrons      232 beta electrons
       nuclear repulsion energy      9095.5417038563 Hartrees.
 NAtoms=  123 NActive=  123 NUniq=  123 SFac= 1.00D+00 NAtFMM=   60 NAOKFM=T Big=T
 Integral buffers will be    131072 words long.
 Raffenetti 2 integral format.
 Two-electron integral symmetry is turned off.
 One-electron integrals computed using PRISM.
 NBasis=  1052 RedAO= T EigKep=  4.23D-04  NBF=  1052
 NBsUse=  1052 1.00D-06 EigRej= -1.00D+00 NBFU=  1052
 Initial guess from the checkpoint file:  "conf-399.chk"
 B after Tr=     0.000000    0.000000    0.000000
         Rot=    1.000000    0.000000    0.000000    0.000000 Ang=   0.00 deg.
 Requested convergence on RMS density matrix=1.00D-08 within 128 cycles.
 Requested convergence on MAX density matrix=1.00D-06.
 Requested convergence on             energy=1.00D-06.
 No special actions if energy rises.
 SCF Done:  E(RB3LYP) =  -2974.01817184     A.U. after    1 cycles
            NFock=  1  Conv=0.89D-08     -V/T= 2.0094
 Hyperfine terms turned off by default for NAtoms > 100.

 **********************************************************************

            Population analysis using the SCF Density.

 **********************************************************************

 Alpha  occ. eigenvalues --  -19.26583 -19.23884 -19.23580 -19.22165 -19.20530
 Alpha  occ. eigenvalues --  -19.20217 -19.19582 -19.18755 -19.15430 -19.07887
 Alpha  occ. eigenvalues --  -19.06505 -14.59696 -14.49252 -14.45471 -14.45342
 Alpha  occ. eigenvalues --  -14.44425 -14.44301 -14.43932 -14.42965 -14.42440
 Alpha  occ. eigenvalues --  -14.37284 -10.43469 -10.40823 -10.40748 -10.39167
 Alpha  occ. eigenvalues --  -10.37279 -10.37216 -10.36672 -10.36053 -10.34938
 Alpha  occ. eigenvalues --  -10.34314 -10.32471 -10.32304 -10.32188 -10.31351
 Alpha  occ. eigenvalues --  -10.31199 -10.30903 -10.30822 -10.30506 -10.30506
 Alpha  occ. eigenvalues --  -10.30382 -10.30123 -10.29121 -10.28495 -10.28391
 Alpha  occ. eigenvalues --  -10.26375 -10.25680 -10.25499 -10.25342 -10.25230
 Alpha  occ. eigenvalues --  -10.25057 -10.24951 -10.24870 -10.24663 -10.24627
 Alpha  occ. eigenvalues --  -10.24296 -10.23242 -10.22821 -10.22795 -10.22710
 Alpha  occ. eigenvalues --  -10.22583 -10.20883  -1.18985  -1.15013  -1.14240
 Alpha  occ. eigenvalues --   -1.13629  -1.12537  -1.11735  -1.11668  -1.10634
 Alpha  occ. eigenvalues --   -1.09440  -1.06616  -1.05913  -1.05789  -1.02150
 Alpha  occ. eigenvalues --   -1.00872  -1.00666  -1.00462  -0.99255  -0.98833
 Alpha  occ. eigenvalues --   -0.97858  -0.97005  -0.94381  -0.93417  -0.91720
 Alpha  occ. eigenvalues --   -0.91405  -0.89297  -0.87693  -0.86759  -0.86095
 Alpha  occ. eigenvalues --   -0.85679  -0.85032  -0.83945  -0.83506  -0.81636
 Alpha  occ. eigenvalues --   -0.80647  -0.79890  -0.79267  -0.78449  -0.77201
 Alpha  occ. eigenvalues --   -0.76879  -0.74756  -0.73926  -0.73643  -0.73365
 Alpha  occ. eigenvalues --   -0.73032  -0.72458  -0.71886  -0.71573  -0.70478
 Alpha  occ. eigenvalues --   -0.70379  -0.70115  -0.68936  -0.68111  -0.67938
 Alpha  occ. eigenvalues --   -0.67076  -0.66743  -0.66431  -0.66203  -0.65345
 Alpha  occ. eigenvalues --   -0.64300  -0.63971  -0.63380  -0.63055  -0.62799
 Alpha  occ. eigenvalues --   -0.62199  -0.61475  -0.61267  -0.60151  -0.59678
 Alpha  occ. eigenvalues --   -0.59448  -0.59210  -0.57961  -0.57672  -0.57630
 Alpha  occ. eigenvalues --   -0.57346  -0.57215  -0.57040  -0.56694  -0.56425
 Alpha  occ. eigenvalues --   -0.55997  -0.55317  -0.55060  -0.54848  -0.54048
 Alpha  occ. eigenvalues --   -0.53865  -0.53675  -0.53554  -0.53318  -0.53152
 Alpha  occ. eigenvalues --   -0.52839  -0.52444  -0.52289  -0.52150  -0.51794
 Alpha  occ. eigenvalues --   -0.51711  -0.51682  -0.51372  -0.51082  -0.50748
 Alpha  occ. eigenvalues --   -0.50358  -0.49984  -0.49717  -0.49152  -0.49029
 Alpha  occ. eigenvalues --   -0.48930  -0.48689  -0.48375  -0.48110  -0.48071
 Alpha  occ. eigenvalues --   -0.47761  -0.47740  -0.47635  -0.47348  -0.47002
 Alpha  occ. eigenvalues --   -0.46760  -0.46383  -0.46107  -0.45949  -0.45875
 Alpha  occ. eigenvalues --   -0.45651  -0.45587  -0.45252  -0.45083  -0.44962
 Alpha  occ. eigenvalues --   -0.44430  -0.44191  -0.43886  -0.43779  -0.43712
 Alpha  occ. eigenvalues --   -0.43283  -0.42231  -0.42201  -0.42022  -0.41847
 Alpha  occ. eigenvalues --   -0.41284  -0.41170  -0.40751  -0.40486  -0.39749
 Alpha  occ. eigenvalues --   -0.39345  -0.39201  -0.38951  -0.38666  -0.38373
 Alpha  occ. eigenvalues --   -0.38278  -0.38221  -0.37453  -0.37033  -0.36886
 Alpha  occ. eigenvalues --   -0.36444  -0.36392  -0.36354  -0.36267  -0.35960
 Alpha  occ. eigenvalues --   -0.35789  -0.35476  -0.34795  -0.34509  -0.33915
 Alpha  occ. eigenvalues --   -0.33860  -0.33530  -0.32728  -0.32323  -0.31850
 Alpha  occ. eigenvalues --   -0.31112  -0.29498  -0.28523  -0.27707  -0.22877
 Alpha  occ. eigenvalues --   -0.22764  -0.20518
 Alpha virt. eigenvalues --   -0.13275  -0.12577  -0.11153  -0.10008  -0.07751
 Alpha virt. eigenvalues --   -0.07281  -0.06232  -0.06045  -0.05894  -0.04910
 Alpha virt. eigenvalues --   -0.04787  -0.04566  -0.03510  -0.02789  -0.02510
 Alpha virt. eigenvalues --   -0.02050  -0.01335  -0.00965  -0.00657   0.00333
 Alpha virt. eigenvalues --    0.01259   0.01333   0.01469   0.01831   0.02036
 Alpha virt. eigenvalues --    0.02973   0.03179   0.03323   0.03560   0.03657
 Alpha virt. eigenvalues --    0.04010   0.04200   0.04255   0.04781   0.05220
 Alpha virt. eigenvalues --    0.05303   0.05596   0.05680   0.05907   0.06066
 Alpha virt. eigenvalues --    0.06551   0.06606   0.06776   0.07135   0.07388
 Alpha virt. eigenvalues --    0.08071   0.08106   0.08177   0.08404   0.08468
[...]
 Alpha virt. eigenvalues --    0.95086   0.95550   0.96216   0.96390   0.97571
 Alpha virt. eigenvalues --    0.97962   0.98370   0.98564   0.98815   0.99067
 Alpha virt. eigenvalues --    0.99395   1.00177   1.00302   1.00780   1.01080
 Alpha virt. eigenvalues --    1.01257   1.01589   1.01992   1.02219   1.02377
 Alpha virt. eigenvalues --    1.02949   1.03632   1.04593   1.05483   1.05671
 Alpha virt. eigenvalues --    1.05886   1.06059   1.07555   1.07972   1.08246
 Alpha virt. eigenvalues --    1.08885   1.09270   1.10137   1.10365   1.10661
 Alpha virt. eigenvalues --    1.11051   1.12235   1.12771   1.12895   1.13749
 Alpha virt. eigenvalues --    1.14257   1.14332   1.14911   1.15403   1.15615
 Alpha virt. eigenvalues --    1.16092   1.16888   1.17099   1.17578   1.17907
 Alpha virt. eigenvalues --    1.18595   1.19271   1.19505   1.19638   1.20101
 Alpha virt. eigenvalues --    1.20753   1.21366   1.21858   1.22313   1.22650
 Alpha virt. eigenvalues --    1.23434   1.24324   1.24643   1.25330   1.25967
 Alpha virt. eigenvalues --    1.26800   1.26996   1.27498   1.28038   1.28452
 Alpha virt. eigenvalues --    1.28737   1.29395   1.30083   1.30304   1.30428
 Alpha virt. eigenvalues --    1.30874   1.31462   1.31821   1.32336   1.33313
 Alpha virt. eigenvalues --    1.34197   1.34925   1.35161   1.35776   1.36108
 Alpha virt. eigenvalues --    1.36457   1.36831   1.37341   1.37616   1.38114
 Alpha virt. eigenvalues --    1.38257   1.38572   1.39089   1.39289   1.39508
 Alpha virt. eigenvalues --    1.39943   1.40288   1.40712   1.41905   1.42326
 Alpha virt. eigenvalues --    1.42440   1.42587   1.43075   1.43817   1.44213
 Alpha virt. eigenvalues --    1.45093   1.45414   1.45743   1.46467   1.46768
 Alpha virt. eigenvalues --    1.47174   1.47925   1.48505   1.49119   1.49322
 Alpha virt. eigenvalues --    1.50772   1.51451   1.52214   1.53031   1.53338
 Alpha virt. eigenvalues --    1.54111   1.54404   1.57001   1.57384   1.57720
 Alpha virt. eigenvalues --    1.58348   1.58548   1.59691   1.60153   1.60886
 Alpha virt. eigenvalues --    1.61133   1.61246   1.61592   1.62113   1.62915
 Alpha virt. eigenvalues --    1.63277   1.63892   1.64111   1.65141   1.65720
 Alpha virt. eigenvalues --    1.65884   1.66616   1.66913   1.67115   1.67258
 Alpha virt. eigenvalues --    1.67733   1.67872   1.68181   1.68348   1.68483
 Alpha virt. eigenvalues --    1.68671   1.69499   1.70003   1.70113   1.70353
 Alpha virt. eigenvalues --    1.70553   1.70942   1.71580   1.71871   1.72314
 Alpha virt. eigenvalues --    1.72698   1.73554   1.73682   1.73740   1.73990
 Alpha virt. eigenvalues --    1.74307   1.74989   1.75428   1.75503   1.75544
 Alpha virt. eigenvalues --    1.75865   1.76367   1.76665   1.76941   1.77572
 Alpha virt. eigenvalues --    1.77650   1.78136   1.78344   1.78950   1.79434
 Alpha virt. eigenvalues --    1.79643   1.79866   1.80210   1.80567   1.81121
 Alpha virt. eigenvalues --    1.81221   1.81433   1.81593   1.82338   1.82386
 Alpha virt. eigenvalues --    1.82574   1.83353   1.83798   1.84158   1.84288
 Alpha virt. eigenvalues --    1.84946   1.85073   1.85264   1.85395   1.85789
 Alpha virt. eigenvalues --    1.86531   1.86662   1.86816   1.87185   1.87546
 Alpha virt. eigenvalues --    1.87780   1.88387   1.88838   1.89219   1.89435
 Alpha virt. eigenvalues --    1.89998   1.90343   1.90906   1.91085   1.91859
 Alpha virt. eigenvalues --    1.91952   1.92077   1.92343   1.92788   1.93101
 Alpha virt. eigenvalues --    1.93152   1.93255   1.93721   1.93859   1.94058
 Alpha virt. eigenvalues --    1.94674   1.95279   1.95546   1.95769   1.96238
 Alpha virt. eigenvalues --    1.96998   1.97174   1.98007   1.98025   1.98667
 Alpha virt. eigenvalues --    1.98985   1.99370   1.99556   2.00116   2.00287
 Alpha virt. eigenvalues --    2.00913   2.01111   2.01648   2.01987   2.02640
 Alpha virt. eigenvalues --    2.02729   2.03001   2.03092   2.04187   2.04398
 Alpha virt. eigenvalues --    2.04732   2.05144   2.05688   2.06047   2.06554
 Alpha virt. eigenvalues --    2.06968   2.07407   2.07753   2.08142   2.08439
 Alpha virt. eigenvalues --    2.08849   2.09087   2.10099   2.10485   2.10918
 Alpha virt. eigenvalues --    2.11319   2.12649   2.13285   2.13910   2.14231
 Alpha virt. eigenvalues --    2.15376   2.15654   2.15767   2.16325   2.16484
 Alpha virt. eigenvalues --    2.17611   2.18065   2.18483   2.18989   2.19198
 Alpha virt. eigenvalues --    2.19358   2.19658   2.20501   2.20733   2.21881
 Alpha virt. eigenvalues --    2.21948   2.22183   2.23235   2.23937   2.24380
 Alpha virt. eigenvalues --    2.24667   2.25372   2.25707   2.26417   2.26654
 Alpha virt. eigenvalues --    2.27019   2.28153   2.28435   2.28873   2.29412
 Alpha virt. eigenvalues --    2.29582   2.30479   2.30778   2.31592   2.31962
 Alpha virt. eigenvalues --    2.32306   2.32549   2.33423   2.34222   2.34912
 Alpha virt. eigenvalues --    2.35767   2.36023   2.36499   2.36955   2.37581
 Alpha virt. eigenvalues --    2.37810   2.38151   2.38936   2.39632   2.40083
 Alpha virt. eigenvalues --    2.40188   2.41263   2.41662   2.42061   2.42720
 Alpha virt. eigenvalues --    2.43172   2.43976   2.44177   2.44816   2.45017
 Alpha virt. eigenvalues --    2.45460   2.46103   2.46680   2.47175   2.47439
 Alpha virt. eigenvalues --    2.48321   2.49903   2.50307   2.51219   2.52088
 Alpha virt. eigenvalues --    2.52152   2.52803   2.53175   2.53824   2.54033
 Alpha virt. eigenvalues --    2.54263   2.54479   2.55243   2.55551   2.56192
 Alpha virt. eigenvalues --    2.57129   2.58062   2.58636   2.59209   2.59892
 Alpha virt. eigenvalues --    2.60310   2.60553   2.60788   2.61397   2.61554
 Alpha virt. eigenvalues --    2.62248   2.63035   2.63212   2.63581   2.64090
 Alpha virt. eigenvalues --    2.64799   2.65092   2.65453   2.65828   2.68128
 Alpha virt. eigenvalues --    2.68291   2.69090   2.69933   2.70408   2.71476
 Alpha virt. eigenvalues --    2.71681   2.72480   2.73561   2.75524   2.75705
 Alpha virt. eigenvalues --    2.75806   2.77597   2.79940   2.80106   2.80565
 Alpha virt. eigenvalues --    2.81341   2.82798   2.83393   2.84217   2.85921
 Alpha virt. eigenvalues --    2.86481   2.87072   2.88336   2.89467   2.90236
 Alpha virt. eigenvalues --    2.91751   2.91890   2.92444   2.93049   2.93850
 Alpha virt. eigenvalues --    2.95917   2.96311   2.97200   2.98495   3.00592
 Alpha virt. eigenvalues --    3.01741   3.02817   3.04190   3.06077   3.06487
 Alpha virt. eigenvalues --    3.08706   3.08725   3.12233   3.13555   3.14689
 Alpha virt. eigenvalues --    3.20241   3.28734   3.35532   3.67173   3.76887
 Alpha virt. eigenvalues --    3.80701   3.88282   3.90190   3.90615   3.91847
 Alpha virt. eigenvalues --    3.93380   3.95125   3.96170   3.97314   3.98185
 Alpha virt. eigenvalues --    3.98936   3.99508   4.00703   4.00959   4.03397
 Alpha virt. eigenvalues --    4.03832   4.04653   4.06148   4.06851   4.08854
 Alpha virt. eigenvalues --    4.10703   4.12140   4.12962   4.16345   4.16729
 Alpha virt. eigenvalues --    4.17328   4.18127   4.19006   4.19632   4.20677
 Alpha virt. eigenvalues --    4.22749   4.23101   4.23802   4.26216   4.28059
 Alpha virt. eigenvalues --    4.28617   4.28816   4.29500   4.30925   4.32480
 Alpha virt. eigenvalues --    4.33304   4.35159   4.36691   4.38781   4.39062
 Alpha virt. eigenvalues --    4.44969   4.45713   4.46417   4.49905   4.51543
 Alpha virt. eigenvalues --    4.53083   4.53897   4.55061   4.57795   4.58626
 Alpha virt. eigenvalues --    4.59070   4.60763   4.63609   4.64853   4.70031
          Condensed to atoms (all electrons):
 Mulliken charges:
               1
     1  N   -0.750781
     2  H    0.415846
     3  H    0.404941
     4  H    0.427041
     5  C   -0.111746
     6  H    0.214058
     7  C    0.657061
     8  C   -0.385127
     9  H    0.210218
    10  H    0.193911
    11  O   -0.542476
    12  C    0.138027
    13  C   -0.181531
    14  H    0.148328
    15  C   -0.230236
    16  H    0.151099
    17  C   -0.122192
    18  H    0.169449
    19  C   -0.119983
    20  H    0.168256
    21  C   -0.123482
    22  H    0.170579
    23  N   -0.614440
    24  H    0.374335
    25  C   -0.051137
    26  H    0.196432
    27  C    0.629440
    28  C   -0.458747
    29  H    0.180497
    30  H    0.171323
    31  H    0.189372
    32  O   -0.548670
    33  N   -0.620067
    34  H    0.365751
    35  C   -0.045831
    36  H    0.186641
    37  C    0.626198
    38  C   -0.451108
    39  H    0.167794
    40  H    0.166266
    41  H    0.184070
    42  O   -0.548490
    43  N   -0.625692
    44  H    0.362594
    45  C   -0.047056
    46  H    0.185624
    47  C    0.631738
    48  C   -0.369224
    49  H    0.182674
    50  H    0.190056
    51  O   -0.563837
    52  C    0.107971
    53  C   -0.212549
    54  H    0.182946
    55  C   -0.198075
    56  H    0.145909
    57  C   -0.159430
    58  H    0.144783
    59  C   -0.193632
    60  H    0.130004
    61  O   -0.635262
    62  H    0.412778
    63  C    0.352428
    64  N   -0.609261
    65  H    0.359364
    66  C   -0.072952
    67  H    0.188211
    68  C    0.639808
    69  C   -0.275480
    70  H    0.141856
    71  H    0.159487
    72  O   -0.592223
    73  C   -0.084193
    74  H    0.131288
    75  C   -0.452454
    76  H    0.145243
    77  H    0.156662
    78  H    0.147853
    79  C   -0.445473
    80  H    0.144638
    81  H    0.147933
    82  H    0.152356
    83  N   -0.591074
    84  H    0.381103
    85  C   -0.032040
    86  H    0.175596
    87  C    0.583515
    88  C   -0.313055
    89  H    0.151897
    90  H    0.173252
    91  O   -0.568354
    92  C   -0.405625
    93  H    0.273289
    94  H    0.177936
    95  C    0.584199
    96  O   -0.494124
    97  O   -0.544953
    98  N   -0.604816
    99  H    0.346647
   100  C   -0.086247
   101  H    0.155288
   102  C    0.583959
   103  C   -0.263315
   104  H    0.190754
   105  H    0.106297
   106  O   -0.611978
   107  C   -0.294007
   108  H    0.175188
   109  H    0.157125
   110  C   -0.174764
   111  H    0.181543
   112  H    0.176135
   113  N   -0.577319
   114  H    0.354468
   115  N   -0.774030
   116  H    0.395351
   117  H    0.397175
   118  N   -0.774861
   119  H    0.411080
   120  H    0.355994
   121  C    0.764356
   122  O   -0.557744
   123  H    0.407857
 Sum of Mulliken charges =   1.00000
 Mulliken charges with hydrogens summed into heavy atoms:
               1
     1  N    0.497048
     5  C    0.102313
     7  C    0.657061
     8  C    0.019002
    11  O   -0.542476
    12  C    0.138027
    13  C   -0.033203
    15  C   -0.079138
    17  C    0.047258
    19  C    0.048273
    21  C    0.047097
    23  N   -0.240105
    25  C    0.145295
    27  C    0.629440
    28  C    0.082445
    32  O   -0.548670
    33  N   -0.254316
    35  C    0.140811
    37  C    0.626198
    38  C    0.067021
    42  O   -0.548490
    43  N   -0.263098
    45  C    0.138568
    47  C    0.631738
    48  C    0.003506
    51  O   -0.563837
    52  C    0.107971
    53  C   -0.029603
    55  C   -0.052166
    57  C   -0.014648
    59  C   -0.063627
    61  O   -0.222484
    63  C    0.352428
    64  N   -0.249897
    66  C    0.115259
    68  C    0.639808
    69  C    0.025863
    72  O   -0.592223
    73  C    0.047095
    75  C   -0.002695
    79  C   -0.000546
    83  N   -0.209971
    85  C    0.143556
    87  C    0.583515
    88  C    0.012094
    91  O   -0.568354
    92  C    0.045600
    95  C    0.584199
    96  O   -0.494124
    97  O   -0.137095
    98  N   -0.258169
   100  C    0.069041
   102  C    0.583959
   103  C    0.033735
   106  O   -0.611978
   107  C    0.038306
   110  C    0.182914
   113  N   -0.222851
   115  N    0.018496
   118  N   -0.007787
   121  C    0.764356
   122  O   -0.557744
 Electronic spatial extent (au):  <R**2>=          97542.2233
 Charge=              1.0000 electrons
 Dipole moment (field-independent basis, Debye):
    X=            -39.8268    Y=              5.0703    Z=             18.6722  Tot=             44.2779
 Quadrupole moment (field-independent basis, Debye-Ang):
   XX=            100.2548   YY=           -295.9048   ZZ=           -240.4717
   XY=           -276.9209   XZ=           -213.6177   YZ=            155.8228
 Traceless Quadrupole moment (field-independent basis, Debye-Ang):
   XX=            245.6287   YY=           -150.5309   ZZ=            -95.0978
   XY=           -276.9209   XZ=           -213.6177   YZ=            155.8228
 Octapole moment (field-independent basis, Debye-Ang**2):
  XXX=          -3493.2998  YYY=          -1045.4667  ZZZ=            344.1144  XYY=          -1425.1162
  XXY=           1555.9539  XXZ=           1951.4820  XZZ=           -905.8825  YZZ=             50.5460
  YYZ=            797.1755  XYZ=           -928.1417
 Hexadecapole moment (field-independent basis, Debye-Ang**3):
 XXXX=         -21951.7895 YYYY=         -21361.4591 ZZZZ=         -22216.1993 XXXY=         -17052.1137
 XXXZ=          -7904.1631 YYYX=           -167.7869 YYYZ=            348.9683 ZZZX=          10066.0583
 ZZZY=          -1191.8160 XXYY=          -6170.8330 XXZZ=          -2987.5516 YYZZ=          -5230.0671
 XXYZ=          11505.4393 YYXZ=           1141.3051 ZZXY=          -4792.0413
 N-N= 9.095541703856D+03 E-N=-2.508729775148D+04  KE= 2.946376808491D+03
 Unable to Open any file for archive entry.
 1\1\GINC-NVL-003\SP\RB3LYP\6-31G(d)\C41H61N10O11(1+)\KENGMITH\18-Jul-2
 022\0\\# B3LYP/6-31G* guess=read geom=check nosymm integral(ultrafineg
 rid)\\Candidate Structure: Conf:399 Charge calc in gas phase\\1,1\N,0,
 -10.9422903589,4.6582620639,4.2523277704\H,0,-11.2004462032,5.35249664
 12,3.5455615496\H,0,-11.4019137958,4.9069404139,5.1418241927\H,0,-11.2
 211778851,3.70384663,3.8969490079\C,0,-9.44726442,4.5246234785,4.42849
 99043\H,0,-8.9793441645,5.4420151287,4.0656817862\C,0,-9.0969956506,3.
 2942177914,3.5512747069\C,0,-9.1135875477,4.2922647983,5.9239171722\H,
 0,-8.021906917,4.291017646,6.0120179753\H,0,-9.4550818976,3.2891204007
 ,6.2062274446\O,0,-10.031714688,2.5555328845,3.2056847499\C,0,-9.73821
 26733,5.3387455464,6.8233398654\C,0,-9.1786366379,6.6206764345,6.93336
 9445\H,0,-8.2497177995,6.8532122848,6.4167416299\C,0,-10.9254406209,5.
 0542112576,7.518052255\H,0,-11.3440600042,4.0490055017,7.4865493491\C,
 0,-9.7914338636,7.593930918,7.7211042364\H,0,-9.3405472325,8.577948241
 7,7.8091387621\C,0,-11.5423545269,6.033414378,8.3041120935\H,0,-12.451
 7185718,5.7947395122,8.8475825317\C,0,-10.9769068054,7.3038837228,8.40
 37378827\H,0,-11.4491412032,8.0633431439,9.0194110717\N,0,-7.812017489
 ,3.1185162807,3.2740320931\H,0,-7.0720401967,3.7310470449,3.6313431335
 \C,0,-7.2539998335,1.9686338548,2.5605418181\H,0,-7.6614571353,1.05056
 69252,2.9998515971\C,0,-5.7338074238,2.0546503861,2.8470978913\C,0,-7.
 5746683504,2.0059846186,1.0579698714\H,0,-7.1525280671,1.1327242691,0.
 5515602928\H,0,-7.1577203784,2.9065234063,0.5960926681\H,0,-8.65727475
 41,1.9937256601,0.9079616667\O,0,-5.2748679443,3.0431893011,3.43131531
 36\N,0,-4.9991175917,1.021277737,2.4179843723\H,0,-5.3939420227,0.2518
 028426,1.8794984815\C,0,-3.5433413656,0.9784515201,2.4954285397\H,0,-3
 .1531194147,1.9694391891,2.2365893617\C,0,-3.1101439281,-0.0488349164,
 1.4283108272\C,0,-3.0482532314,0.5921342055,3.8999661954\H,0,-1.954266
 2732,0.5811449186,3.9395370414\H,0,-3.4148767543,-0.4013839005,4.17738
 70725\H,0,-3.4100191778,1.3227028005,4.6281844451\O,0,-3.9378068469,-0
 .8091731433,0.9171965437\N,0,-1.8001826974,-0.0505465594,1.1242170681\
 H,0,-1.1331635309,0.5457692867,1.6063728283\C,0,-1.1965583409,-1.00235
 53135,0.2036970909\H,0,-1.6025925962,-1.9979607963,0.4152855088\C,0,0.
 310435503,-0.9836936972,0.5147785279\C,0,-1.5156053924,-0.6438107663,-
 1.281210501\H,0,-2.5909097998,-0.4376128219,-1.3072689026\H,0,-0.99307
 99527,0.280830446,-1.5476600534\O,0,0.7861158802,-0.1207357364,1.26664
 97531\C,0,-1.1830652845,-1.7403602109,-2.2720595951\C,0,-0.1737943649,
 -1.569473629,-3.2343824486\H,0,0.3660085697,-0.6270325946,-3.274585839
 1\C,0,-1.885503189,-2.9549471694,-2.2615925918\H,0,-2.6896089664,-3.10
 60112466,-1.5440530441\C,0,0.1296526735,-2.5757531326,-4.1478005007\H,
 0,0.903724126,-2.4403963491,-4.8964323908\C,0,-1.5882666789,-3.9713862
 269,-3.1687485443\H,0,-2.1489146968,-4.9040990993,-3.1463252551\O,0,-0
 .2322859007,-4.7348773693,-5.0334765534\H,0,-0.8099685467,-5.507135357
 8,-4.9290438231\C,0,-0.5759431768,-3.7839369608,-4.117523639\N,0,1.058
 291384,-1.9453347038,-0.0661413483\H,0,0.6319334243,-2.5187847008,-0.7
 86009143\C,0,2.5192474242,-2.0230884062,0.0980280514\H,0,2.7234402729,
 -1.6935126322,1.1203442419\C,0,3.1817061877,-1.0235363074,-0.885419180
 7\C,0,2.9888646719,-3.4652892147,-0.1137161724\H,0,2.3109190772,-4.123
 5962747,0.4459775587\H,0,2.8783571758,-3.7066832798,-1.1777162065\O,0,
 3.7251112513,-1.4138817381,-1.9349826693\C,0,4.4392666205,-3.759395569
 3,0.3233550776\H,0,5.100616119,-3.0423407949,-0.1824169938\C,0,4.64109
 29333,-3.6121412102,1.8395620938\H,0,3.9896786109,-4.3035374088,2.3896
 852559\H,0,5.6759664638,-3.8436114571,2.1148401263\H,0,4.4317089893,-2
 .5976324997,2.1974997773\C,0,4.8426187906,-5.1670158268,-0.1411093031\
 H,0,4.2065677274,-5.9310851987,0.3241877064\H,0,4.7512418297,-5.271482
 3657,-1.228372766\H,0,5.8800328486,-5.3884723736,0.1327840729\N,0,3.06
 02226685,0.2601322679,-0.5257980736\H,0,2.5639770132,0.436529378,0.343
 764419\C,0,3.3283131289,1.4068714512,-1.3920546715\H,0,2.9983273882,1.
 142151158,-2.4001429754\C,0,4.8299276642,1.7788243498,-1.4159979666\C,
 0,2.4855528502,2.6075885767,-0.867773911\H,0,1.6051176446,2.1961246827
 ,-0.3606250233\H,0,3.0677468857,3.1433898691,-0.1093372422\O,0,5.57304
 96724,1.4891834728,-0.4682374797\C,0,2.0081396097,3.6020235133,-1.9328
 357866\H,0,2.8273131304,3.9890779468,-2.5672109976\H,0,1.5812745546,4.
 4897488437,-1.4503750715\C,0,0.9532893923,3.0194961912,-2.8373054649\O
 ,0,0.6257789614,1.8440228126,-2.8959895019\O,0,0.3777537892,3.95599499
 5,-3.6158488867\N,0,5.2075354176,2.4483297937,-2.5248354032\H,0,4.4707
 773297,2.7693706214,-3.1821798443\C,0,6.194035467,3.5455824875,-2.5464
 795207\H,0,6.3497978763,3.8925718404,-1.5185042205\C,0,5.5114700483,4.
 7101394393,-3.3899059985\C,0,7.5597900151,3.2091609094,-3.159174907\H,
 0,8.101971138,4.1575144454,-3.1896558287\H,0,7.412058934,2.9241594842,
 -4.211065946\O,0,4.3648231377,4.4141936371,-3.8602304058\C,0,8.3663799
 277,2.1281948565,-2.4011809892\H,0,7.8352301306,1.8607597591,-1.480886
 0745\H,0,9.3394342346,2.5211922057,-2.0803898998\C,0,8.6669160012,0.86
 68138629,-3.2286024353\H,0,9.0947324614,0.0726936034,-2.6079170269\H,0
 ,9.3954392734,1.091985382,-4.0129162176\N,0,7.5032375742,0.2983198822,
 -3.9327350609\H,0,7.2844375657,0.7026440146,-4.8330285947\N,0,6.585652
 518,-0.7337354147,-2.0504594174\H,0,5.7603306819,-1.2349532293,-1.7275
 751337\H,0,6.8366172975,0.0190952421,-1.4103594722\N,0,5.537074547,-0.
 9350360199,-4.0997929307\H,0,4.6710414896,-1.1636137108,-3.611892864\H
 ,0,5.5058316438,-0.778900714,-5.096510095\C,0,6.5332061468,-0.41892381
 58,-3.3600129583\O,0,6.1837952918,5.7391695282,-3.5060888601\H,0,-0.24
 75268654,3.4870359486,-4.1998379646\\Version=ES64L-G16RevC.01\HF=-2974
 .0181718\RMSD=8.855e-09\Dipole=-14.5272409,-0.0752219,6.9866586\Quadru
 pole=182.6189187,-111.91605,-70.7028687,-205.8839087,-158.8195016,115.
 8504374\PG=C01 [X(C41H61N10O11)]\\@
 The archive entry for this job was punched.


 LAWS OF PROGRAMMING DEFINITION:  A WORKING PROGRAM
                                  IS ONE THAT HAS
                                  ONLY UNOBSERVED
                                  BUGS.
 Job cpu time:       0 days  0 hours  4 minutes 48.5 seconds.
 Elapsed time:       0 days  0 hours  1 minutes 20.5 seconds.
 File lengths (MBytes):  RWF=    688 Int=      0 D2E=      0 Chk=    112 Scr=     16
 Normal termination of Gaussian 16 at Mon Jul 18 02:09:10 2022.
