 Entering Gaussian System, Link 0=/opt/software/Gaussian/g16-AVX2-C.01/g16/g16
 Input=charge-conf-727.com
 Output=charge-conf-727.log
 Initial command:
 /opt/software/Gaussian/g16-AVX2-C.01/g16/l1.exe "/mnt/gs18/scratch/users/kengmith/Gau-2156.inp" -scrdir="/mnt/gs18/scratch/users/kengmith/"
 Entering Link 1 = /opt/software/Gaussian/g16-AVX2-C.01/g16/l1.exe PID=      2166.
  
 Copyright (c) 1988-2019, Gaussian, Inc.  All Rights Reserved.
  
 This is part of the Gaussian(R) 16 program.  It is based on
 the Gaussian(R) 09 system (copyright 2009, Gaussian, Inc.),
 the Gaussian(R) 03 system (copyright 2003, Gaussian, Inc.),
 the Gaussian(R) 98 system (copyright 1998, Gaussian, Inc.),
 the Gaussian(R) 94 system (copyright 1995, Gaussian, Inc.),
 the Gaussian 92(TM) system (copyright 1992, Gaussian, Inc.),
 the Gaussian 90(TM) system (copyright 1990, Gaussian, Inc.),
 the Gaussian 88(TM) system (copyright 1988, Gaussian, Inc.),
 the Gaussian 86(TM) system (copyright 1986, Carnegie Mellon
 University), and the Gaussian 82(TM) system (copyright 1983,
 Carnegie Mellon University). Gaussian is a federally registered
 trademark of Gaussian, Inc.
  
 This software contains proprietary and confidential information,
 including trade secrets, belonging to Gaussian, Inc.
  
 This software is provided under written license and may be
 used, copied, transmitted, or stored only in accord with that
 written license.
  
 The following legend is applicable only to US Government
 contracts under FAR:
  
                    RESTRICTED RIGHTS LEGEND
  
 Use, reproduction and disclosure by the US Government is
 subject to restrictions as set forth in subparagraphs (a)
 and (c) of the Commercial Computer Software - Restricted
 Rights clause in FAR 52.227-19.
  
 Gaussian, Inc.
 340 Quinnipiac St., Bldg. 40, Wallingford CT 06492
  
  
 ---------------------------------------------------------------
 Warning -- This program may not be used in any manner that
 competes with the business of Gaussian, Inc. or will provide
 assistance to any competitor of Gaussian, Inc.  The licensee
 of this program is prohibited from giving any competitor of
 Gaussian, Inc. access to this program.  By using this program,
 the user acknowledges that Gaussian, Inc. is engaged in the
 business of creating and licensing software in the field of
 computational chemistry and represents and warrants to the
 licensee that it is not a competitor of Gaussian, Inc. and that
 it will not use this program in any manner prohibited above.
 ---------------------------------------------------------------
  

 Cite this work as:
 Gaussian 16, Revision C.01,
 M. J. Frisch, G. W. Trucks, H. B. Schlegel, G. E. Scuseria, 
 M. A. Robb, J. R. Cheeseman, G. Scalmani, V. Barone, 
 G. A. Petersson, H. Nakatsuji, X. Li, M. Caricato, A. V. Marenich, 
 J. Bloino, B. G. Janesko, R. Gomperts, B. Mennucci, H. P. Hratchian, 
 J. V. Ortiz, A. F. Izmaylov, J. L. Sonnenberg, D. Williams-Young, 
 F. Ding, F. Lipparini, F. Egidi, J. Goings, B. Peng, A. Petrone, 
 T. Henderson, D. Ranasinghe, V. G. Zakrzewski, J. Gao, N. Rega, 
 G. Zheng, W. Liang, M. Hada, M. Ehara, K. Toyota, R. Fukuda, 
 J. Hasegawa, M. Ishida, T. Nakajima, Y. Honda, O. Kitao, H. Nakai, 
 T. Vreven, K. Throssell, J. A. Montgomery, Jr., J. E. Peralta, 
 F. Ogliaro, M. J. Bearpark, J. J. Heyd, E. N. Brothers, K. N. Kudin, 
 V. N. Staroverov, T. A. Keith, R. Kobayashi, J. Normand, 
 K. Raghavachari, A. P. Rendell, J. C. Burant, S. S. Iyengar, 
 J. Tomasi, M. Cossi, J. M. Millam, M. Klene, C. Adamo, R. Cammi, 
 J. W. Ochterski, R. L. Martin, K. Morokuma, O. Farkas, 
 J. B. Foresman, and D. J. Fox, Gaussian, Inc., Wallingford CT, 2019.
 
 ******************************************
 Gaussian 16:  ES64L-G16RevC.01  3-Jul-2019
                18-Jul-2022 
 ******************************************
 %mem=8gb
 %nproc=4
 Will use up to    4 processors via shared memory.
 %chk=conf-727.chk
 -------------------------------------------------------------------
 # B3LYP/6-31G* guess=read geom=check nosymm integral(ultrafinegrid)
 -------------------------------------------------------------------
 1/29=2,38=1,172=1/1;
 2/12=2,15=1,40=1/2;
 3/5=1,6=6,7=1,11=2,14=-4,25=1,30=1,74=-5,75=-5,116=-2/1,2,3;
 4/5=1/1;
 5/5=2,38=6/2;
 6/7=2,8=2,9=2,10=2,28=1/1;
 99/5=1,9=1/99;
 ------------------------------------------------------
 Candidate Structure: Conf:727 Charge calc in gas phase
 ------------------------------------------------------
 Structure from the checkpoint file:  "conf-727.chk"
 Charge =  1 Multiplicity = 1
 Redundant internal coordinates found in file.  (old form).
 N,0,-3.8818056641,0.4980566513,-0.4489505101
 H,0,-3.8714551156,0.1367761348,-1.4292793966
 H,0,-2.9054054202,0.7491204284,-0.1839211013
 H,0,-4.4775154197,1.3481896284,-0.4028941478
 C,0,-4.4992586446,-0.4733605251,0.522310639
 H,0,-5.0880382878,-1.1799615775,-0.0716904644
 C,0,-5.4908280694,0.3897102612,1.34825135
 C,0,-3.3925779846,-1.2198026148,1.2972233435
 H,0,-2.8793272503,-0.5071619257,1.9515583867
 H,0,-2.6447179502,-1.5416322964,0.561668631
 O,0,-5.8624931577,1.4660010348,0.8611445554
 C,0,-3.873911094,-2.4219858066,2.0888838024
 C,0,-3.708368488,-2.4709157815,3.4811340754
 H,0,-3.2294926524,-1.6396674925,3.9944152539
 C,0,-4.4710020993,-3.5171120907,1.4454778289
 H,0,-4.5913724459,-3.5131072819,0.363973519
 C,0,-4.1378910294,-3.5808845914,4.214064775
 H,0,-3.9983752804,-3.6012462654,5.291052194
 C,0,-4.8997418937,-4.6250350766,2.1751468114
 H,0,-5.3580160193,-5.4644310467,1.6601046141
 C,0,-4.7369684815,-4.6586873006,3.562548716
 H,0,-5.0718522311,-5.5220707746,4.1298247926
 N,0,-5.8901959462,-0.0521697496,2.5486280501
 H,0,-5.509157641,-0.9191873742,2.9129720383
 C,0,-6.715839689,0.7684105154,3.4580069237
 H,0,-7.3603357217,1.3778708183,2.8168475911
 C,0,-5.8019456385,1.7255036886,4.2864193368
 C,0,-7.5533980752,-0.125302407,4.3640860581
 H,0,-8.1517744101,0.490591497,5.0384956336
 H,0,-6.9177392463,-0.7613556061,4.9884698337
 H,0,-8.2209556632,-0.7547511098,3.7681978664
 O,0,-5.799865407,1.7110783371,5.5104493131
 N,0,-5.0244581643,2.5270449443,3.5118803445
 H,0,-5.1408412795,2.4896675813,2.5029760247
 C,0,-3.9354745562,3.37722758,3.968146023
 H,0,-4.3347304431,4.2773877831,4.457046194
 C,0,-3.1656400422,3.7827656223,2.6963415829
 C,0,-2.9750833589,2.6675147099,4.9442164645
 H,0,-2.1795156651,3.3490000762,5.2612898193
 H,0,-2.5133430022,1.8015480841,4.4570259828
 H,0,-3.5280425058,2.330083641,5.821448645
 O,0,-3.2930854689,3.1395702877,1.6436251698
 N,0,-2.3105859922,4.8191520054,2.8084076116
 H,0,-2.3514383068,5.3822613653,3.6496690447
 C,0,-1.6266876538,5.4224641968,1.6525189124
 H,0,-2.3240642802,5.3541048108,0.8073886714
 C,0,-0.3363127926,4.6601301632,1.2378066092
 C,0,-1.3035329793,6.9001584288,1.9457749307
 H,0,-0.5244713719,6.9422434374,2.7155445254
 H,0,-0.8433903937,7.3113561367,1.0425819524
 O,0,0.7130233282,5.2573626954,1.0221891417
 C,0,-2.5081880369,7.7125176217,2.3707724458
 C,0,-3.5390421538,8.0164708736,1.4657469159
 H,0,-3.4627523501,7.6833521427,0.4327354608
 C,0,-2.6375390314,8.1779646126,3.6841575385
 H,0,-1.8431366222,7.9868897396,4.4036031832
 C,0,-4.655378803,8.7466987405,1.8537196181
 H,0,-5.4458908278,8.9861750842,1.1496371721
 C,0,-3.7529720132,8.913805992,4.0919709429
 H,0,-3.8248352943,9.2723838476,5.1170362049
 O,0,-5.8858566453,9.9112497748,3.4979908945
 H,0,-5.8325600575,10.1940653938,4.4243719059
 C,0,-4.7680987379,9.199288767,3.1756125914
 N,0,-0.4837319532,3.3155267793,1.1050853306
 H,0,-1.4150199189,2.9131011074,1.1875135102
 C,0,0.579237384,2.4453545387,0.6248871288
 H,0,1.2772801977,3.0575974606,0.0467615317
 C,0,-0.0633907719,1.3780492804,-0.2649550734
 C,0,1.3334037163,1.7173194864,1.7687802226
 H,0,0.5888359666,1.1364254915,2.329128321
 H,0,2.0232572319,0.990280239,1.3150039034
 O,0,-1.1443108819,0.8474145345,0.0677177011
 C,0,2.1252321065,2.6175956474,2.7369677965
 H,0,1.4405100556,3.3854568864,3.1215428194
 C,0,2.613002804,1.7799113622,3.9298486511
 H,0,3.30127264,0.9896733925,3.6022688908
 H,0,3.1492158916,2.4048654379,4.6527603091
 H,0,1.7788202978,1.2989049984,4.4552651575
 C,0,3.299780156,3.3291892298,2.0498333795
 H,0,3.9855331872,2.6038741646,1.5911115892
 H,0,2.954625988,4.0263001072,1.2813213446
 H,0,3.8754525639,3.9096456635,2.7798212811
 N,0,0.6230837782,1.0056375169,-1.3506874542
 H,0,1.4893683681,1.4632327887,-1.6358399082
 C,0,0.2601744028,-0.1110185385,-2.2103851542
 H,0,0.0530047138,-0.986433935,-1.5824279181
 C,0,1.4907037873,-0.3616110379,-3.1160254364
 C,0,-1.0008559303,0.2098066931,-3.0585945562
 H,0,-1.6748491878,0.7866142865,-2.4208787852
 H,0,-0.720897368,0.8569553769,-3.8975651165
 O,0,2.3331792645,0.5318719996,-3.2497237746
 C,0,-1.7414631123,-1.0473843222,-3.5695030749
 H,0,-1.8010844354,-1.7824827863,-2.7546928819
 H,0,-1.2347320379,-1.535877507,-4.4080811732
 C,0,-3.1688187033,-0.7171596038,-3.9261231057
 O,0,-4.0194528437,-0.3286207096,-3.1265690189
 O,0,-3.454440724,-0.8767457427,-5.2166220906
 N,0,1.5080517877,-1.5514813151,-3.7342687873
 H,0,0.6796947375,-2.1639542639,-3.712760559
 C,0,2.1685122694,-1.803617079,-5.0181314174
 H,0,2.0899954967,-0.8960086645,-5.630485434
 C,0,1.3154579085,-2.9506513828,-5.712206379
 C,0,3.6605513564,-2.1542783148,-4.9244491123
 H,0,4.1768108596,-1.4036041758,-4.3134750691
 H,0,4.0528819643,-2.088991859,-5.945174117
 O,0,1.8727652448,-3.5293535535,-6.66147571
 C,0,3.9152958589,-3.575096237,-4.4082325642
 H,0,3.3091830681,-4.2388255708,-5.0373772169
 H,0,3.5941952666,-3.6833482839,-3.3647746118
 C,0,5.3800370104,-3.9855549477,-4.5452291643
 H,0,6.012345763,-3.5061946062,-3.7880994868
 H,0,5.7490618062,-3.7113991879,-5.542351613
 N,0,5.4926423763,-5.4539167558,-4.38444186
 H,0,4.6235767408,-5.9675517383,-4.4792331614
 N,0,7.8070815434,-5.5359418061,-4.4793335545
 H,0,8.6658900709,-5.9848621194,-4.1957735573
 H,0,7.8544671563,-4.5633358235,-4.7457724564
 N,0,6.6062934797,-7.47205978,-4.0720156132
 H,0,7.3869703347,-8.0511677307,-4.3481133197
 H,0,5.7301469927,-7.9483521626,-3.9091650608
 C,0,6.6216671714,-6.1459771572,-4.3231107606
 O,0,0.1820812689,-3.1508643058,-5.1854684723
 H,0,-4.3936412769,-0.6398942154,-5.3481646345
 Recover connectivity data from disk.
                           ----------------------------
                           !    Current Parameters    !
                           ! (Angstroms and Degrees)  !
 --------------------------                            --------------------------
 ! Name  Definition              Value                                          !
 --------------------------------------------------------------------------------
 ! R1    R(1,2)                  1.0448                                         !
 ! R2    R(1,3)                  1.0424                                         !
 ! R3    R(1,4)                  1.0391                                         !
 ! R4    R(1,5)                  1.5061                                         !
 ! R5    R(5,6)                  1.0949                                         !
 ! R6    R(5,7)                  1.5525                                         !
 ! R7    R(5,8)                  1.5435                                         !
 ! R8    R(7,11)                 1.2385                                         !
 ! R9    R(7,23)                 1.34                                           !
 ! R10   R(8,9)                  1.0952                                         !
 ! R11   R(8,10)                 1.0972                                         !
 ! R12   R(8,12)                 1.5178                                         !
 ! R13   R(12,13)                1.4029                                         !
 ! R14   R(12,15)                1.4035                                         !
 ! R15   R(13,14)                1.088                                          !
 ! R16   R(13,17)                1.3978                                         !
 ! R17   R(15,16)                1.0882                                         !
 ! R18   R(15,19)                1.3942                                         !
 ! R19   R(17,18)                1.0862                                         !
 ! R20   R(17,21)                1.3946                                         !
 ! R21   R(19,20)                1.0862                                         !
 ! R22   R(19,21)                1.3973                                         !
 ! R23   R(21,22)                1.086                                          !
 ! R24   R(23,24)                1.0147                                         !
 ! R25   R(23,25)                1.4772                                         !
 ! R26   R(25,26)                1.0945                                         !
 ! R27   R(25,27)                1.5612                                         !
 ! R28   R(25,28)                1.5236                                         !
 ! R29   R(27,32)                1.2241                                         !
 ! R30   R(27,33)                1.359                                          !
 ! R31   R(28,29)                1.0919                                         !
 ! R32   R(28,30)                1.0948                                         !
 ! R33   R(28,31)                1.094                                          !
 ! R34   R(33,34)                1.0163                                         !
 ! R35   R(33,35)                1.4549                                         !
 ! R36   R(35,36)                1.0994                                         !
 ! R37   R(35,37)                1.541                                          !
 ! R38   R(35,38)                1.5423                                         !
 ! R39   R(37,42)                1.2402                                         !
 ! R40   R(37,43)                1.3482                                         !
 ! R41   R(38,39)                1.0945                                         !
 ! R42   R(38,40)                1.0957                                         !
 ! R43   R(38,41)                1.0905                                         !
 ! R44   R(43,44)                1.0132                                         !
 ! R45   R(43,45)                1.4723                                         !
 ! R46   R(45,46)                1.0978                                         !
 ! R47   R(45,47)                1.5551                                         !
 ! R48   R(45,48)                1.5408                                         !
 ! R49   R(47,51)                1.2265                                         !
 ! R50   R(47,64)                1.3592                                         !
 ! R51   R(48,49)                1.096                                          !
 ! R52   R(48,50)                1.0939                                         !
 ! R53   R(48,52)                1.5139                                         !
 ! R54   R(52,53)                1.405                                          !
 ! R55   R(52,55)                1.3994                                         !
 ! R56   R(53,54)                1.0881                                         !
 ! R57   R(53,57)                1.3892                                         !
 ! R58   R(55,56)                1.0887                                         !
 ! R59   R(55,59)                1.3971                                         !
 ! R60   R(57,58)                1.0854                                         !
 ! R61   R(57,63)                1.4018                                         !
 ! R62   R(59,60)                1.0883                                         !
 ! R63   R(59,63)                1.397                                          !
 ! R64   R(61,62)                0.9701                                         !
 ! R65   R(61,63)                1.3639                                         !
 ! R66   R(64,65)                1.0179                                         !
 ! R67   R(64,66)                1.4552                                         !
 ! R68   R(66,67)                1.0938                                         !
 ! R69   R(66,68)                1.531                                          !
 ! R70   R(66,69)                1.5515                                         !
 ! R71   R(68,72)                1.2493                                         !
 ! R72   R(68,83)                1.3374                                         !
 ! R73   R(69,70)                1.0981                                         !
 ! R74   R(69,71)                1.1002                                         !
 ! R75   R(69,73)                1.5411                                         !
 ! R76   R(73,74)                1.0983                                         !
 ! R77   R(73,75)                1.5371                                         !
 ! R78   R(73,79)                1.5356                                         !
 ! R79   R(75,76)                1.098                                          !
 ! R80   R(75,77)                1.0958                                         !
 ! R81   R(75,78)                1.0969                                         !
 ! R82   R(79,80)                1.0985                                         !
 ! R83   R(79,81)                1.0935                                         !
 ! R84   R(79,82)                1.096                                          !
 ! R85   R(83,84)                1.0204                                         !
 ! R86   R(83,85)                1.4552                                         !
 ! R87   R(85,86)                1.0971                                         !
 ! R88   R(85,87)                1.5483                                         !
 ! R89   R(85,88)                1.5532                                         !
 ! R90   R(87,91)                1.2353                                         !
 ! R91   R(87,98)                1.341                                          !
 ! R92   R(88,89)                1.0925                                         !
 ! R93   R(88,90)                1.0959                                         !
 ! R94   R(88,92)                1.546                                          !
 ! R95   R(92,93)                1.099                                          !
 ! R96   R(92,94)                1.0948                                         !
 ! R97   R(92,95)                1.5078                                         !
 ! R98   R(95,96)                1.2304                                         !
 ! R99   R(95,97)                1.3313                                         !
 ! R100  R(97,123)               0.9775                                         !
 ! R101  R(98,99)                1.0304                                         !
 ! R102  R(98,100)               1.4656                                         !
 ! R103  R(100,101)              1.0977                                         !
 ! R104  R(100,102)              1.5891                                         !
 ! R105  R(100,103)              1.5356                                         !
 ! R106  R(102,106)              1.2436                                         !
 ! R107  R(102,122)              1.2657                                         !
 ! R108  R(103,104)              1.097                                          !
 ! R109  R(103,105)              1.0955                                         !
 ! R110  R(103,107)              1.533                                          !
 ! R111  R(107,108)              1.0971                                         !
 ! R112  R(107,109)              1.0971                                         !
 ! R113  R(107,110)              1.5273                                         !
 ! R114  R(110,111)              1.0967                                         !
 ! R115  R(110,112)              1.098                                          !
 ! R116  R(110,113)              1.4814                                         !
 ! R117  R(113,114)              1.0139                                         !
 ! R118  R(113,121)              1.3257                                         !
 ! R119  R(115,116)              1.0097                                         !
 ! R120  R(115,117)              1.0096                                         !
 ! R121  R(115,121)              1.3423                                         !
 ! R122  R(118,119)              1.0105                                         !
 ! R123  R(118,120)              1.0104                                         !
 ! R124  R(118,121)              1.3497                                         !
 ! A1    A(2,1,3)              108.213                                          !
 ! A2    A(2,1,4)              109.2787                                         !
 ! A3    A(2,1,5)              112.7132                                         !
 ! A4    A(3,1,4)              109.1882                                         !
 ! A5    A(3,1,5)              112.0489                                         !
 ! A6    A(4,1,5)              105.3125                                         !
 ! A7    A(1,5,6)              106.6697                                         !
 ! A8    A(1,5,7)              104.2626                                         !
 ! A9    A(1,5,8)              109.9831                                         !
 ! A10   A(6,5,7)              107.6943                                         !
 ! A11   A(6,5,8)              110.2329                                         !
 ! A12   A(7,5,8)              117.367                                          !
 ! A13   A(5,7,11)             117.7457                                         !
 ! A14   A(5,7,23)             118.9205                                         !
 ! A15   A(11,7,23)            123.33                                           !
 ! A16   A(5,8,9)              108.7408                                         !
 ! A17   A(5,8,10)             107.0964                                         !
 ! A18   A(5,8,12)             114.6787                                         !
 ! A19   A(9,8,10)             105.781                                          !
 ! A20   A(9,8,12)             110.6334                                         !
 ! A21   A(10,8,12)            109.4809                                         !
 ! A22   A(8,12,13)            120.5195                                         !
 ! A23   A(8,12,15)            120.9201                                         !
 ! A24   A(13,12,15)           118.5506                                         !
 ! A25   A(12,13,14)           119.5688                                         !
 ! A26   A(12,13,17)           120.7848                                         !
 ! A27   A(14,13,17)           119.6425                                         !
 ! A28   A(12,15,16)           119.987                                          !
 ! A29   A(12,15,19)           120.729                                          !
 ! A30   A(16,15,19)           119.2789                                         !
 ! A31   A(13,17,18)           119.6924                                         !
 ! A32   A(13,17,21)           120.0491                                         !
 ! A33   A(18,17,21)           120.2578                                         !
 ! A34   A(15,19,20)           119.715                                          !
 ! A35   A(15,19,21)           120.1966                                         !
 ! A36   A(20,19,21)           120.0881                                         !
 ! A37   A(17,21,19)           119.6873                                         !
 ! A38   A(17,21,22)           120.1882                                         !
 ! A39   A(19,21,22)           120.124                                          !
 ! A40   A(7,23,24)            119.4382                                         !
 ! A41   A(7,23,25)            122.335                                          !
 ! A42   A(24,23,25)           117.6127                                         !
 ! A43   A(23,25,26)           106.1308                                         !
 ! A44   A(23,25,27)           109.8781                                         !
 ! A45   A(23,25,28)           110.3364                                         !
 ! A46   A(26,25,27)           108.3104                                         !
 ! A47   A(26,25,28)           110.5678                                         !
 ! A48   A(27,25,28)           111.4592                                         !
 ! A49   A(25,27,32)           121.624                                          !
 ! A50   A(25,27,33)           113.2063                                         !
 ! A51   A(32,27,33)           125.1608                                         !
 ! A52   A(25,28,29)           109.7381                                         !
 ! A53   A(25,28,30)           111.1496                                         !
 ! A54   A(25,28,31)           110.427                                          !
 ! A55   A(29,28,30)           107.0767                                         !
 ! A56   A(29,28,31)           109.0601                                         !
 ! A57   A(30,28,31)           109.3092                                         !
 ! A58   A(27,33,34)           118.5933                                         !
 ! A59   A(27,33,35)           126.4499                                         !
 ! A60   A(34,33,35)           114.7414                                         !
 ! A61   A(33,35,36)           110.2477                                         !
 ! A62   A(33,35,37)           105.5976                                         !
 ! A63   A(33,35,38)           113.3058                                         !
 ! A64   A(36,35,37)           109.4488                                         !
 ! A65   A(36,35,38)           108.7516                                         !
 ! A66   A(37,35,38)           109.4104                                         !
 ! A67   A(35,37,42)           120.8456                                         !
 ! A68   A(35,37,43)           116.7774                                         !
 ! A69   A(42,37,43)           122.3016                                         !
 ! A70   A(35,38,39)           110.4536                                         !
 ! A71   A(35,38,40)           110.164                                          !
 ! A72   A(35,38,41)           109.6171                                         !
 ! A73   A(39,38,40)           108.3374                                         !
 ! A74   A(39,38,41)           109.1602                                         !
 ! A75   A(40,38,41)           109.0767                                         !
 ! A76   A(37,43,44)           118.0786                                         !
 ! A77   A(37,43,45)           122.9776                                         !
 ! A78   A(44,43,45)           116.2863                                         !
 ! A79   A(43,45,46)           106.4859                                         !
 ! A80   A(43,45,47)           113.199                                          !
 ! A81   A(43,45,48)           109.937                                          !
 ! A82   A(46,45,47)           106.9347                                         !
 ! A83   A(46,45,48)           109.8442                                         !
 ! A84   A(47,45,48)           110.2965                                         !
 ! A85   A(45,47,51)           121.2052                                         !
 ! A86   A(45,47,64)           114.8989                                         !
 ! A87   A(51,47,64)           123.8734                                         !
 ! A88   A(45,48,49)           108.6377                                         !
 ! A89   A(45,48,50)           106.9532                                         !
 ! A90   A(45,48,52)           113.6521                                         !
 ! A91   A(49,48,50)           105.4539                                         !
 ! A92   A(49,48,52)           110.3561                                         !
 ! A93   A(50,48,52)           111.3964                                         !
 ! A94   A(48,52,53)           121.2712                                         !
 ! A95   A(48,52,55)           121.0319                                         !
 ! A96   A(53,52,55)           117.695                                          !
 ! A97   A(52,53,54)           119.5948                                         !
 ! A98   A(52,53,57)           121.5598                                         !
 ! A99   A(54,53,57)           118.8427                                         !
 ! A100  A(52,55,56)           119.6304                                         !
 ! A101  A(52,55,59)           121.5284                                         !
 ! A102  A(56,55,59)           118.8239                                         !
 ! A103  A(53,57,58)           121.3379                                         !
 ! A104  A(53,57,63)           119.8472                                         !
 ! A105  A(58,57,63)           118.8123                                         !
 ! A106  A(55,59,60)           120.077                                          !
 ! A107  A(55,59,63)           119.7548                                         !
 ! A108  A(60,59,63)           120.1647                                         !
 ! A109  A(62,61,63)           109.4441                                         !
 ! A110  A(57,63,59)           119.6136                                         !
 ! A111  A(57,63,61)           117.2157                                         !
 ! A112  A(59,63,61)           123.1705                                         !
 ! A113  A(47,64,65)           118.8463                                         !
 ! A114  A(47,64,66)           122.9943                                         !
 ! A115  A(65,64,66)           117.2988                                         !
 ! A116  A(64,66,67)           107.8108                                         !
 ! A117  A(64,66,68)           107.5807                                         !
 ! A118  A(64,66,69)           113.101                                          !
 ! A119  A(67,66,68)           110.5421                                         !
 ! A120  A(67,66,69)           110.0067                                         !
 ! A121  A(68,66,69)           107.7835                                         !
 ! A122  A(66,68,72)           120.2999                                         !
 ! A123  A(66,68,83)           116.7761                                         !
 ! A124  A(72,68,83)           122.821                                          !
 ! A125  A(66,69,70)           107.149                                          !
 ! A126  A(66,69,71)           108.1065                                         !
 ! A127  A(66,69,73)           116.0289                                         !
 ! A128  A(70,69,71)           106.6219                                         !
 ! A129  A(70,69,73)           109.6845                                         !
 ! A130  A(71,69,73)           108.8445                                         !
 ! A131  A(69,73,74)           107.943                                          !
 ! A132  A(69,73,75)           109.4055                                         !
 ! A133  A(69,73,79)           112.4945                                         !
 ! A134  A(74,73,75)           107.8847                                         !
 ! A135  A(74,73,79)           108.032                                          !
 ! A136  A(75,73,79)           110.9215                                         !
 ! A137  A(73,75,76)           111.0775                                         !
 ! A138  A(73,75,77)           110.8832                                         !
 ! A139  A(73,75,78)           111.6772                                         !
 ! A140  A(76,75,77)           107.4919                                         !
 ! A141  A(76,75,78)           107.6987                                         !
 ! A142  A(77,75,78)           107.8317                                         !
 ! A143  A(73,79,80)           110.9997                                         !
 ! A144  A(73,79,81)           111.6217                                         !
 ! A145  A(73,79,82)           110.4345                                         !
 ! A146  A(80,79,81)           108.9346                                         !
 ! A147  A(80,79,82)           107.4531                                         !
 ! A148  A(81,79,82)           107.2333                                         !
 ! A149  A(68,83,84)           122.531                                          !
 ! A150  A(68,83,85)           124.4192                                         !
 ! A151  A(84,83,85)           113.0011                                         !
 ! A152  A(83,85,86)           108.738                                          !
 ! A153  A(83,85,87)           105.7565                                         !
 ! A154  A(83,85,88)           111.5047                                         !
 ! A155  A(86,85,87)           110.8387                                         !
 ! A156  A(86,85,88)           108.9098                                         !
 ! A157  A(87,85,88)           111.0544                                         !
 ! A158  A(85,87,91)           119.2274                                         !
 ! A159  A(85,87,98)           115.0596                                         !
 ! A160  A(91,87,98)           125.6656                                         !
 ! A161  A(85,88,89)           106.9262                                         !
 ! A162  A(85,88,90)           109.4281                                         !
 ! A163  A(85,88,92)           113.6675                                         !
 ! A164  A(89,88,90)           107.0182                                         !
 ! A165  A(89,88,92)           109.0684                                         !
 ! A166  A(90,88,92)           110.4618                                         !
 ! A167  A(88,92,93)           108.9594                                         !
 ! A168  A(88,92,94)           113.2187                                         !
 ! A169  A(88,92,95)           110.7046                                         !
 ! A170  A(93,92,94)           107.1303                                         !
 ! A171  A(93,92,95)           105.6929                                         !
 ! A172  A(94,92,95)           110.7753                                         !
 ! A173  A(92,95,96)           124.7449                                         !
 ! A174  A(92,95,97)           113.9597                                         !
 ! A175  A(96,95,97)           121.295                                          !
 ! A176  A(95,97,123)          107.9106                                         !
 ! A177  A(87,98,99)           120.4893                                         !
 ! A178  A(87,98,100)          124.2165                                         !
 ! A179  A(99,98,100)          106.1584                                         !
 ! A180  A(98,100,101)         108.3124                                         !
 ! A181  A(98,100,102)         105.3597                                         !
 ! A182  A(98,100,103)         115.0687                                         !
 ! A183  A(101,100,102)        108.3473                                         !
 ! A184  A(101,100,103)        106.9991                                         !
 ! A185  A(102,100,103)        112.546                                          !
 ! A186  A(100,102,106)        115.3865                                         !
 ! A187  A(100,102,122)        114.3999                                         !
 ! A188  A(106,102,122)        130.1895                                         !
 ! A189  A(100,103,104)        109.5724                                         !
 ! A190  A(100,103,105)        106.113                                          !
 ! A191  A(100,103,107)        113.1823                                         !
 ! A192  A(104,103,105)        108.0371                                         !
 ! A193  A(104,103,107)        111.6223                                         !
 ! A194  A(105,103,107)        108.0279                                         !
 ! A195  A(103,107,108)        106.0091                                         !
 ! A196  A(103,107,109)        111.2898                                         !
 ! A197  A(103,107,110)        112.2246                                         !
 ! A198  A(108,107,109)        108.906                                          !
 ! A199  A(108,107,110)        108.4087                                         !
 ! A200  A(109,107,110)        109.8454                                         !
 ! A201  A(107,110,111)        111.9333                                         !
 ! A202  A(107,110,112)        109.6743                                         !
 ! A203  A(107,110,113)        109.2406                                         !
 ! A204  A(111,110,112)        108.9064                                         !
 ! A205  A(111,110,113)        108.3289                                         !
 ! A206  A(112,110,113)        108.6934                                         !
 ! A207  A(110,113,114)        115.2651                                         !
 ! A208  A(110,113,121)        125.9585                                         !
 ! A209  A(114,113,121)        118.0242                                         !
 ! A210  A(116,115,117)        117.5506                                         !
 ! A211  A(116,115,121)        121.0914                                         !
 ! A212  A(117,115,121)        120.6643                                         !
 ! A213  A(119,118,120)        116.3461                                         !
 ! A214  A(119,118,121)        120.2274                                         !
 ! A215  A(120,118,121)        120.1964                                         !
 ! A216  A(113,121,115)        120.6295                                         !
 ! A217  A(113,121,118)        120.784                                          !
 ! A218  A(115,121,118)        118.5691                                         !
 ! D1    D(2,1,5,6)            -18.5824                                         !
 ! D2    D(2,1,5,7)           -132.3782                                         !
 ! D3    D(2,1,5,8)            100.9571                                         !
 ! D4    D(3,1,5,6)           -140.9327                                         !
 ! D5    D(3,1,5,7)            105.2714                                         !
 ! D6    D(3,1,5,8)            -21.3932                                         !
 ! D7    D(4,1,5,6)            100.4763                                         !
 ! D8    D(4,1,5,7)            -13.3196                                         !
 ! D9    D(4,1,5,8)           -139.9843                                         !
 ! D10   D(1,5,7,11)            20.0331                                         !
 ! D11   D(1,5,7,23)          -159.2772                                         !
 ! D12   D(6,5,7,11)           -93.0317                                         !
 ! D13   D(6,5,7,23)            87.6579                                         !
 ! D14   D(8,5,7,11)           141.946                                          !
 ! D15   D(8,5,7,23)           -37.3643                                         !
 ! D16   D(1,5,8,9)             67.7955                                         !
 ! D17   D(1,5,8,10)           -46.084                                          !
 ! D18   D(1,5,8,12)          -167.7732                                         !
 ! D19   D(6,5,8,9)           -174.8603                                         !
 ! D20   D(6,5,8,10)            71.2601                                         !
 ! D21   D(6,5,8,12)           -50.429                                          !
 ! D22   D(7,5,8,9)            -51.1129                                         !
 ! D23   D(7,5,8,10)          -164.9925                                         !
 ! D24   D(7,5,8,12)            73.3183                                         !
 ! D25   D(5,7,23,24)            2.6024                                         !
 ! D26   D(5,7,23,25)          173.4001                                         !
 ! D27   D(11,7,23,24)        -176.6671                                         !
 ! D28   D(11,7,23,25)          -5.8694                                         !
 ! D29   D(5,8,12,13)         -119.6863                                         !
 ! D30   D(5,8,12,15)           61.4645                                         !
 ! D31   D(9,8,12,13)            3.7382                                         !
 ! D32   D(9,8,12,15)         -175.111                                          !
 ! D33   D(10,8,12,13)         119.9345                                         !
 ! D34   D(10,8,12,15)         -58.9147                                         !
 ! D35   D(8,12,13,14)          -0.0904                                         !
 ! D36   D(8,12,13,17)        -179.3783                                         !
 ! D37   D(15,12,13,14)        178.7857                                         !
 ! D38   D(15,12,13,17)         -0.5022                                         !
 ! D39   D(8,12,15,16)           0.1876                                         !
 ! D40   D(8,12,15,19)         179.3629                                         !
 ! D41   D(13,12,15,16)       -178.6838                                         !
 ! D42   D(13,12,15,19)          0.4915                                         !
 ! D43   D(12,13,17,18)        179.83                                           !
 ! D44   D(12,13,17,21)          0.1241                                         !
 ! D45   D(14,13,17,18)          0.5426                                         !
 ! D46   D(14,13,17,21)       -179.1633                                         !
 ! D47   D(12,15,19,20)       -179.8818                                         !
 ! D48   D(12,15,19,21)         -0.1031                                         !
 ! D49   D(16,15,19,20)         -0.7006                                         !
 ! D50   D(16,15,19,21)        179.0781                                         !
 ! D51   D(13,17,21,19)          0.2738                                         !
 ! D52   D(13,17,21,22)       -179.9779                                         !
 ! D53   D(18,17,21,19)       -179.4304                                         !
 ! D54   D(18,17,21,22)          0.3179                                         !
 ! D55   D(15,19,21,17)         -0.2846                                         !
 ! D56   D(15,19,21,22)        179.967                                          !
 ! D57   D(20,19,21,17)        179.4933                                         !
 ! D58   D(20,19,21,22)         -0.2551                                         !
 ! D59   D(7,23,25,26)          32.9007                                         !
 ! D60   D(7,23,25,27)         -83.9927                                         !
 ! D61   D(7,23,25,28)         152.7168                                         !
 ! D62   D(24,23,25,26)       -156.1422                                         !
 ! D63   D(24,23,25,27)         86.9644                                         !
 ! D64   D(24,23,25,28)        -36.3261                                         !
 ! D65   D(23,25,27,32)       -122.4613                                         !
 ! D66   D(23,25,27,33)         56.5062                                         !
 ! D67   D(26,25,27,32)        122.018                                          !
 ! D68   D(26,25,27,33)        -59.0146                                         !
 ! D69   D(28,25,27,32)          0.1681                                         !
 ! D70   D(28,25,27,33)        179.1355                                         !
 ! D71   D(23,25,28,29)        179.4297                                         !
 ! D72   D(23,25,28,30)         61.1796                                         !
 ! D73   D(23,25,28,31)        -60.315                                          !
 ! D74   D(26,25,28,29)        -63.4702                                         !
 ! D75   D(26,25,28,30)        178.2797                                         !
 ! D76   D(26,25,28,31)         56.7851                                         !
 ! D77   D(27,25,28,29)         57.0638                                         !
 ! D78   D(27,25,28,30)        -61.1863                                         !
 ! D79   D(27,25,28,31)        177.319                                          !
 ! D80   D(25,27,33,34)          4.1105                                         !
 ! D81   D(25,27,33,35)       -170.2556                                         !
 ! D82   D(32,27,33,34)       -176.965                                          !
 ! D83   D(32,27,33,35)          8.669                                          !
 ! D84   D(27,33,35,36)        -75.8953                                         !
 ! D85   D(27,33,35,37)        165.977                                          !
 ! D86   D(27,33,35,38)         46.2445                                         !
 ! D87   D(34,33,35,36)        109.5509                                         !
 ! D88   D(34,33,35,37)         -8.5768                                         !
 ! D89   D(34,33,35,38)       -128.3093                                         !
 ! D90   D(33,35,37,42)        -18.5431                                         !
 ! D91   D(33,35,37,43)        164.5421                                         !
 ! D92   D(36,35,37,42)       -137.2043                                         !
 ! D93   D(36,35,37,43)         45.8809                                         !
 ! D94   D(38,35,37,42)        103.7251                                         !
 ! D95   D(38,35,37,43)        -73.1897                                         !
 ! D96   D(33,35,38,39)       -179.6779                                         !
 ! D97   D(33,35,38,40)         60.6747                                         !
 ! D98   D(33,35,38,41)        -59.3591                                         !
 ! D99   D(36,35,38,39)        -56.7082                                         !
 ! D100  D(36,35,38,40)       -176.3557                                         !
 ! D101  D(36,35,38,41)         63.6105                                         !
 ! D102  D(37,35,38,39)         62.7928                                         !
 ! D103  D(37,35,38,40)        -56.8547                                         !
 ! D104  D(37,35,38,41)       -176.8884                                         !
 ! D105  D(35,37,43,44)        -11.7329                                         !
 ! D106  D(35,37,43,45)       -172.5505                                         !
 ! D107  D(42,37,43,44)        171.4009                                         !
 ! D108  D(42,37,43,45)         10.5833                                         !
 ! D109  D(37,43,45,46)         33.7061                                         !
 ! D110  D(37,43,45,47)        -83.5088                                         !
 ! D111  D(37,43,45,48)        152.6488                                         !
 ! D112  D(44,43,45,46)       -127.4289                                         !
 ! D113  D(44,43,45,47)        115.3562                                         !
 ! D114  D(44,43,45,48)         -8.4862                                         !
 ! D115  D(43,45,47,51)       -132.474                                          !
 ! D116  D(43,45,47,64)         49.1833                                         !
 ! D117  D(46,45,47,51)        110.5745                                         !
 ! D118  D(46,45,47,64)        -67.7681                                         !
 ! D119  D(48,45,47,51)         -8.8288                                         !
 ! D120  D(48,45,47,64)        172.8286                                         !
 ! D121  D(43,45,48,49)         69.3286                                         !
 ! D122  D(43,45,48,50)       -177.2932                                         !
 ! D123  D(43,45,48,52)        -53.9346                                         !
 ! D124  D(46,45,48,49)       -173.81                                           !
 ! D125  D(46,45,48,50)        -60.4318                                         !
 ! D126  D(46,45,48,52)         62.9268                                         !
 ! D127  D(47,45,48,49)        -56.1874                                         !
 ! D128  D(47,45,48,50)         57.1907                                         !
 ! D129  D(47,45,48,52)       -179.4506                                         !
 ! D130  D(45,47,64,65)          6.0208                                         !
 ! D131  D(45,47,64,66)        175.1037                                         !
 ! D132  D(51,47,64,65)       -172.2718                                         !
 ! D133  D(51,47,64,66)         -3.1889                                         !
 ! D134  D(45,48,52,53)        -69.2602                                         !
 ! D135  D(45,48,52,55)        110.23                                           !
 ! D136  D(49,48,52,53)        168.4211                                         !
 ! D137  D(49,48,52,55)        -12.0887                                         !
 ! D138  D(50,48,52,53)         51.6371                                         !
 ! D139  D(50,48,52,55)       -128.8726                                         !
 ! D140  D(48,52,53,54)         -1.4539                                         !
 ! D141  D(48,52,53,57)        179.155                                          !
 ! D142  D(55,52,53,54)        179.0394                                         !
 ! D143  D(55,52,53,57)         -0.3517                                         !
 ! D144  D(48,52,55,56)          2.3631                                         !
 ! D145  D(48,52,55,59)       -179.1655                                         !
 ! D146  D(53,52,55,56)       -178.1289                                         !
 ! D147  D(53,52,55,59)          0.3424                                         !
 ! D148  D(52,53,57,58)        179.5106                                         !
 ! D149  D(52,53,57,63)          0.112                                          !
 ! D150  D(54,53,57,58)          0.1151                                         !
 ! D151  D(54,53,57,63)       -179.2835                                         !
 ! D152  D(52,55,59,60)       -179.4171                                         !
 ! D153  D(52,55,59,63)         -0.0943                                         !
 ! D154  D(56,55,59,60)         -0.9338                                         !
 ! D155  D(56,55,59,63)        178.3891                                         !
 ! D156  D(53,57,63,59)          0.1476                                         !
 ! D157  D(53,57,63,61)        179.9871                                         !
 ! D158  D(58,57,63,59)       -179.2662                                         !
 ! D159  D(58,57,63,61)          0.5733                                         !
 ! D160  D(55,59,63,57)         -0.1563                                         !
 ! D161  D(55,59,63,61)       -179.9858                                         !
 ! D162  D(60,59,63,57)        179.1659                                         !
 ! D163  D(60,59,63,61)         -0.6636                                         !
 ! D164  D(62,61,63,57)       -177.9482                                         !
 ! D165  D(62,61,63,59)          1.8852                                         !
 ! D166  D(47,64,66,67)        -22.4641                                         !
 ! D167  D(47,64,66,68)       -141.7003                                         !
 ! D168  D(47,64,66,69)         99.3875                                         !
 ! D169  D(65,64,66,67)        146.7768                                         !
 ! D170  D(65,64,66,68)         27.5406                                         !
 ! D171  D(65,64,66,69)        -91.3716                                         !
 ! D172  D(64,66,68,72)        -41.305                                          !
 ! D173  D(64,66,68,83)        142.2819                                         !
 ! D174  D(67,66,68,72)       -158.7811                                         !
 ! D175  D(67,66,68,83)         24.8059                                         !
 ! D176  D(69,66,68,72)         80.9614                                         !
 ! D177  D(69,66,68,83)        -95.4516                                         !
 ! D178  D(64,66,69,70)         58.209                                          !
 ! D179  D(64,66,69,71)        172.7823                                         !
 ! D180  D(64,66,69,73)        -64.679                                          !
 ! D181  D(67,66,69,70)        178.82                                           !
 ! D182  D(67,66,69,71)        -66.6067                                         !
 ! D183  D(67,66,69,73)         55.9319                                         !
 ! D184  D(68,66,69,70)        -60.5858                                         !
 ! D185  D(68,66,69,71)         53.9875                                         !
 ! D186  D(68,66,69,73)        176.5262                                         !
 ! D187  D(66,68,83,84)         -5.8096                                         !
 ! D188  D(66,68,83,85)        171.4747                                         !
 ! D189  D(72,68,83,84)        177.8758                                         !
 ! D190  D(72,68,83,85)         -4.8399                                         !
 ! D191  D(66,69,73,74)         53.5318                                         !
 ! D192  D(66,69,73,75)        170.6814                                         !
 ! D193  D(66,69,73,79)        -65.5633                                         !
 ! D194  D(70,69,73,74)        -68.0163                                         !
 ! D195  D(70,69,73,75)         49.1333                                         !
 ! D196  D(70,69,73,79)        172.8886                                         !
 ! D197  D(71,69,73,74)        175.6811                                         !
 ! D198  D(71,69,73,75)        -67.1693                                         !
 ! D199  D(71,69,73,79)         56.5859                                         !
 ! D200  D(69,73,75,76)         62.5791                                         !
 ! D201  D(69,73,75,77)       -177.9608                                         !
 ! D202  D(69,73,75,78)        -57.6727                                         !
 ! D203  D(74,73,75,76)        179.7655                                         !
 ! D204  D(74,73,75,77)        -60.7744                                         !
 ! D205  D(74,73,75,78)         59.5136                                         !
 ! D206  D(79,73,75,76)        -62.0971                                         !
 ! D207  D(79,73,75,77)         57.363                                          !
 ! D208  D(79,73,75,78)        177.6511                                         !
 ! D209  D(69,73,79,80)        -57.4232                                         !
 ! D210  D(69,73,79,81)         64.3143                                         !
 ! D211  D(69,73,79,82)       -176.4918                                         !
 ! D212  D(74,73,79,80)       -176.4664                                         !
 ! D213  D(74,73,79,81)        -54.7289                                         !
 ! D214  D(74,73,79,82)         64.465                                          !
 ! D215  D(75,73,79,80)         65.4856                                         !
 ! D216  D(75,73,79,81)       -172.7769                                         !
 ! D217  D(75,73,79,82)        -53.583                                          !
 ! D218  D(68,83,85,86)        -48.1723                                         !
 ! D219  D(68,83,85,87)       -167.2521                                         !
 ! D220  D(68,83,85,88)         71.9256                                         !
 ! D221  D(84,83,85,86)        129.3405                                         !
 ! D222  D(84,83,85,87)         10.2607                                         !
 ! D223  D(84,83,85,88)       -110.5616                                         !
 ! D224  D(83,85,87,91)        -19.0823                                         !
 ! D225  D(83,85,87,98)        163.2792                                         !
 ! D226  D(86,85,87,91)       -136.763                                          !
 ! D227  D(86,85,87,98)         45.5985                                         !
 ! D228  D(88,85,87,91)        102.0323                                         !
 ! D229  D(88,85,87,98)        -75.6061                                         !
 ! D230  D(83,85,88,89)        -37.8505                                         !
 ! D231  D(83,85,88,90)         77.7274                                         !
 ! D232  D(83,85,88,92)       -158.2637                                         !
 ! D233  D(86,85,88,89)         82.1461                                         !
 ! D234  D(86,85,88,90)       -162.276                                          !
 ! D235  D(86,85,88,92)        -38.267                                          !
 ! D236  D(87,85,88,89)       -155.5231                                         !
 ! D237  D(87,85,88,90)        -39.9453                                         !
 ! D238  D(87,85,88,92)         84.0637                                         !
 ! D239  D(85,87,98,99)          9.5325                                         !
 ! D240  D(85,87,98,100)       151.8057                                         !
 ! D241  D(91,87,98,99)       -167.9307                                         !
 ! D242  D(91,87,98,100)       -25.6575                                         !
 ! D243  D(85,88,92,93)         43.3959                                         !
 ! D244  D(85,88,92,94)        -75.6993                                         !
 ! D245  D(85,88,92,95)        159.2185                                         !
 ! D246  D(89,88,92,93)        -75.8023                                         !
 ! D247  D(89,88,92,94)        165.1025                                         !
 ! D248  D(89,88,92,95)         40.0202                                         !
 ! D249  D(90,88,92,93)        166.843                                          !
 ! D250  D(90,88,92,94)         47.7478                                         !
 ! D251  D(90,88,92,95)        -77.3345                                         !
 ! D252  D(88,92,95,96)        -63.5921                                         !
 ! D253  D(88,92,95,97)        116.1713                                         !
 ! D254  D(93,92,95,96)         54.2455                                         !
 ! D255  D(93,92,95,97)       -125.9911                                         !
 ! D256  D(94,92,95,96)        169.9553                                         !
 ! D257  D(94,92,95,97)        -10.2814                                         !
 ! D258  D(92,95,97,123)      -179.9721                                         !
 ! D259  D(96,95,97,123)        -0.1997                                         !
 ! D260  D(87,98,100,101)      -33.5749                                         !
 ! D261  D(87,98,100,102)     -149.3449                                         !
 ! D262  D(87,98,100,103)       86.0811                                         !
 ! D263  D(99,98,100,101)      113.1286                                         !
 ! D264  D(99,98,100,102)       -2.6415                                         !
 ! D265  D(99,98,100,103)     -127.2155                                         !
 ! D266  D(98,100,102,106)    -163.9185                                         !
 ! D267  D(98,100,102,122)      14.4808                                         !
 ! D268  D(101,100,102,106)     80.3354                                         !
 ! D269  D(101,100,102,122)   -101.2653                                         !
 ! D270  D(103,100,102,106)    -37.7758                                         !
 ! D271  D(103,100,102,122)    140.6235                                         !
 ! D272  D(98,100,103,104)     -51.14                                           !
 ! D273  D(98,100,103,105)    -167.5485                                         !
 ! D274  D(98,100,103,107)      74.1482                                         !
 ! D275  D(101,100,103,104)     69.2395                                         !
 ! D276  D(101,100,103,105)    -47.169                                          !
 ! D277  D(101,100,103,107)   -165.4723                                         !
 ! D278  D(102,100,103,104)   -171.8584                                         !
 ! D279  D(102,100,103,105)     71.7332                                         !
 ! D280  D(102,100,103,107)    -46.5702                                         !
 ! D281  D(100,103,107,108)     52.1488                                         !
 ! D282  D(100,103,107,109)    -66.1185                                         !
 ! D283  D(100,103,107,110)    170.3217                                         !
 ! D284  D(104,103,107,108)    176.3257                                         !
 ! D285  D(104,103,107,109)     58.0584                                         !
 ! D286  D(104,103,107,110)    -65.5014                                         !
 ! D287  D(105,103,107,108)    -65.0366                                         !
 ! D288  D(105,103,107,109)    176.6961                                         !
 ! D289  D(105,103,107,110)     53.1363                                         !
 ! D290  D(103,107,110,111)     75.2861                                         !
 ! D291  D(103,107,110,112)    -45.7071                                         !
 ! D292  D(103,107,110,113)   -164.7396                                         !
 ! D293  D(108,107,110,111)   -167.9715                                         !
 ! D294  D(108,107,110,112)     71.0354                                         !
 ! D295  D(108,107,110,113)    -47.9972                                         !
 ! D296  D(109,107,110,111)    -49.0785                                         !
 ! D297  D(109,107,110,112)   -170.0717                                         !
 ! D298  D(109,107,110,113)     70.8958                                         !
 ! D299  D(107,110,113,114)     16.629                                          !
 ! D300  D(107,110,113,121)   -173.5618                                         !
 ! D301  D(111,110,113,114)    138.7965                                         !
 ! D302  D(111,110,113,121)    -51.3943                                         !
 ! D303  D(112,110,113,114)   -103.0109                                         !
 ! D304  D(112,110,113,121)     66.7983                                         !
 ! D305  D(110,113,121,115)     -3.5952                                         !
 ! D306  D(110,113,121,118)    174.8704                                         !
 ! D307  D(114,113,121,115)    165.962                                          !
 ! D308  D(114,113,121,118)    -15.5724                                         !
 ! D309  D(116,115,121,113)    163.4633                                         !
 ! D310  D(116,115,121,118)    -15.0357                                         !
 ! D311  D(117,115,121,113)     -6.7585                                         !
 ! D312  D(117,115,121,118)    174.7425                                         !
 ! D313  D(119,118,121,113)    157.7189                                         !
 ! D314  D(119,118,121,115)    -23.7844                                         !
 ! D315  D(120,118,121,113)     -1.2412                                         !
 ! D316  D(120,118,121,115)    177.2554                                         !
 --------------------------------------------------------------------------------
 Symmetry turned off by external request.
 Stoichiometry    C41H61N10O11(1+)
 Framework group  C1[X(C41H61N10O11)]
 Deg. of freedom   363
 Full point group                 C1      NOp   1
                          Input orientation:                          
 ---------------------------------------------------------------------
 Center     Atomic      Atomic             Coordinates (Angstroms)
 Number     Number       Type             X           Y           Z
 ---------------------------------------------------------------------
      1          7           0       -3.881806    0.498057   -0.448951
      2          1           0       -3.871455    0.136776   -1.429279
      3          1           0       -2.905405    0.749120   -0.183921
      4          1           0       -4.477515    1.348190   -0.402894
      5          6           0       -4.499259   -0.473361    0.522311
      6          1           0       -5.088038   -1.179962   -0.071690
      7          6           0       -5.490828    0.389710    1.348251
      8          6           0       -3.392578   -1.219803    1.297223
      9          1           0       -2.879327   -0.507162    1.951558
     10          1           0       -2.644718   -1.541632    0.561669
     11          8           0       -5.862493    1.466001    0.861145
     12          6           0       -3.873911   -2.421986    2.088884
     13          6           0       -3.708368   -2.470916    3.481134
     14          1           0       -3.229493   -1.639667    3.994415
     15          6           0       -4.471002   -3.517112    1.445478
     16          1           0       -4.591372   -3.513107    0.363974
     17          6           0       -4.137891   -3.580885    4.214065
     18          1           0       -3.998375   -3.601246    5.291052
     19          6           0       -4.899742   -4.625035    2.175147
     20          1           0       -5.358016   -5.464431    1.660105
     21          6           0       -4.736968   -4.658687    3.562549
     22          1           0       -5.071852   -5.522071    4.129825
     23          7           0       -5.890196   -0.052170    2.548628
     24          1           0       -5.509158   -0.919187    2.912972
     25          6           0       -6.715840    0.768411    3.458007
     26          1           0       -7.360336    1.377871    2.816848
     27          6           0       -5.801946    1.725504    4.286419
     28          6           0       -7.553398   -0.125302    4.364086
     29          1           0       -8.151774    0.490591    5.038496
     30          1           0       -6.917739   -0.761356    4.988470
     31          1           0       -8.220956   -0.754751    3.768198
     32          8           0       -5.799865    1.711078    5.510449
     33          7           0       -5.024458    2.527045    3.511880
     34          1           0       -5.140841    2.489668    2.502976
     35          6           0       -3.935475    3.377228    3.968146
     36          1           0       -4.334730    4.277388    4.457046
     37          6           0       -3.165640    3.782766    2.696342
     38          6           0       -2.975083    2.667515    4.944216
     39          1           0       -2.179516    3.349000    5.261290
     40          1           0       -2.513343    1.801548    4.457026
     41          1           0       -3.528043    2.330084    5.821449
     42          8           0       -3.293085    3.139570    1.643625
     43          7           0       -2.310586    4.819152    2.808408
     44          1           0       -2.351438    5.382261    3.649669
     45          6           0       -1.626688    5.422464    1.652519
     46          1           0       -2.324064    5.354105    0.807389
     47          6           0       -0.336313    4.660130    1.237807
     48          6           0       -1.303533    6.900158    1.945775
     49          1           0       -0.524471    6.942243    2.715545
     50          1           0       -0.843390    7.311356    1.042582
     51          8           0        0.713023    5.257363    1.022189
     52          6           0       -2.508188    7.712518    2.370772
     53          6           0       -3.539042    8.016471    1.465747
     54          1           0       -3.462752    7.683352    0.432735
     55          6           0       -2.637539    8.177965    3.684158
     56          1           0       -1.843137    7.986890    4.403603
     57          6           0       -4.655379    8.746699    1.853720
     58          1           0       -5.445891    8.986175    1.149637
     59          6           0       -3.752972    8.913806    4.091971
     60          1           0       -3.824835    9.272384    5.117036
     61          8           0       -5.885857    9.911250    3.497991
     62          1           0       -5.832560   10.194065    4.424372
     63          6           0       -4.768099    9.199289    3.175613
     64          7           0       -0.483732    3.315527    1.105085
     65          1           0       -1.415020    2.913101    1.187514
     66          6           0        0.579237    2.445355    0.624887
     67          1           0        1.277280    3.057597    0.046762
     68          6           0       -0.063391    1.378049   -0.264955
     69          6           0        1.333404    1.717319    1.768780
     70          1           0        0.588836    1.136425    2.329128
     71          1           0        2.023257    0.990280    1.315004
     72          8           0       -1.144311    0.847415    0.067718
     73          6           0        2.125232    2.617596    2.736968
     74          1           0        1.440510    3.385457    3.121543
     75          6           0        2.613003    1.779911    3.929849
     76          1           0        3.301273    0.989673    3.602269
     77          1           0        3.149216    2.404865    4.652760
     78          1           0        1.778820    1.298905    4.455265
     79          6           0        3.299780    3.329189    2.049833
     80          1           0        3.985533    2.603874    1.591112
     81          1           0        2.954626    4.026300    1.281321
     82          1           0        3.875453    3.909646    2.779821
     83          7           0        0.623084    1.005638   -1.350687
     84          1           0        1.489368    1.463233   -1.635840
     85          6           0        0.260174   -0.111019   -2.210385
     86          1           0        0.053005   -0.986434   -1.582428
     87          6           0        1.490704   -0.361611   -3.116025
     88          6           0       -1.000856    0.209807   -3.058595
     89          1           0       -1.674849    0.786614   -2.420879
     90          1           0       -0.720897    0.856955   -3.897565
     91          8           0        2.333179    0.531872   -3.249724
     92          6           0       -1.741463   -1.047384   -3.569503
     93          1           0       -1.801084   -1.782483   -2.754693
     94          1           0       -1.234732   -1.535878   -4.408081
     95          6           0       -3.168819   -0.717160   -3.926123
     96          8           0       -4.019453   -0.328621   -3.126569
     97          8           0       -3.454441   -0.876746   -5.216622
     98          7           0        1.508052   -1.551481   -3.734269
     99          1           0        0.679695   -2.163954   -3.712761
    100          6           0        2.168512   -1.803617   -5.018131
    101          1           0        2.089995   -0.896009   -5.630485
    102          6           0        1.315458   -2.950651   -5.712206
    103          6           0        3.660551   -2.154278   -4.924449
    104          1           0        4.176811   -1.403604   -4.313475
    105          1           0        4.052882   -2.088992   -5.945174
    106          8           0        1.872765   -3.529354   -6.661476
    107          6           0        3.915296   -3.575096   -4.408233
    108          1           0        3.309183   -4.238826   -5.037377
    109          1           0        3.594195   -3.683348   -3.364775
    110          6           0        5.380037   -3.985555   -4.545229
    111          1           0        6.012346   -3.506195   -3.788099
    112          1           0        5.749062   -3.711399   -5.542352
    113          7           0        5.492642   -5.453917   -4.384442
    114          1           0        4.623577   -5.967552   -4.479233
    115          7           0        7.807082   -5.535942   -4.479334
    116          1           0        8.665890   -5.984862   -4.195774
    117          1           0        7.854467   -4.563336   -4.745772
    118          7           0        6.606293   -7.472060   -4.072016
    119          1           0        7.386970   -8.051168   -4.348113
    120          1           0        5.730147   -7.948352   -3.909165
    121          6           0        6.621667   -6.145977   -4.323111
    122          8           0        0.182081   -3.150864   -5.185468
    123          1           0       -4.393641   -0.639894   -5.348165
 ---------------------------------------------------------------------
 Rotational constants (GHZ):           0.0448537           0.0175230           0.0152278
 Standard basis: 6-31G(d) (6D, 7F)
  1052 basis functions,  1980 primitive gaussians,  1052 cartesian basis functions
   232 alpha electrons      232 beta electrons
       nuclear repulsion energy      9417.0657188160 Hartrees.
 NAtoms=  123 NActive=  123 NUniq=  123 SFac= 1.00D+00 NAtFMM=   60 NAOKFM=T Big=T
 Integral buffers will be    131072 words long.
 Raffenetti 2 integral format.
 Two-electron integral symmetry is turned off.
 One-electron integrals computed using PRISM.
 NBasis=  1052 RedAO= T EigKep=  4.32D-04  NBF=  1052
 NBsUse=  1052 1.00D-06 EigRej= -1.00D+00 NBFU=  1052
 Initial guess from the checkpoint file:  "conf-727.chk"
 B after Tr=     0.000000    0.000000    0.000000
         Rot=    1.000000    0.000000    0.000000    0.000000 Ang=   0.00 deg.
 Requested convergence on RMS density matrix=1.00D-08 within 128 cycles.
 Requested convergence on MAX density matrix=1.00D-06.
 Requested convergence on             energy=1.00D-06.
 No special actions if energy rises.
 SCF Done:  E(RB3LYP) =  -2974.02710234     A.U. after    1 cycles
            NFock=  1  Conv=0.71D-08     -V/T= 2.0094
 Hyperfine terms turned off by default for NAtoms > 100.

 **********************************************************************

            Population analysis using the SCF Density.

 **********************************************************************

 Alpha  occ. eigenvalues --  -19.28323 -19.23511 -19.23057 -19.22316 -19.20852
 Alpha  occ. eigenvalues --  -19.20741 -19.18171 -19.17659 -19.17454 -19.10119
 Alpha  occ. eigenvalues --  -19.09104 -14.52227 -14.52035 -14.51633 -14.50769
 Alpha  occ. eigenvalues --  -14.46084 -14.44648 -14.44157 -14.42044 -14.41557
 Alpha  occ. eigenvalues --  -14.39428 -10.48269 -10.41312 -10.39440 -10.37461
 Alpha  occ. eigenvalues --  -10.37453 -10.35661 -10.35431 -10.34920 -10.34244
 Alpha  occ. eigenvalues --  -10.33945 -10.31359 -10.31223 -10.30925 -10.30669
 Alpha  occ. eigenvalues --  -10.30431 -10.30166 -10.29890 -10.29024 -10.28039
 Alpha  occ. eigenvalues --  -10.27687 -10.27685 -10.27445 -10.27371 -10.27362
 Alpha  occ. eigenvalues --  -10.27133 -10.27007 -10.26027 -10.25345 -10.25245
 Alpha  occ. eigenvalues --  -10.25050 -10.25038 -10.25006 -10.24928 -10.24918
 Alpha  occ. eigenvalues --  -10.24673 -10.24575 -10.24409 -10.24040 -10.23644
 Alpha  occ. eigenvalues --  -10.22709 -10.21715  -1.19657  -1.16770  -1.14611
 Alpha  occ. eigenvalues --   -1.12550  -1.12148  -1.11162  -1.10297  -1.09911
 Alpha  occ. eigenvalues --   -1.09434  -1.08997  -1.06325  -1.05721  -1.05102
 Alpha  occ. eigenvalues --   -1.03115  -1.02332  -1.00899  -1.00474  -0.98950
 Alpha  occ. eigenvalues --   -0.98351  -0.96719  -0.94415  -0.94202  -0.91016
 Alpha  occ. eigenvalues --   -0.88919  -0.88518  -0.88011  -0.86863  -0.86074
 Alpha  occ. eigenvalues --   -0.84889  -0.83069  -0.82907  -0.82783  -0.81839
 Alpha  occ. eigenvalues --   -0.81621  -0.80391  -0.79969  -0.78541  -0.78144
 Alpha  occ. eigenvalues --   -0.76035  -0.74922  -0.74263  -0.73791  -0.73114
 Alpha  occ. eigenvalues --   -0.72914  -0.72443  -0.71363  -0.70350  -0.69671
 Alpha  occ. eigenvalues --   -0.69228  -0.68792  -0.68118  -0.67882  -0.67692
 Alpha  occ. eigenvalues --   -0.67293  -0.66864  -0.66697  -0.65716  -0.65254
 Alpha  occ. eigenvalues --   -0.64700  -0.64548  -0.64377  -0.63988  -0.63630
 Alpha  occ. eigenvalues --   -0.62556  -0.61830  -0.61250  -0.60909  -0.59997
 Alpha  occ. eigenvalues --   -0.59891  -0.59806  -0.59434  -0.58210  -0.57950
 Alpha  occ. eigenvalues --   -0.57677  -0.57463  -0.56964  -0.56476  -0.56283
 Alpha  occ. eigenvalues --   -0.55778  -0.55433  -0.55182  -0.54761  -0.54670
 Alpha  occ. eigenvalues --   -0.54203  -0.54167  -0.53803  -0.53687  -0.53015
 Alpha  occ. eigenvalues --   -0.52872  -0.52789  -0.51789  -0.51701  -0.51269
 Alpha  occ. eigenvalues --   -0.51205  -0.50627  -0.50408  -0.50226  -0.49798
 Alpha  occ. eigenvalues --   -0.49600  -0.49420  -0.49168  -0.49071  -0.49020
 Alpha  occ. eigenvalues --   -0.48788  -0.48501  -0.47997  -0.47878  -0.47755
 Alpha  occ. eigenvalues --   -0.47396  -0.47078  -0.46967  -0.46721  -0.46578
 Alpha  occ. eigenvalues --   -0.46282  -0.46064  -0.45559  -0.45458  -0.45247
 Alpha  occ. eigenvalues --   -0.45163  -0.45005  -0.44482  -0.44376  -0.44306
 Alpha  occ. eigenvalues --   -0.44148  -0.43898  -0.43771  -0.43424  -0.43381
 Alpha  occ. eigenvalues --   -0.43343  -0.43098  -0.43023  -0.42756  -0.42580
 Alpha  occ. eigenvalues --   -0.42482  -0.42368  -0.41815  -0.41406  -0.41155
 Alpha  occ. eigenvalues --   -0.40687  -0.40655  -0.40527  -0.40416  -0.40014
 Alpha  occ. eigenvalues --   -0.39163  -0.39048  -0.38394  -0.38218  -0.37900
 Alpha  occ. eigenvalues --   -0.37816  -0.37343  -0.37207  -0.37059  -0.36300
 Alpha  occ. eigenvalues --   -0.35568  -0.34864  -0.34577  -0.34303  -0.33588
 Alpha  occ. eigenvalues --   -0.33115  -0.32093  -0.31540  -0.31204  -0.31098
 Alpha  occ. eigenvalues --   -0.30894  -0.30512  -0.30409  -0.27259  -0.25439
 Alpha  occ. eigenvalues --   -0.24829  -0.23365
 Alpha virt. eigenvalues --   -0.12175  -0.09739  -0.08846  -0.08693  -0.08230
 Alpha virt. eigenvalues --   -0.08197  -0.06910  -0.06600  -0.06112  -0.04516
 Alpha virt. eigenvalues --   -0.04265  -0.04196  -0.03878  -0.03347  -0.03343
 Alpha virt. eigenvalues --   -0.02752  -0.01132  -0.00490   0.00352   0.00824
 Alpha virt. eigenvalues --    0.01250   0.01523   0.01634   0.01948   0.02326
 Alpha virt. eigenvalues --    0.02724   0.03094   0.03603   0.03709   0.03980
 Alpha virt. eigenvalues --    0.04431   0.04959   0.05058   0.05092   0.05495
 Alpha virt. eigenvalues --    0.05626   0.05995   0.06251   0.06451   0.06713
 Alpha virt. eigenvalues --    0.06845   0.07366   0.07421   0.07816   0.07933
 Alpha virt. eigenvalues --    0.08150   0.08275   0.08679   0.09013   0.09337
[...]
 Alpha virt. eigenvalues --    0.93919   0.94428   0.94521   0.94716   0.94951
 Alpha virt. eigenvalues --    0.95624   0.95984   0.96363   0.96746   0.97048
 Alpha virt. eigenvalues --    0.97506   0.97854   0.98165   0.98396   0.99038
 Alpha virt. eigenvalues --    0.99704   0.99907   1.00216   1.00683   1.01257
 Alpha virt. eigenvalues --    1.01484   1.01802   1.02906   1.03079   1.03560
 Alpha virt. eigenvalues --    1.03768   1.04192   1.04663   1.04838   1.05691
 Alpha virt. eigenvalues --    1.06061   1.06513   1.07638   1.07840   1.08683
 Alpha virt. eigenvalues --    1.08988   1.09613   1.10063   1.10332   1.10842
 Alpha virt. eigenvalues --    1.10936   1.11507   1.12165   1.12486   1.12858
 Alpha virt. eigenvalues --    1.13383   1.13511   1.14142   1.14262   1.14652
 Alpha virt. eigenvalues --    1.15128   1.15559   1.15939   1.16508   1.16767
 Alpha virt. eigenvalues --    1.17582   1.18503   1.18774   1.19097   1.19756
 Alpha virt. eigenvalues --    1.20502   1.21091   1.21323   1.21499   1.22798
 Alpha virt. eigenvalues --    1.23538   1.23916   1.24349   1.25073   1.25289
 Alpha virt. eigenvalues --    1.25774   1.26307   1.26888   1.27198   1.27820
 Alpha virt. eigenvalues --    1.28527   1.28965   1.29633   1.30360   1.31254
 Alpha virt. eigenvalues --    1.31731   1.31737   1.32240   1.32917   1.34022
 Alpha virt. eigenvalues --    1.34179   1.34723   1.35070   1.35831   1.36074
 Alpha virt. eigenvalues --    1.37168   1.37312   1.38122   1.38425   1.38634
 Alpha virt. eigenvalues --    1.39337   1.39870   1.40082   1.40400   1.40638
 Alpha virt. eigenvalues --    1.40782   1.40838   1.40948   1.41600   1.41947
 Alpha virt. eigenvalues --    1.42464   1.42800   1.43081   1.43959   1.44097
 Alpha virt. eigenvalues --    1.44588   1.45260   1.45615   1.46088   1.46156
 Alpha virt. eigenvalues --    1.46575   1.47403   1.50000   1.50280   1.51094
 Alpha virt. eigenvalues --    1.51165   1.51836   1.52427   1.53398   1.54122
 Alpha virt. eigenvalues --    1.54715   1.55781   1.55861   1.56626   1.57319
 Alpha virt. eigenvalues --    1.57626   1.58007   1.58484   1.58912   1.59814
 Alpha virt. eigenvalues --    1.59967   1.60777   1.61202   1.61727   1.62588
 Alpha virt. eigenvalues --    1.63409   1.64315   1.64618   1.64691   1.65441
 Alpha virt. eigenvalues --    1.66007   1.66179   1.66619   1.66717   1.67339
 Alpha virt. eigenvalues --    1.67687   1.67772   1.68237   1.68334   1.69074
 Alpha virt. eigenvalues --    1.69353   1.69958   1.70627   1.70747   1.70917
 Alpha virt. eigenvalues --    1.71029   1.71485   1.71879   1.72081   1.72395
 Alpha virt. eigenvalues --    1.72929   1.73054   1.73614   1.73733   1.74074
 Alpha virt. eigenvalues --    1.74121   1.75010   1.75239   1.75799   1.76032
 Alpha virt. eigenvalues --    1.76348   1.76574   1.77159   1.77238   1.77719
 Alpha virt. eigenvalues --    1.77809   1.78034   1.78365   1.79280   1.79512
 Alpha virt. eigenvalues --    1.79684   1.80579   1.80701   1.80964   1.81443
 Alpha virt. eigenvalues --    1.81748   1.81907   1.82451   1.82649   1.82748
 Alpha virt. eigenvalues --    1.83335   1.83555   1.83838   1.84467   1.84582
 Alpha virt. eigenvalues --    1.84898   1.85194   1.85243   1.85743   1.86187
 Alpha virt. eigenvalues --    1.86737   1.87269   1.87526   1.87917   1.88166
 Alpha virt. eigenvalues --    1.88788   1.89405   1.89557   1.89607   1.89691
 Alpha virt. eigenvalues --    1.89994   1.90105   1.90290   1.90576   1.91060
 Alpha virt. eigenvalues --    1.91204   1.91839   1.91984   1.92108   1.92493
 Alpha virt. eigenvalues --    1.92650   1.93300   1.93337   1.93796   1.93899
 Alpha virt. eigenvalues --    1.94458   1.95448   1.95487   1.96135   1.96441
 Alpha virt. eigenvalues --    1.96950   1.97221   1.97353   1.97823   1.98160
 Alpha virt. eigenvalues --    1.98856   1.98926   1.99054   1.99694   2.00586
 Alpha virt. eigenvalues --    2.00761   2.00938   2.01097   2.02113   2.02361
 Alpha virt. eigenvalues --    2.02991   2.03056   2.03805   2.04082   2.04263
 Alpha virt. eigenvalues --    2.05017   2.05212   2.06111   2.06187   2.06639
 Alpha virt. eigenvalues --    2.06750   2.07038   2.07252   2.07502   2.07815
 Alpha virt. eigenvalues --    2.08304   2.08800   2.09036   2.09805   2.10467
 Alpha virt. eigenvalues --    2.10844   2.11699   2.12265   2.13023   2.13376
 Alpha virt. eigenvalues --    2.13709   2.15457   2.15689   2.16657   2.16858
 Alpha virt. eigenvalues --    2.18695   2.18864   2.19239   2.19664   2.19925
 Alpha virt. eigenvalues --    2.20354   2.20607   2.20801   2.21189   2.21880
 Alpha virt. eigenvalues --    2.22271   2.22540   2.22741   2.23408   2.23735
 Alpha virt. eigenvalues --    2.24170   2.25162   2.25438   2.25699   2.26228
 Alpha virt. eigenvalues --    2.27593   2.27774   2.27924   2.28342   2.29094
 Alpha virt. eigenvalues --    2.29308   2.29567   2.30139   2.31679   2.32234
 Alpha virt. eigenvalues --    2.32568   2.32741   2.33347   2.34202   2.34249
 Alpha virt. eigenvalues --    2.34656   2.34909   2.35642   2.35885   2.36734
 Alpha virt. eigenvalues --    2.37118   2.38245   2.38631   2.39028   2.39679
 Alpha virt. eigenvalues --    2.40482   2.40624   2.40822   2.41311   2.41703
 Alpha virt. eigenvalues --    2.42138   2.42903   2.43587   2.44398   2.44556
 Alpha virt. eigenvalues --    2.44904   2.46373   2.46909   2.47503   2.48122
 Alpha virt. eigenvalues --    2.48576   2.49455   2.49584   2.50480   2.50663
 Alpha virt. eigenvalues --    2.51485   2.51713   2.51983   2.52362   2.52852
 Alpha virt. eigenvalues --    2.53022   2.53566   2.55682   2.56064   2.56873
 Alpha virt. eigenvalues --    2.56982   2.57193   2.58147   2.58578   2.59168
 Alpha virt. eigenvalues --    2.59506   2.59691   2.60508   2.61417   2.62216
 Alpha virt. eigenvalues --    2.62340   2.63140   2.64040   2.64470   2.65125
 Alpha virt. eigenvalues --    2.65730   2.66072   2.67313   2.67753   2.68600
 Alpha virt. eigenvalues --    2.69350   2.69840   2.70293   2.70525   2.71069
 Alpha virt. eigenvalues --    2.72021   2.72457   2.73745   2.74354   2.75052
 Alpha virt. eigenvalues --    2.76324   2.76894   2.77398   2.80174   2.80292
 Alpha virt. eigenvalues --    2.82398   2.83119   2.83265   2.84389   2.85913
 Alpha virt. eigenvalues --    2.86763   2.87878   2.89607   2.90745   2.91001
 Alpha virt. eigenvalues --    2.91145   2.91996   2.92163   2.92629   2.94414
 Alpha virt. eigenvalues --    2.94981   2.95802   2.97172   2.97696   2.98039
 Alpha virt. eigenvalues --    2.99048   2.99196   3.01173   3.06439   3.07051
 Alpha virt. eigenvalues --    3.08176   3.08691   3.12331   3.14306   3.15074
 Alpha virt. eigenvalues --    3.17893   3.32284   3.35999   3.64354   3.70167
 Alpha virt. eigenvalues --    3.77201   3.87507   3.88857   3.89278   3.92658
 Alpha virt. eigenvalues --    3.93040   3.94674   3.95223   3.96921   4.00693
 Alpha virt. eigenvalues --    4.01227   4.01728   4.03364   4.04112   4.05266
 Alpha virt. eigenvalues --    4.05576   4.06237   4.06467   4.06605   4.08646
 Alpha virt. eigenvalues --    4.10106   4.10893   4.12141   4.13029   4.13692
 Alpha virt. eigenvalues --    4.16062   4.16818   4.18833   4.19431   4.21849
 Alpha virt. eigenvalues --    4.24035   4.24224   4.25089   4.26276   4.26488
 Alpha virt. eigenvalues --    4.26851   4.28061   4.29653   4.30748   4.33610
 Alpha virt. eigenvalues --    4.33888   4.36228   4.38150   4.39249   4.40563
 Alpha virt. eigenvalues --    4.42168   4.42705   4.48285   4.48835   4.50662
 Alpha virt. eigenvalues --    4.51587   4.53436   4.54263   4.56672   4.57439
 Alpha virt. eigenvalues --    4.60288   4.60684   4.62050   4.65719   4.70243
          Condensed to atoms (all electrons):
 Mulliken charges:
               1
     1  N   -0.844602
     2  H    0.436713
     3  H    0.462339
     4  H    0.419171
     5  C   -0.088126
     6  H    0.213135
     7  C    0.633818
     8  C   -0.382036
     9  H    0.188858
    10  H    0.189516
    11  O   -0.544117
    12  C    0.130139
    13  C   -0.214876
    14  H    0.148431
    15  C   -0.177397
    16  H    0.136660
    17  C   -0.121093
    18  H    0.157240
    19  C   -0.124845
    20  H    0.155112
    21  C   -0.126261
    22  H    0.156329
    23  N   -0.599302
    24  H    0.365409
    25  C   -0.083823
    26  H    0.203098
    27  C    0.623259
    28  C   -0.456745
    29  H    0.190674
    30  H    0.164698
    31  H    0.159478
    32  O   -0.511339
    33  N   -0.660678
    34  H    0.397044
    35  C   -0.000431
    36  H    0.175516
    37  C    0.607138
    38  C   -0.462701
    39  H    0.151927
    40  H    0.146487
    41  H    0.214588
    42  O   -0.574894
    43  N   -0.598257
    44  H    0.345458
    45  C   -0.061957
    46  H    0.186504
    47  C    0.634051
    48  C   -0.393857
    49  H    0.166845
    50  H    0.191554
    51  O   -0.519052
    52  C    0.166985
    53  C   -0.186507
    54  H    0.132179
    55  C   -0.217511
    56  H    0.130750
    57  C   -0.154990
    58  H    0.152244
    59  C   -0.190925
    60  H    0.130504
    61  O   -0.634364
    62  H    0.413060
    63  C    0.352554
    64  N   -0.647440
    65  H    0.381042
    66  C   -0.042488
    67  H    0.182122
    68  C    0.630044
    69  C   -0.249371
    70  H    0.135972
    71  H    0.135192
    72  O   -0.607044
    73  C   -0.068520
    74  H    0.135857
    75  C   -0.444236
    76  H    0.139372
    77  H    0.151316
    78  H    0.134913
    79  C   -0.462336
    80  H    0.129651
    81  H    0.181771
    82  H    0.148198
    83  N   -0.608273
    84  H    0.370632
    85  C   -0.037342
    86  H    0.161547
    87  C    0.589650
    88  C   -0.279999
    89  H    0.147748
    90  H    0.183165
    91  O   -0.544180
    92  C   -0.383815
    93  H    0.163625
    94  H    0.256300
    95  C    0.587724
    96  O   -0.513637
    97  O   -0.510604
    98  N   -0.614625
    99  H    0.357109
   100  C   -0.073953
   101  H    0.159575
   102  C    0.572384
   103  C   -0.255386
   104  H    0.148464
   105  H    0.155788
   106  O   -0.583905
   107  C   -0.324230
   108  H    0.195652
   109  H    0.153856
   110  C   -0.148442
   111  H    0.176042
   112  H    0.187258
   113  N   -0.601465
   114  H    0.372981
   115  N   -0.757127
   116  H    0.383677
   117  H    0.396744
   118  N   -0.760313
   119  H    0.381663
   120  H    0.383595
   121  C    0.828327
   122  O   -0.603176
   123  H    0.424173
 Sum of Mulliken charges =   1.00000
 Mulliken charges with hydrogens summed into heavy atoms:
               1
     1  N    0.473621
     5  C    0.125009
     7  C    0.633818
     8  C   -0.003662
    11  O   -0.544117
    12  C    0.130139
    13  C   -0.066445
    15  C   -0.040736
    17  C    0.036147
    19  C    0.030266
    21  C    0.030067
    23  N   -0.233893
    25  C    0.119274
    27  C    0.623259
    28  C    0.058105
    32  O   -0.511339
    33  N   -0.263633
    35  C    0.175085
    37  C    0.607138
    38  C    0.050301
    42  O   -0.574894
    43  N   -0.252799
    45  C    0.124547
    47  C    0.634051
    48  C   -0.035459
    51  O   -0.519052
    52  C    0.166985
    53  C   -0.054328
    55  C   -0.086761
    57  C   -0.002746
    59  C   -0.060420
    61  O   -0.221304
    63  C    0.352554
    64  N   -0.266399
    66  C    0.139634
    68  C    0.630044
    69  C    0.021793
    72  O   -0.607044
    73  C    0.067337
    75  C   -0.018635
    79  C   -0.002715
    83  N   -0.237642
    85  C    0.124205
    87  C    0.589650
    88  C    0.050914
    91  O   -0.544180
    92  C    0.036110
    95  C    0.587724
    96  O   -0.513637
    97  O   -0.086431
    98  N   -0.257516
   100  C    0.085622
   102  C    0.572384
   103  C    0.048865
   106  O   -0.583905
   107  C    0.025277
   110  C    0.214858
   113  N   -0.228485
   115  N    0.023294
   118  N    0.004946
   121  C    0.828327
   122  O   -0.603176
 Electronic spatial extent (au):  <R**2>=          75095.5753
 Charge=              1.0000 electrons
 Dipole moment (field-independent basis, Debye):
    X=             10.2498    Y=            -16.0878    Z=              0.4962  Tot=             19.0819
 Quadrupole moment (field-independent basis, Debye-Ang):
   XX=           -124.2532   YY=           -176.3087   ZZ=           -339.2820
   XY=           -158.9761   XZ=           -103.9635   YZ=             78.4755
 Traceless Quadrupole moment (field-independent basis, Debye-Ang):
   XX=             89.0281   YY=             36.9726   ZZ=           -126.0007
   XY=           -158.9761   XZ=           -103.9635   YZ=             78.4755
 Octapole moment (field-independent basis, Debye-Ang**2):
  XXX=           2596.8834  YYY=          -1758.3281  ZZZ=             91.5345  XYY=           1263.2195
  XXY=          -1577.9219  XXZ=           -875.9635  XZZ=            706.3833  YZZ=           -234.1829
  YYZ=           -220.8577  XYZ=            603.2576
 Hexadecapole moment (field-independent basis, Debye-Ang**3):
 XXXX=         -21384.7835 YYYY=         -26662.8374 ZZZZ=         -27629.6946 XXXY=           -362.0240
 XXXZ=           2617.8166 YYYX=          -1324.4161 YYYZ=          -1539.9933 ZZZX=           8081.8994
 ZZZY=          -8228.5906 XXYY=          -3319.6109 XXZZ=          -5716.0975 YYZZ=          -6563.4503
 XXYZ=           2500.8448 YYXZ=          -3225.5386 ZZXY=           -675.6108
 N-N= 9.417065718816D+03 E-N=-2.572985771849D+04  KE= 2.946365315276D+03
 Unable to Open any file for archive entry.
 1\1\GINC-AMR-168\SP\RB3LYP\6-31G(d)\C41H61N10O11(1+)\KENGMITH\18-Jul-2
 022\0\\# B3LYP/6-31G* guess=read geom=check nosymm integral(ultrafineg
 rid)\\Candidate Structure: Conf:727 Charge calc in gas phase\\1,1\N,0,
 -3.8818056641,0.4980566513,-0.4489505101\H,0,-3.8714551156,0.136776134
 8,-1.4292793966\H,0,-2.9054054202,0.7491204284,-0.1839211013\H,0,-4.47
 75154197,1.3481896284,-0.4028941478\C,0,-4.4992586446,-0.4733605251,0.
 522310639\H,0,-5.0880382878,-1.1799615775,-0.0716904644\C,0,-5.4908280
 694,0.3897102612,1.34825135\C,0,-3.3925779846,-1.2198026148,1.29722334
 35\H,0,-2.8793272503,-0.5071619257,1.9515583867\H,0,-2.6447179502,-1.5
 416322964,0.561668631\O,0,-5.8624931577,1.4660010348,0.8611445554\C,0,
 -3.873911094,-2.4219858066,2.0888838024\C,0,-3.708368488,-2.4709157815
 ,3.4811340754\H,0,-3.2294926524,-1.6396674925,3.9944152539\C,0,-4.4710
 020993,-3.5171120907,1.4454778289\H,0,-4.5913724459,-3.5131072819,0.36
 3973519\C,0,-4.1378910294,-3.5808845914,4.214064775\H,0,-3.9983752804,
 -3.6012462654,5.291052194\C,0,-4.8997418937,-4.6250350766,2.1751468114
 \H,0,-5.3580160193,-5.4644310467,1.6601046141\C,0,-4.7369684815,-4.658
 6873006,3.562548716\H,0,-5.0718522311,-5.5220707746,4.1298247926\N,0,-
 5.8901959462,-0.0521697496,2.5486280501\H,0,-5.509157641,-0.9191873742
 ,2.9129720383\C,0,-6.715839689,0.7684105154,3.4580069237\H,0,-7.360335
 7217,1.3778708183,2.8168475911\C,0,-5.8019456385,1.7255036886,4.286419
 3368\C,0,-7.5533980752,-0.125302407,4.3640860581\H,0,-8.1517744101,0.4
 90591497,5.0384956336\H,0,-6.9177392463,-0.7613556061,4.9884698337\H,0
 ,-8.2209556632,-0.7547511098,3.7681978664\O,0,-5.799865407,1.711078337
 1,5.5104493131\N,0,-5.0244581643,2.5270449443,3.5118803445\H,0,-5.1408
 412795,2.4896675813,2.5029760247\C,0,-3.9354745562,3.37722758,3.968146
 023\H,0,-4.3347304431,4.2773877831,4.457046194\C,0,-3.1656400422,3.782
 7656223,2.6963415829\C,0,-2.9750833589,2.6675147099,4.9442164645\H,0,-
 2.1795156651,3.3490000762,5.2612898193\H,0,-2.5133430022,1.8015480841,
 4.4570259828\H,0,-3.5280425058,2.330083641,5.821448645\O,0,-3.29308546
 89,3.1395702877,1.6436251698\N,0,-2.3105859922,4.8191520054,2.80840761
 16\H,0,-2.3514383068,5.3822613653,3.6496690447\C,0,-1.6266876538,5.422
 4641968,1.6525189124\H,0,-2.3240642802,5.3541048108,0.8073886714\C,0,-
 0.3363127926,4.6601301632,1.2378066092\C,0,-1.3035329793,6.9001584288,
 1.9457749307\H,0,-0.5244713719,6.9422434374,2.7155445254\H,0,-0.843390
 3937,7.3113561367,1.0425819524\O,0,0.7130233282,5.2573626954,1.0221891
 417\C,0,-2.5081880369,7.7125176217,2.3707724458\C,0,-3.5390421538,8.01
 64708736,1.4657469159\H,0,-3.4627523501,7.6833521427,0.4327354608\C,0,
 -2.6375390314,8.1779646126,3.6841575385\H,0,-1.8431366222,7.9868897396
 ,4.4036031832\C,0,-4.655378803,8.7466987405,1.8537196181\H,0,-5.445890
 8278,8.9861750842,1.1496371721\C,0,-3.7529720132,8.913805992,4.0919709
 429\H,0,-3.8248352943,9.2723838476,5.1170362049\O,0,-5.8858566453,9.91
 12497748,3.4979908945\H,0,-5.8325600575,10.1940653938,4.4243719059\C,0
 ,-4.7680987379,9.199288767,3.1756125914\N,0,-0.4837319532,3.3155267793
 ,1.1050853306\H,0,-1.4150199189,2.9131011074,1.1875135102\C,0,0.579237
 384,2.4453545387,0.6248871288\H,0,1.2772801977,3.0575974606,0.04676153
 17\C,0,-0.0633907719,1.3780492804,-0.2649550734\C,0,1.3334037163,1.717
 3194864,1.7687802226\H,0,0.5888359666,1.1364254915,2.329128321\H,0,2.0
 232572319,0.990280239,1.3150039034\O,0,-1.1443108819,0.8474145345,0.06
 77177011\C,0,2.1252321065,2.6175956474,2.7369677965\H,0,1.4405100556,3
 .3854568864,3.1215428194\C,0,2.613002804,1.7799113622,3.9298486511\H,0
 ,3.30127264,0.9896733925,3.6022688908\H,0,3.1492158916,2.4048654379,4.
 6527603091\H,0,1.7788202978,1.2989049984,4.4552651575\C,0,3.299780156,
 3.3291892298,2.0498333795\H,0,3.9855331872,2.6038741646,1.5911115892\H
 ,0,2.954625988,4.0263001072,1.2813213446\H,0,3.8754525639,3.9096456635
 ,2.7798212811\N,0,0.6230837782,1.0056375169,-1.3506874542\H,0,1.489368
 3681,1.4632327887,-1.6358399082\C,0,0.2601744028,-0.1110185385,-2.2103
 851542\H,0,0.0530047138,-0.986433935,-1.5824279181\C,0,1.4907037873,-0
 .3616110379,-3.1160254364\C,0,-1.0008559303,0.2098066931,-3.0585945562
 \H,0,-1.6748491878,0.7866142865,-2.4208787852\H,0,-0.720897368,0.85695
 53769,-3.8975651165\O,0,2.3331792645,0.5318719996,-3.2497237746\C,0,-1
 .7414631123,-1.0473843222,-3.5695030749\H,0,-1.8010844354,-1.782482786
 3,-2.7546928819\H,0,-1.2347320379,-1.535877507,-4.4080811732\C,0,-3.16
 88187033,-0.7171596038,-3.9261231057\O,0,-4.0194528437,-0.3286207096,-
 3.1265690189\O,0,-3.454440724,-0.8767457427,-5.2166220906\N,0,1.508051
 7877,-1.5514813151,-3.7342687873\H,0,0.6796947375,-2.1639542639,-3.712
 760559\C,0,2.1685122694,-1.803617079,-5.0181314174\H,0,2.0899954967,-0
 .8960086645,-5.630485434\C,0,1.3154579085,-2.9506513828,-5.712206379\C
 ,0,3.6605513564,-2.1542783148,-4.9244491123\H,0,4.1768108596,-1.403604
 1758,-4.3134750691\H,0,4.0528819643,-2.088991859,-5.945174117\O,0,1.87
 27652448,-3.5293535535,-6.66147571\C,0,3.9152958589,-3.575096237,-4.40
 82325642\H,0,3.3091830681,-4.2388255708,-5.0373772169\H,0,3.5941952666
 ,-3.6833482839,-3.3647746118\C,0,5.3800370104,-3.9855549477,-4.5452291
 643\H,0,6.012345763,-3.5061946062,-3.7880994868\H,0,5.7490618062,-3.71
 13991879,-5.542351613\N,0,5.4926423763,-5.4539167558,-4.38444186\H,0,4
 .6235767408,-5.9675517383,-4.4792331614\N,0,7.8070815434,-5.5359418061
 ,-4.4793335545\H,0,8.6658900709,-5.9848621194,-4.1957735573\H,0,7.8544
 671563,-4.5633358235,-4.7457724564\N,0,6.6062934797,-7.47205978,-4.072
 0156132\H,0,7.3869703347,-8.0511677307,-4.3481133197\H,0,5.7301469927,
 -7.9483521626,-3.9091650608\C,0,6.6216671714,-6.1459771572,-4.32311076
 06\O,0,0.1820812689,-3.1508643058,-5.1854684723\H,0,-4.3936412769,-0.6
 398942154,-5.3481646345\\Version=ES64L-G16RevC.01\HF=-2974.0271023\RMS
 D=7.100e-09\Dipole=6.4861629,-7.8948989,-0.0850013\Quadrupole=66.19019
 87,27.4882242,-93.6784229,-118.1948005,-77.2943184,58.3446174\PG=C01 [
 X(C41H61N10O11)]\\@
 The archive entry for this job was punched.


 WISDOM IS KNOWING WHAT TO DO,
 SKILL IS KNOWING HOW TO DO IT,
 AND VIRTUE IS NOT DOING IT.
 Job cpu time:       0 days  0 hours  4 minutes 53.1 seconds.
 Elapsed time:       0 days  0 hours  1 minutes 21.3 seconds.
 File lengths (MBytes):  RWF=    688 Int=      0 D2E=      0 Chk=    112 Scr=     16
 Normal termination of Gaussian 16 at Mon Jul 18 02:04:06 2022.
