 Entering Gaussian System, Link 0=/opt/software/Gaussian/g16-AVX2-C.01/g16/g16
 Input=charge-conf-364.com
 Output=charge-conf-364.log
 Initial command:
 /opt/software/Gaussian/g16-AVX2-C.01/g16/l1.exe "/mnt/gs18/scratch/users/kengmith/Gau-22506.inp" -scrdir="/mnt/gs18/scratch/users/kengmith/"
 Entering Link 1 = /opt/software/Gaussian/g16-AVX2-C.01/g16/l1.exe PID=     22519.
  
 Copyright (c) 1988-2019, Gaussian, Inc.  All Rights Reserved.
  
 This is part of the Gaussian(R) 16 program.  It is based on
 the Gaussian(R) 09 system (copyright 2009, Gaussian, Inc.),
 the Gaussian(R) 03 system (copyright 2003, Gaussian, Inc.),
 the Gaussian(R) 98 system (copyright 1998, Gaussian, Inc.),
 the Gaussian(R) 94 system (copyright 1995, Gaussian, Inc.),
 the Gaussian 92(TM) system (copyright 1992, Gaussian, Inc.),
 the Gaussian 90(TM) system (copyright 1990, Gaussian, Inc.),
 the Gaussian 88(TM) system (copyright 1988, Gaussian, Inc.),
 the Gaussian 86(TM) system (copyright 1986, Carnegie Mellon
 University), and the Gaussian 82(TM) system (copyright 1983,
 Carnegie Mellon University). Gaussian is a federally registered
 trademark of Gaussian, Inc.
  
 This software contains proprietary and confidential information,
 including trade secrets, belonging to Gaussian, Inc.
  
 This software is provided under written license and may be
 used, copied, transmitted, or stored only in accord with that
 written license.
  
 The following legend is applicable only to US Government
 contracts under FAR:
  
                    RESTRICTED RIGHTS LEGEND
  
 Use, reproduction and disclosure by the US Government is
 subject to restrictions as set forth in subparagraphs (a)
 and (c) of the Commercial Computer Software - Restricted
 Rights clause in FAR 52.227-19.
  
 Gaussian, Inc.
 340 Quinnipiac St., Bldg. 40, Wallingford CT 06492
  
  
 ---------------------------------------------------------------
 Warning -- This program may not be used in any manner that
 competes with the business of Gaussian, Inc. or will provide
 assistance to any competitor of Gaussian, Inc.  The licensee
 of this program is prohibited from giving any competitor of
 Gaussian, Inc. access to this program.  By using this program,
 the user acknowledges that Gaussian, Inc. is engaged in the
 business of creating and licensing software in the field of
 computational chemistry and represents and warrants to the
 licensee that it is not a competitor of Gaussian, Inc. and that
 it will not use this program in any manner prohibited above.
 ---------------------------------------------------------------
  

 Cite this work as:
 Gaussian 16, Revision C.01,
 M. J. Frisch, G. W. Trucks, H. B. Schlegel, G. E. Scuseria, 
 M. A. Robb, J. R. Cheeseman, G. Scalmani, V. Barone, 
 G. A. Petersson, H. Nakatsuji, X. Li, M. Caricato, A. V. Marenich, 
 J. Bloino, B. G. Janesko, R. Gomperts, B. Mennucci, H. P. Hratchian, 
 J. V. Ortiz, A. F. Izmaylov, J. L. Sonnenberg, D. Williams-Young, 
 F. Ding, F. Lipparini, F. Egidi, J. Goings, B. Peng, A. Petrone, 
 T. Henderson, D. Ranasinghe, V. G. Zakrzewski, J. Gao, N. Rega, 
 G. Zheng, W. Liang, M. Hada, M. Ehara, K. Toyota, R. Fukuda, 
 J. Hasegawa, M. Ishida, T. Nakajima, Y. Honda, O. Kitao, H. Nakai, 
 T. Vreven, K. Throssell, J. A. Montgomery, Jr., J. E. Peralta, 
 F. Ogliaro, M. J. Bearpark, J. J. Heyd, E. N. Brothers, K. N. Kudin, 
 V. N. Staroverov, T. A. Keith, R. Kobayashi, J. Normand, 
 K. Raghavachari, A. P. Rendell, J. C. Burant, S. S. Iyengar, 
 J. Tomasi, M. Cossi, J. M. Millam, M. Klene, C. Adamo, R. Cammi, 
 J. W. Ochterski, R. L. Martin, K. Morokuma, O. Farkas, 
 J. B. Foresman, and D. J. Fox, Gaussian, Inc., Wallingford CT, 2019.
 
 ******************************************
 Gaussian 16:  ES64L-G16RevC.01  3-Jul-2019
                18-Jul-2022 
 ******************************************
 %mem=8gb
 %nproc=4
 Will use up to    4 processors via shared memory.
 %chk=conf-364.chk
 -------------------------------------------------------------------
 # B3LYP/6-31G* guess=read geom=check nosymm integral(ultrafinegrid)
 -------------------------------------------------------------------
 1/29=2,38=1,172=1/1;
 2/12=2,15=1,40=1/2;
 3/5=1,6=6,7=1,11=2,14=-4,25=1,30=1,74=-5,75=-5,116=-2/1,2,3;
 4/5=1/1;
 5/5=2,38=6/2;
 6/7=2,8=2,9=2,10=2,28=1/1;
 99/5=1,9=1/99;
 ------------------------------------------------------
 Candidate Structure: Conf:364 Charge calc in gas phase
 ------------------------------------------------------
 Structure from the checkpoint file:  "conf-364.chk"
 Charge =  1 Multiplicity = 1
 Redundant internal coordinates found in file.  (old form).
 N,0,-3.5909933114,5.1328668369,5.8355175864
 H,0,-3.1671743843,5.8821017297,6.387167072
 H,0,-3.8721287883,4.3778438556,6.4685398272
 H,0,-4.4490505729,5.4810590276,5.2984895549
 C,0,-2.7115255607,4.6263008905,4.7033655997
 H,0,-1.8625850745,5.3100852163,4.6226649823
 C,0,-3.6518594514,4.7864486267,3.4727997354
 C,0,-2.2208892382,3.1860636698,4.9837690298
 H,0,-3.0694048029,2.5009384511,4.8822729484
 H,0,-1.8741558728,3.1516193066,6.0259288115
 O,0,-4.7564273695,5.3155348596,3.6654263807
 C,0,-1.0882323193,2.76583678,4.0641557712
 C,0,-1.3108728992,1.8520858629,3.0231072753
 H,0,-2.2967221499,1.4159828926,2.8830364654
 C,0,0.1957712515,3.3060905443,4.233625049
 H,0,0.3922957648,3.997549301,5.0520207019
 C,0,-0.2726396982,1.5086899696,2.1521064376
 H,0,-0.4843207823,0.8210215636,1.339471835
 C,0,1.2316381934,2.952279339,3.3700617461
 H,0,2.2215175756,3.3756490593,3.5147342765
 C,0,1.0002065217,2.0583502558,2.3198661316
 H,0,1.8000872195,1.7931036452,1.6338238082
 N,0,-3.2046385771,4.3670512707,2.2858150991
 H,0,-2.351443475,3.8125287332,2.2845758514
 C,0,-4.1548744731,4.0690658065,1.2147311862
 H,0,-4.7888711366,4.9502843045,1.0765112259
 C,0,-5.0407529165,2.8746733426,1.6825231454
 C,0,-3.3907027508,3.7428209831,-0.0771435255
 H,0,-4.0765185845,3.6658808754,-0.9254888657
 H,0,-2.8557953022,2.7901004782,0.0056696258
 H,0,-2.6649029493,4.5283644398,-0.3056724166
 O,0,-4.8074681141,2.278415084,2.7332975105
 N,0,-6.0372496744,2.5346908341,0.8335430477
 H,0,-6.1478229383,3.0583466453,-0.0257574112
 C,0,-6.9076420126,1.3674385679,1.0142677179
 H,0,-6.7939650627,1.078110302,2.0642427522
 C,0,-6.4476950301,0.1560034297,0.1587700872
 C,0,-8.3657628684,1.7208854139,0.7241743056
 H,0,-8.9819998347,0.8252007082,0.8170976165
 H,0,-8.4866771278,2.0952065153,-0.2994026272
 H,0,-8.7210566264,2.4842637797,1.4223438524
 O,0,-7.2535819222,-0.6778976055,-0.2421524001
 N,0,-5.1167958609,0.0913776861,-0.0882739288
 H,0,-4.4585106441,0.6986500595,0.38477388
 C,0,-4.5044651611,-1.021131339,-0.788164505
 H,0,-4.9220393616,-1.9611992381,-0.40748201
 C,0,-3.0009706975,-0.950792746,-0.4714014839
 C,0,-4.7763437938,-0.9535259719,-2.3276116236
 H,0,-5.7955343307,-0.5702862686,-2.4327382361
 H,0,-4.0976736621,-0.221465479,-2.778679266
 O,0,-2.5183136541,0.0079516796,0.1460973804
 C,0,-4.6733451734,-2.2864404135,-3.0386819084
 C,0,-3.6019728455,-2.5916582388,-3.8943560705
 H,0,-2.809620326,-1.8612282286,-4.0401178473
 C,0,-5.6759120303,-3.2521184649,-2.8619725685
 H,0,-6.5214540672,-3.0295910637,-2.2144084864
 C,0,-3.5303846227,-3.8201262254,-4.5499736305
 H,0,-2.707904672,-4.0530410676,-5.2190668209
 C,0,-5.6143329552,-4.4827167723,-3.5115020079
 H,0,-6.4052441948,-5.2164231411,-3.366031725
 O,0,-4.4192551143,-5.9557643649,-5.0280117604
 H,0,-5.1898229114,-6.5119908041,-4.8336152424
 C,0,-4.5388376775,-4.7707943311,-4.3612325924
 N,0,-2.2551138637,-1.9845037996,-0.918245869
 H,0,-2.6936267797,-2.6242567685,-1.5729788763
 C,0,-0.7961327874,-1.9163352369,-0.9417701743
 H,0,-0.4546366752,-1.7367940433,0.0822608978
 C,0,-0.353735505,-0.7464961211,-1.8517337378
 C,0,-0.2536643233,-3.2631254801,-1.461287641
 H,0,-0.7226633601,-4.061257425,-0.8690839843
 H,0,-0.6038864724,-3.3846963966,-2.4948653119
 O,0,-0.910856742,-0.5202421859,-2.9244920183
 C,0,1.2768182154,-3.4433865551,-1.4201128376
 H,0,1.7380106067,-2.608428313,-1.9660909852
 C,0,1.8325392419,-3.4434001212,0.0127975126
 H,0,1.3801355971,-4.2474251782,0.6075916957
 H,0,2.9162086027,-3.6044530133,0.0070921557
 H,0,1.6510218763,-2.4985860102,0.5382993825
 C,0,1.660601228,-4.7428262261,-2.1449218245
 H,0,1.2221447229,-5.6164641139,-1.6458629353
 H,0,1.3107094029,-4.7407312124,-3.183583113
 H,0,2.7478120716,-4.8785917799,-2.1563789372
 N,0,0.6939068933,-0.020795539,-1.3950789323
 H,0,1.1287695062,-0.2048210841,-0.4971022611
 C,0,1.2675791224,1.0993074396,-2.1230007808
 H,0,1.3838055891,0.8107828516,-3.1743749569
 C,0,2.6383580229,1.3642522828,-1.4718461646
 C,0,0.344348388,2.3463495849,-2.0456171499
 H,0,-0.6692151373,1.9921705489,-2.2568799374
 H,0,0.3569686656,2.7366813744,-1.022550411
 O,0,2.837346823,1.0497425813,-0.2912135471
 C,0,0.7120818167,3.4534751911,-3.0505890783
 H,0,0.691892226,3.0692935533,-4.0746433544
 H,0,1.7205747347,3.8412800048,-2.8591417643
 C,0,-0.2304188926,4.6358099405,-3.0195164734
 O,0,-0.8183471511,5.1032524132,-3.9666051032
 O,0,-0.3458383653,5.1746054351,-1.7685233999
 N,0,3.5530769457,1.9615098377,-2.2541287008
 H,0,3.324903523,2.2525217826,-3.2005002795
 C,0,4.8234277257,2.512264831,-1.7865478216
 H,0,4.7682043097,2.6435686367,-0.7051024533
 C,0,5.0335941218,3.8874712252,-2.4627295451
 C,0,5.9849900885,1.5390562265,-2.1404113136
 H,0,5.8064442886,1.1613640969,-3.1570851983
 H,0,5.8927542756,0.6684297153,-1.4823306493
 O,0,4.6128003749,3.9443946011,-3.6824134599
 C,0,7.411927494,2.1365500261,-2.0379790425
 H,0,8.0691939257,1.434841511,-1.5103951905
 H,0,7.3893434281,3.063649649,-1.4564258593
 C,0,8.0815483118,2.4096642545,-3.3996408275
 H,0,8.1787450875,1.4761949171,-3.9656588305
 H,0,9.0958819033,2.7860164465,-3.2384468907
 N,0,7.3427854547,3.3584667802,-4.2470985074
 H,0,6.3400691103,3.1677381634,-4.3382550864
 N,0,8.8624194961,5.1428298,-4.3049765701
 H,0,9.0278321427,6.126998676,-4.1615016999
 H,0,9.6472113974,4.5204669645,-4.1968627482
 N,0,6.5907024429,5.4765437745,-4.7071203954
 H,0,6.7638878639,6.4609497159,-4.8501485357
 H,0,5.6461749765,5.1570428228,-4.3792922811
 C,0,7.6014180037,4.6679899466,-4.3897501857
 O,0,5.6659719546,4.7543246323,-1.8476452387
 H,0,-0.9099591723,5.9625573494,-1.8849792327
 Recover connectivity data from disk.
                           ----------------------------
                           !    Current Parameters    !
                           ! (Angstroms and Degrees)  !
 --------------------------                            --------------------------
 ! Name  Definition              Value                                          !
 --------------------------------------------------------------------------------
 ! R1    R(1,2)                  1.0224                                         !
 ! R2    R(1,3)                  1.0246                                         !
 ! R3    R(1,4)                  1.0705                                         !
 ! R4    R(1,5)                  1.5205                                         !
 ! R5    R(5,6)                  1.0931                                         !
 ! R6    R(5,7)                  1.557                                          !
 ! R7    R(5,8)                  1.5471                                         !
 ! R8    R(7,11)                 1.2398                                         !
 ! R9    R(7,23)                 1.336                                          !
 ! R10   R(8,9)                  1.0953                                         !
 ! R11   R(8,10)                 1.0989                                         !
 ! R12   R(8,12)                 1.5183                                         !
 ! R13   R(12,13)                1.403                                          !
 ! R14   R(12,15)                1.4033                                         !
 ! R15   R(13,14)                1.0871                                         !
 ! R16   R(13,17)                1.398                                          !
 ! R17   R(15,16)                1.0893                                         !
 ! R18   R(15,19)                1.3943                                         !
 ! R19   R(17,18)                1.0854                                         !
 ! R20   R(17,21)                1.3966                                         !
 ! R21   R(19,20)                1.0863                                         !
 ! R22   R(19,21)                1.3984                                         !
 ! R23   R(21,22)                1.0867                                         !
 ! R24   R(23,24)                1.0176                                         !
 ! R25   R(23,25)                1.4625                                         !
 ! R26   R(25,26)                1.0944                                         !
 ! R27   R(25,27)                1.5589                                         !
 ! R28   R(25,28)                1.536                                          !
 ! R29   R(27,32)                1.2305                                         !
 ! R30   R(27,33)                1.3525                                         !
 ! R31   R(28,29)                1.0936                                         !
 ! R32   R(28,30)                1.0957                                         !
 ! R33   R(28,31)                1.0937                                         !
 ! R34   R(33,34)                1.0123                                         !
 ! R35   R(33,35)                1.4672                                         !
 ! R36   R(35,36)                1.095                                          !
 ! R37   R(35,37)                1.5527                                         !
 ! R38   R(35,38)                1.5281                                         !
 ! R39   R(37,42)                1.227                                          !
 ! R40   R(37,43)                1.3552                                         !
 ! R41   R(38,39)                1.0912                                         !
 ! R42   R(38,40)                1.0966                                         !
 ! R43   R(38,41)                1.0938                                         !
 ! R44   R(43,44)                1.0129                                         !
 ! R45   R(43,45)                1.45                                           !
 ! R46   R(45,46)                1.0968                                         !
 ! R47   R(45,47)                1.5381                                         !
 ! R48   R(45,48)                1.5647                                         !
 ! R49   R(47,51)                1.2383                                         !
 ! R50   R(47,64)                1.3508                                         !
 ! R51   R(48,49)                1.0939                                         !
 ! R52   R(48,50)                1.0954                                         !
 ! R53   R(48,52)                1.5142                                         !
 ! R54   R(52,53)                1.4047                                         !
 ! R55   R(52,55)                1.4032                                         !
 ! R56   R(53,54)                1.0875                                         !
 ! R57   R(53,57)                1.3943                                         !
 ! R58   R(55,56)                1.088                                          !
 ! R59   R(55,59)                1.3929                                         !
 ! R60   R(57,58)                1.0855                                         !
 ! R61   R(57,63)                1.3987                                         !
 ! R62   R(59,60)                1.0886                                         !
 ! R63   R(59,63)                1.4006                                         !
 ! R64   R(61,62)                0.97                                           !
 ! R65   R(61,63)                1.3649                                         !
 ! R66   R(64,65)                1.015                                          !
 ! R67   R(64,66)                1.4608                                         !
 ! R68   R(66,67)                1.0943                                         !
 ! R69   R(66,68)                1.5467                                         !
 ! R70   R(66,69)                1.5421                                         !
 ! R71   R(68,72)                1.2298                                         !
 ! R72   R(68,83)                1.3538                                         !
 ! R73   R(69,70)                1.0989                                         !
 ! R74   R(69,71)                1.0981                                         !
 ! R75   R(69,73)                1.5416                                         !
 ! R76   R(73,74)                1.0991                                         !
 ! R77   R(73,75)                1.5369                                         !
 ! R78   R(73,79)                1.5366                                         !
 ! R79   R(75,76)                1.0977                                         !
 ! R80   R(75,77)                1.0956                                         !
 ! R81   R(75,78)                1.0963                                         !
 ! R82   R(79,80)                1.0975                                         !
 ! R83   R(79,81)                1.096                                          !
 ! R84   R(79,82)                1.0957                                         !
 ! R85   R(83,84)                1.0146                                         !
 ! R86   R(83,85)                1.4538                                         !
 ! R87   R(85,86)                1.0964                                         !
 ! R88   R(85,87)                1.5405                                         !
 ! R89   R(85,88)                1.5535                                         !
 ! R90   R(87,91)                1.2379                                         !
 ! R91   R(87,98)                1.3436                                         !
 ! R92   R(88,89)                1.0943                                         !
 ! R93   R(88,90)                1.0951                                         !
 ! R94   R(88,92)                1.5398                                         !
 ! R95   R(92,93)                1.0939                                         !
 ! R96   R(92,94)                1.0973                                         !
 ! R97   R(92,95)                1.5123                                         !
 ! R98   R(95,96)                1.2088                                         !
 ! R99   R(95,97)                1.367                                          !
 ! R100  R(97,123)               0.976                                          !
 ! R101  R(98,99)                1.0161                                         !
 ! R102  R(98,100)               1.4614                                         !
 ! R103  R(100,101)              1.0908                                         !
 ! R104  R(100,102)              1.5468                                         !
 ! R105  R(100,103)              1.5561                                         !
 ! R106  R(102,106)              1.2915                                         !
 ! R107  R(102,122)              1.2368                                         !
 ! R108  R(103,104)              1.0992                                         !
 ! R109  R(103,105)              1.0952                                         !
 ! R110  R(103,107)              1.5504                                         !
 ! R111  R(107,108)              1.0967                                         !
 ! R112  R(107,109)              1.0946                                         !
 ! R113  R(107,110)              1.5418                                         !
 ! R114  R(110,111)              1.096                                          !
 ! R115  R(110,112)              1.0938                                         !
 ! R116  R(110,113)              1.4711                                         !
 ! R117  R(113,114)              1.0248                                         !
 ! R118  R(113,121)              1.3424                                         !
 ! R119  R(115,116)              1.0082                                         !
 ! R120  R(115,117)              1.0074                                         !
 ! R121  R(115,121)              1.3501                                         !
 ! R122  R(118,119)              1.0097                                         !
 ! R123  R(118,120)              1.0496                                         !
 ! R124  R(118,121)              1.3327                                         !
 ! A1    A(2,1,3)              108.687                                          !
 ! A2    A(2,1,4)              111.383                                          !
 ! A3    A(2,1,5)              113.9625                                         !
 ! A4    A(3,1,4)              109.2504                                         !
 ! A5    A(3,1,5)              111.9153                                         !
 ! A6    A(4,1,5)              101.447                                          !
 ! A7    A(1,5,6)              107.2052                                         !
 ! A8    A(1,5,7)              101.8237                                         !
 ! A9    A(1,5,8)              111.0156                                         !
 ! A10   A(6,5,7)              110.2654                                         !
 ! A11   A(6,5,8)              110.4523                                         !
 ! A12   A(7,5,8)              115.5008                                         !
 ! A13   A(5,7,11)             117.3336                                         !
 ! A14   A(5,7,23)             117.8884                                         !
 ! A15   A(11,7,23)            124.7675                                         !
 ! A16   A(5,8,9)              108.6524                                         !
 ! A17   A(5,8,10)             107.5256                                         !
 ! A18   A(5,8,12)             112.61                                           !
 ! A19   A(9,8,10)             108.2232                                         !
 ! A20   A(9,8,12)             110.4061                                         !
 ! A21   A(10,8,12)            109.291                                          !
 ! A22   A(8,12,13)            120.7521                                         !
 ! A23   A(8,12,15)            120.1912                                         !
 ! A24   A(13,12,15)           119.049                                          !
 ! A25   A(12,13,14)           120.0542                                         !
 ! A26   A(12,13,17)           120.2936                                         !
 ! A27   A(14,13,17)           119.6484                                         !
 ! A28   A(12,15,16)           120.0133                                         !
 ! A29   A(12,15,19)           120.4841                                         !
 ! A30   A(16,15,19)           119.4981                                         !
 ! A31   A(13,17,18)           118.5055                                         !
 ! A32   A(13,17,21)           120.3536                                         !
 ! A33   A(18,17,21)           121.1342                                         !
 ! A34   A(15,19,20)           119.7109                                         !
 ! A35   A(15,19,21)           120.2917                                         !
 ! A36   A(20,19,21)           119.9973                                         !
 ! A37   A(17,21,19)           119.514                                          !
 ! A38   A(17,21,22)           119.9322                                         !
 ! A39   A(19,21,22)           120.5533                                         !
 ! A40   A(7,23,24)            116.9257                                         !
 ! A41   A(7,23,25)            119.8113                                         !
 ! A42   A(24,23,25)           115.6485                                         !
 ! A43   A(23,25,26)           107.7486                                         !
 ! A44   A(23,25,27)           107.792                                          !
 ! A45   A(23,25,28)           109.6326                                         !
 ! A46   A(26,25,27)           109.0043                                         !
 ! A47   A(26,25,28)           110.6725                                         !
 ! A48   A(27,25,28)           111.8616                                         !
 ! A49   A(25,27,32)           121.3178                                         !
 ! A50   A(25,27,33)           115.0186                                         !
 ! A51   A(32,27,33)           123.6349                                         !
 ! A52   A(25,28,29)           110.8173                                         !
 ! A53   A(25,28,30)           111.3444                                         !
 ! A54   A(25,28,31)           110.6925                                         !
 ! A55   A(29,28,30)           107.6737                                         !
 ! A56   A(29,28,31)           107.7354                                         !
 ! A57   A(30,28,31)           108.4417                                         !
 ! A58   A(27,33,34)           118.8978                                         !
 ! A59   A(27,33,35)           124.0368                                         !
 ! A60   A(34,33,35)           116.8256                                         !
 ! A61   A(33,35,36)           105.4695                                         !
 ! A62   A(33,35,37)           112.154                                          !
 ! A63   A(33,35,38)           111.0178                                         !
 ! A64   A(36,35,37)           106.9417                                         !
 ! A65   A(36,35,38)           110.0106                                         !
 ! A66   A(37,35,38)           111.0085                                         !
 ! A67   A(35,37,42)           121.0444                                         !
 ! A68   A(35,37,43)           115.3758                                         !
 ! A69   A(42,37,43)           123.5761                                         !
 ! A70   A(35,38,39)           109.4421                                         !
 ! A71   A(35,38,40)           111.1843                                         !
 ! A72   A(35,38,41)           110.499                                          !
 ! A73   A(39,38,40)           107.303                                          !
 ! A74   A(39,38,41)           109.5774                                         !
 ! A75   A(40,38,41)           108.769                                          !
 ! A76   A(37,43,44)           121.638                                          !
 ! A77   A(37,43,45)           122.6371                                         !
 ! A78   A(44,43,45)           114.2667                                         !
 ! A79   A(43,45,46)           109.226                                          !
 ! A80   A(43,45,47)           106.159                                          !
 ! A81   A(43,45,48)           111.6145                                         !
 ! A82   A(46,45,47)           109.8685                                         !
 ! A83   A(46,45,48)           108.2009                                         !
 ! A84   A(47,45,48)           111.7454                                         !
 ! A85   A(45,47,51)           121.2715                                         !
 ! A86   A(45,47,64)           115.8889                                         !
 ! A87   A(51,47,64)           122.8366                                         !
 ! A88   A(45,48,49)           105.7576                                         !
 ! A89   A(45,48,50)           109.047                                          !
 ! A90   A(45,48,52)           114.3401                                         !
 ! A91   A(49,48,50)           107.6695                                         !
 ! A92   A(49,48,52)           109.0644                                         !
 ! A93   A(50,48,52)           110.6561                                         !
 ! A94   A(48,52,53)           121.9513                                         !
 ! A95   A(48,52,55)           119.872                                          !
 ! A96   A(53,52,55)           118.1727                                         !
 ! A97   A(52,53,54)           119.4344                                         !
 ! A98   A(52,53,57)           121.1332                                         !
 ! A99   A(54,53,57)           119.4295                                         !
 ! A100  A(52,55,56)           119.3051                                         !
 ! A101  A(52,55,59)           121.1795                                         !
 ! A102  A(56,55,59)           119.5118                                         !
 ! A103  A(53,57,58)           121.1823                                         !
 ! A104  A(53,57,63)           119.8921                                         !
 ! A105  A(58,57,63)           118.9215                                         !
 ! A106  A(55,59,60)           120.069                                          !
 ! A107  A(55,59,63)           119.9062                                         !
 ! A108  A(60,59,63)           120.0226                                         !
 ! A109  A(62,61,63)           109.2879                                         !
 ! A110  A(57,63,59)           119.716                                          !
 ! A111  A(57,63,61)           117.4502                                         !
 ! A112  A(59,63,61)           122.8338                                         !
 ! A113  A(47,64,65)           117.2056                                         !
 ! A114  A(47,64,66)           121.4074                                         !
 ! A115  A(65,64,66)           116.7774                                         !
 ! A116  A(64,66,67)           107.7145                                         !
 ! A117  A(64,66,68)           109.296                                          !
 ! A118  A(64,66,69)           108.4222                                         !
 ! A119  A(67,66,68)           109.7061                                         !
 ! A120  A(67,66,69)           110.4123                                         !
 ! A121  A(68,66,69)           111.2071                                         !
 ! A122  A(66,68,72)           121.5188                                         !
 ! A123  A(66,68,83)           115.3619                                         !
 ! A124  A(72,68,83)           123.1067                                         !
 ! A125  A(66,69,70)           107.615                                          !
 ! A126  A(66,69,71)           107.5542                                         !
 ! A127  A(66,69,73)           116.2546                                         !
 ! A128  A(70,69,71)           106.9007                                         !
 ! A129  A(70,69,73)           108.9277                                         !
 ! A130  A(71,69,73)           109.1984                                         !
 ! A131  A(69,73,74)           108.3302                                         !
 ! A132  A(69,73,75)           112.5741                                         !
 ! A133  A(69,73,79)           109.5263                                         !
 ! A134  A(74,73,75)           108.1455                                         !
 ! A135  A(74,73,79)           107.6568                                         !
 ! A136  A(75,73,79)           110.4543                                         !
 ! A137  A(73,75,76)           110.8659                                         !
 ! A138  A(73,75,77)           110.6586                                         !
 ! A139  A(73,75,78)           112.7709                                         !
 ! A140  A(76,75,77)           107.6264                                         !
 ! A141  A(76,75,78)           107.6558                                         !
 ! A142  A(77,75,78)           107.0358                                         !
 ! A143  A(73,79,80)           111.0317                                         !
 ! A144  A(73,79,81)           111.4482                                         !
 ! A145  A(73,79,82)           110.9488                                         !
 ! A146  A(80,79,81)           107.7526                                         !
 ! A147  A(80,79,82)           107.6091                                         !
 ! A148  A(81,79,82)           107.884                                          !
 ! A149  A(68,83,84)           122.2096                                         !
 ! A150  A(68,83,85)           123.3309                                         !
 ! A151  A(84,83,85)           114.4423                                         !
 ! A152  A(83,85,86)           108.615                                          !
 ! A153  A(83,85,87)           105.7824                                         !
 ! A154  A(83,85,88)           111.0397                                         !
 ! A155  A(86,85,87)           110.87                                           !
 ! A156  A(86,85,88)           108.7837                                         !
 ! A157  A(87,85,88)           111.6964                                         !
 ! A158  A(85,87,91)           120.1633                                         !
 ! A159  A(85,87,98)           115.8563                                         !
 ! A160  A(91,87,98)           123.971                                          !
 ! A161  A(85,88,89)           106.3214                                         !
 ! A162  A(85,88,90)           109.0147                                         !
 ! A163  A(85,88,92)           113.7488                                         !
 ! A164  A(89,88,90)           107.8434                                         !
 ! A165  A(89,88,92)           109.1431                                         !
 ! A166  A(90,88,92)           110.5311                                         !
 ! A167  A(88,92,93)           110.7358                                         !
 ! A168  A(88,92,94)           111.0835                                         !
 ! A169  A(88,92,95)           113.5703                                         !
 ! A170  A(93,92,94)           107.7222                                         !
 ! A171  A(93,92,95)           106.3969                                         !
 ! A172  A(94,92,95)           107.0305                                         !
 ! A173  A(92,95,96)           126.1103                                         !
 ! A174  A(92,95,97)           112.3069                                         !
 ! A175  A(96,95,97)           121.5704                                         !
 ! A176  A(95,97,123)          104.9399                                         !
 ! A177  A(87,98,99)           121.1118                                         !
 ! A178  A(87,98,100)          124.9601                                         !
 ! A179  A(99,98,100)          112.6608                                         !
 ! A180  A(98,100,101)         108.5762                                         !
 ! A181  A(98,100,102)         108.2581                                         !
 ! A182  A(98,100,103)         109.9013                                         !
 ! A183  A(101,100,102)        109.4669                                         !
 ! A184  A(101,100,103)        109.7869                                         !
 ! A185  A(102,100,103)        110.8053                                         !
 ! A186  A(100,102,106)        114.0643                                         !
 ! A187  A(100,102,122)        118.3726                                         !
 ! A188  A(106,102,122)        127.2557                                         !
 ! A189  A(100,103,104)        107.6969                                         !
 ! A190  A(100,103,105)        107.3161                                         !
 ! A191  A(100,103,107)        115.5288                                         !
 ! A192  A(104,103,105)        105.6008                                         !
 ! A193  A(104,103,107)        110.0624                                         !
 ! A194  A(105,103,107)        110.1306                                         !
 ! A195  A(103,107,108)        109.682                                          !
 ! A196  A(103,107,109)        110.0302                                         !
 ! A197  A(103,107,110)        114.1831                                         !
 ! A198  A(108,107,109)        107.3793                                         !
 ! A199  A(108,107,110)        106.1358                                         !
 ! A200  A(109,107,110)        109.1558                                         !
 ! A201  A(107,110,111)        110.1057                                         !
 ! A202  A(107,110,112)        109.484                                          !
 ! A203  A(107,110,113)        113.8854                                         !
 ! A204  A(111,110,112)        106.6732                                         !
 ! A205  A(111,110,113)        107.2383                                         !
 ! A206  A(112,110,113)        109.1876                                         !
 ! A207  A(110,113,114)        114.9977                                         !
 ! A208  A(110,113,121)        126.4139                                         !
 ! A209  A(114,113,121)        111.1386                                         !
 ! A210  A(116,115,117)        117.3839                                         !
 ! A211  A(116,115,121)        120.3633                                         !
 ! A212  A(117,115,121)        121.1348                                         !
 ! A213  A(119,118,120)        119.6937                                         !
 ! A214  A(119,118,121)        119.6805                                         !
 ! A215  A(120,118,121)        115.0505                                         !
 ! A216  A(113,121,115)        121.0885                                         !
 ! A217  A(113,121,118)        118.1016                                         !
 ! A218  A(115,121,118)        120.6588                                         !
 ! D1    D(2,1,5,6)             -9.6041                                         !
 ! D2    D(2,1,5,7)           -125.4071                                         !
 ! D3    D(2,1,5,8)            111.1144                                         !
 ! D4    D(3,1,5,6)           -133.4342                                         !
 ! D5    D(3,1,5,7)            110.7628                                         !
 ! D6    D(3,1,5,8)            -12.7156                                         !
 ! D7    D(4,1,5,6)            110.203                                          !
 ! D8    D(4,1,5,7)             -5.6                                            !
 ! D9    D(4,1,5,8)           -129.0784                                         !
 ! D10   D(1,5,7,11)             4.0991                                         !
 ! D11   D(1,5,7,23)          -177.0191                                         !
 ! D12   D(6,5,7,11)          -109.4442                                         !
 ! D13   D(6,5,7,23)            69.4376                                         !
 ! D14   D(8,5,7,11)           124.4834                                         !
 ! D15   D(8,5,7,23)           -56.6348                                         !
 ! D16   D(1,5,8,9)             71.1751                                         !
 ! D17   D(1,5,8,10)           -45.7431                                         !
 ! D18   D(1,5,8,12)          -166.1944                                         !
 ! D19   D(6,5,8,9)           -170.0439                                         !
 ! D20   D(6,5,8,10)            73.0378                                         !
 ! D21   D(6,5,8,12)           -47.4135                                         !
 ! D22   D(7,5,8,9)            -44.0669                                         !
 ! D23   D(7,5,8,10)          -160.9851                                         !
 ! D24   D(7,5,8,12)            78.5636                                         !
 ! D25   D(5,7,23,24)           11.1024                                         !
 ! D26   D(5,7,23,25)          159.3714                                         !
 ! D27   D(11,7,23,24)        -170.1069                                         !
 ! D28   D(11,7,23,25)         -21.8378                                         !
 ! D29   D(5,8,12,13)         -106.4688                                         !
 ! D30   D(5,8,12,15)           72.5201                                         !
 ! D31   D(9,8,12,13)           15.1714                                         !
 ! D32   D(9,8,12,15)         -165.8397                                         !
 ! D33   D(10,8,12,13)         134.1                                            !
 ! D34   D(10,8,12,15)         -46.911                                          !
 ! D35   D(8,12,13,14)          -1.6078                                         !
 ! D36   D(8,12,13,17)         177.6787                                         !
 ! D37   D(15,12,13,14)        179.3919                                         !
 ! D38   D(15,12,13,17)         -1.3216                                         !
 ! D39   D(8,12,15,16)           2.5351                                         !
 ! D40   D(8,12,15,19)        -178.2435                                         !
 ! D41   D(13,12,15,16)       -178.4589                                         !
 ! D42   D(13,12,15,19)          0.7626                                         !
 ! D43   D(12,13,17,18)       -178.2531                                         !
 ! D44   D(12,13,17,21)          0.8221                                         !
 ! D45   D(14,13,17,18)          1.0363                                         !
 ! D46   D(14,13,17,21)       -179.8885                                         !
 ! D47   D(12,15,19,20)       -179.8057                                         !
 ! D48   D(12,15,19,21)          0.3035                                         !
 ! D49   D(16,15,19,20)         -0.5803                                         !
 ! D50   D(16,15,19,21)        179.5289                                         !
 ! D51   D(13,17,21,19)          0.2533                                         !
 ! D52   D(13,17,21,22)       -179.4858                                         !
 ! D53   D(18,17,21,19)        179.3039                                         !
 ! D54   D(18,17,21,22)         -0.4353                                         !
 ! D55   D(15,19,21,17)         -0.8146                                         !
 ! D56   D(15,19,21,22)        178.9229                                         !
 ! D57   D(20,19,21,17)        179.295                                          !
 ! D58   D(20,19,21,22)         -0.9676                                         !
 ! D59   D(7,23,25,26)          53.972                                          !
 ! D60   D(7,23,25,27)         -63.5314                                         !
 ! D61   D(7,23,25,28)         174.4845                                         !
 ! D62   D(24,23,25,26)       -157.3718                                         !
 ! D63   D(24,23,25,27)         85.1248                                         !
 ! D64   D(24,23,25,28)        -36.8593                                         !
 ! D65   D(23,25,27,32)         -6.2027                                         !
 ! D66   D(23,25,27,33)        175.677                                          !
 ! D67   D(26,25,27,32)       -122.8909                                         !
 ! D68   D(26,25,27,33)         58.9888                                         !
 ! D69   D(28,25,27,32)        114.392                                          !
 ! D70   D(28,25,27,33)        -63.7283                                         !
 ! D71   D(23,25,28,29)       -171.4083                                         !
 ! D72   D(23,25,28,30)         68.7705                                         !
 ! D73   D(23,25,28,31)        -51.9373                                         !
 ! D74   D(26,25,28,29)        -52.6883                                         !
 ! D75   D(26,25,28,30)       -172.5096                                         !
 ! D76   D(26,25,28,31)         66.7826                                         !
 ! D77   D(27,25,28,29)         69.0745                                         !
 ! D78   D(27,25,28,30)        -50.7468                                         !
 ! D79   D(27,25,28,31)       -171.4546                                         !
 ! D80   D(25,27,33,34)         -0.1256                                         !
 ! D81   D(25,27,33,35)        174.0623                                         !
 ! D82   D(32,27,33,34)       -178.1968                                         !
 ! D83   D(32,27,33,35)         -4.0089                                         !
 ! D84   D(27,33,35,36)         17.6097                                         !
 ! D85   D(27,33,35,37)        -98.439                                          !
 ! D86   D(27,33,35,38)        136.7333                                         !
 ! D87   D(34,33,35,36)       -168.092                                          !
 ! D88   D(34,33,35,37)         75.8593                                         !
 ! D89   D(34,33,35,38)        -48.9684                                         !
 ! D90   D(33,35,37,42)       -151.2318                                         !
 ! D91   D(33,35,37,43)         29.4445                                         !
 ! D92   D(36,35,37,42)         93.6125                                         !
 ! D93   D(36,35,37,43)        -85.7112                                         !
 ! D94   D(38,35,37,42)        -26.399                                          !
 ! D95   D(38,35,37,43)        154.2773                                         !
 ! D96   D(33,35,38,39)        177.1749                                         !
 ! D97   D(33,35,38,40)         58.811                                          !
 ! D98   D(33,35,38,41)        -62.0726                                         !
 ! D99   D(36,35,38,39)        -66.4645                                         !
 ! D100  D(36,35,38,40)        175.1716                                         !
 ! D101  D(36,35,38,41)         54.288                                          !
 ! D102  D(37,35,38,39)         51.7037                                         !
 ! D103  D(37,35,38,40)        -66.6603                                         !
 ! D104  D(37,35,38,41)        172.4561                                         !
 ! D105  D(35,37,43,44)         10.0756                                         !
 ! D106  D(35,37,43,45)        175.5023                                         !
 ! D107  D(42,37,43,44)       -169.2289                                         !
 ! D108  D(42,37,43,45)         -3.8022                                         !
 ! D109  D(37,43,45,46)        -43.8013                                         !
 ! D110  D(37,43,45,47)       -162.2121                                         !
 ! D111  D(37,43,45,48)         75.8026                                         !
 ! D112  D(44,43,45,46)        122.608                                          !
 ! D113  D(44,43,45,47)          4.1972                                         !
 ! D114  D(44,43,45,48)       -117.7881                                         !
 ! D115  D(43,45,47,51)         -7.1373                                         !
 ! D116  D(43,45,47,64)        173.4824                                         !
 ! D117  D(46,45,47,51)       -125.1227                                         !
 ! D118  D(46,45,47,64)         55.497                                          !
 ! D119  D(48,45,47,51)        114.7645                                         !
 ! D120  D(48,45,47,64)        -64.6158                                         !
 ! D121  D(43,45,48,49)        -36.8596                                         !
 ! D122  D(43,45,48,50)         78.6754                                         !
 ! D123  D(43,45,48,52)       -156.8687                                         !
 ! D124  D(46,45,48,49)         83.348                                          !
 ! D125  D(46,45,48,50)       -161.117                                          !
 ! D126  D(46,45,48,52)        -36.6611                                         !
 ! D127  D(47,45,48,49)       -155.5664                                         !
 ! D128  D(47,45,48,50)        -40.0314                                         !
 ! D129  D(47,45,48,52)         84.4246                                         !
 ! D130  D(45,47,64,65)         11.6655                                         !
 ! D131  D(45,47,64,66)        166.8138                                         !
 ! D132  D(51,47,64,65)       -167.7041                                         !
 ! D133  D(51,47,64,66)        -12.5558                                         !
 ! D134  D(45,48,52,53)       -108.0305                                         !
 ! D135  D(45,48,52,55)         72.7136                                         !
 ! D136  D(49,48,52,53)        133.8256                                         !
 ! D137  D(49,48,52,55)        -45.4302                                         !
 ! D138  D(50,48,52,53)         15.5649                                         !
 ! D139  D(50,48,52,55)       -163.691                                          !
 ! D140  D(48,52,53,54)          1.2098                                         !
 ! D141  D(48,52,53,57)       -179.4168                                         !
 ! D142  D(55,52,53,54)       -179.5222                                         !
 ! D143  D(55,52,53,57)         -0.1488                                         !
 ! D144  D(48,52,55,56)          0.1501                                         !
 ! D145  D(48,52,55,59)        179.4542                                         !
 ! D146  D(53,52,55,56)       -179.1337                                         !
 ! D147  D(53,52,55,59)          0.1704                                         !
 ! D148  D(52,53,57,58)        179.3858                                         !
 ! D149  D(52,53,57,63)          0.1253                                         !
 ! D150  D(54,53,57,58)         -1.2407                                         !
 ! D151  D(54,53,57,63)        179.4987                                         !
 ! D152  D(52,55,59,60)       -179.6308                                         !
 ! D153  D(52,55,59,63)         -0.1684                                         !
 ! D154  D(56,55,59,60)         -0.3281                                         !
 ! D155  D(56,55,59,63)        179.1343                                         !
 ! D156  D(53,57,63,59)         -0.1184                                         !
 ! D157  D(53,57,63,61)        179.952                                          !
 ! D158  D(58,57,63,59)       -179.3957                                         !
 ! D159  D(58,57,63,61)          0.6747                                         !
 ! D160  D(55,59,63,57)          0.1397                                         !
 ! D161  D(55,59,63,61)       -179.9347                                         !
 ! D162  D(60,59,63,57)        179.6024                                         !
 ! D163  D(60,59,63,61)         -0.472                                          !
 ! D164  D(62,61,63,57)       -178.3402                                         !
 ! D165  D(62,61,63,59)          1.7326                                         !
 ! D166  D(47,64,66,67)         58.7826                                         !
 ! D167  D(47,64,66,68)        -60.3532                                         !
 ! D168  D(47,64,66,69)        178.2748                                         !
 ! D169  D(65,64,66,67)       -145.9682                                         !
 ! D170  D(65,64,66,68)         94.896                                          !
 ! D171  D(65,64,66,69)        -26.4761                                         !
 ! D172  D(64,66,68,72)        -41.5009                                         !
 ! D173  D(64,66,68,83)        139.7532                                         !
 ! D174  D(67,66,68,72)       -159.3952                                         !
 ! D175  D(67,66,68,83)         21.859                                          !
 ! D176  D(69,66,68,72)         78.1688                                         !
 ! D177  D(69,66,68,83)       -100.5771                                         !
 ! D178  D(64,66,69,70)        -51.3756                                         !
 ! D179  D(64,66,69,71)         63.4814                                         !
 ! D180  D(64,66,69,73)       -173.7935                                         !
 ! D181  D(67,66,69,70)         66.4092                                         !
 ! D182  D(67,66,69,71)       -178.7338                                         !
 ! D183  D(67,66,69,73)        -56.0087                                         !
 ! D184  D(68,66,69,70)       -171.5637                                         !
 ! D185  D(68,66,69,71)        -56.7068                                         !
 ! D186  D(68,66,69,73)         66.0183                                         !
 ! D187  D(66,68,83,84)         -2.8287                                         !
 ! D188  D(66,68,83,85)        178.7629                                         !
 ! D189  D(72,68,83,84)        178.4476                                         !
 ! D190  D(72,68,83,85)          0.0392                                         !
 ! D191  D(66,69,73,74)        -55.0547                                         !
 ! D192  D(66,69,73,75)         64.4854                                         !
 ! D193  D(66,69,73,79)       -172.2173                                         !
 ! D194  D(70,69,73,74)       -176.7809                                         !
 ! D195  D(70,69,73,75)        -57.2408                                         !
 ! D196  D(70,69,73,79)         66.0565                                         !
 ! D197  D(71,69,73,74)         66.8062                                         !
 ! D198  D(71,69,73,75)       -173.6537                                         !
 ! D199  D(71,69,73,79)        -50.3565                                         !
 ! D200  D(69,73,75,76)         58.8922                                         !
 ! D201  D(69,73,75,77)        178.2362                                         !
 ! D202  D(69,73,75,78)        -61.9068                                         !
 ! D203  D(74,73,75,76)        178.5395                                         !
 ! D204  D(74,73,75,77)        -62.1165                                         !
 ! D205  D(74,73,75,78)         57.7405                                         !
 ! D206  D(79,73,75,76)        -63.886                                          !
 ! D207  D(79,73,75,77)         55.458                                          !
 ! D208  D(79,73,75,78)        175.315                                          !
 ! D209  D(69,73,79,80)        -62.1217                                         !
 ! D210  D(69,73,79,81)         58.0128                                         !
 ! D211  D(69,73,79,82)        178.2577                                         !
 ! D212  D(74,73,79,80)       -179.7067                                         !
 ! D213  D(74,73,79,81)        -59.5722                                         !
 ! D214  D(74,73,79,82)         60.6726                                         !
 ! D215  D(75,73,79,80)         62.4184                                         !
 ! D216  D(75,73,79,81)       -177.4471                                         !
 ! D217  D(75,73,79,82)        -57.2023                                         !
 ! D218  D(68,83,85,86)        -45.2047                                         !
 ! D219  D(68,83,85,87)       -164.2724                                         !
 ! D220  D(68,83,85,88)         74.3731                                         !
 ! D221  D(84,83,85,86)        136.2745                                         !
 ! D222  D(84,83,85,87)         17.2068                                         !
 ! D223  D(84,83,85,88)       -104.1477                                         !
 ! D224  D(83,85,87,91)        -26.2018                                         !
 ! D225  D(83,85,87,98)        154.8687                                         !
 ! D226  D(86,85,87,91)       -143.7674                                         !
 ! D227  D(86,85,87,98)         37.3031                                         !
 ! D228  D(88,85,87,91)         94.7275                                         !
 ! D229  D(88,85,87,98)        -84.202                                          !
 ! D230  D(83,85,88,89)        -46.2769                                         !
 ! D231  D(83,85,88,90)         69.7392                                         !
 ! D232  D(83,85,88,92)       -166.4191                                         !
 ! D233  D(86,85,88,89)         73.2001                                         !
 ! D234  D(86,85,88,90)       -170.7838                                         !
 ! D235  D(86,85,88,92)        -46.9422                                         !
 ! D236  D(87,85,88,89)       -164.0957                                         !
 ! D237  D(87,85,88,90)        -48.0797                                         !
 ! D238  D(87,85,88,92)         75.762                                          !
 ! D239  D(85,87,98,99)          2.6875                                         !
 ! D240  D(85,87,98,100)       168.8667                                         !
 ! D241  D(91,87,98,99)       -176.1965                                         !
 ! D242  D(91,87,98,100)       -10.0173                                         !
 ! D243  D(85,88,92,93)         57.4829                                         !
 ! D244  D(85,88,92,94)        -62.1733                                         !
 ! D245  D(85,88,92,95)        177.1186                                         !
 ! D246  D(89,88,92,93)        -61.0539                                         !
 ! D247  D(89,88,92,94)        179.2898                                         !
 ! D248  D(89,88,92,95)         58.5818                                         !
 ! D249  D(90,88,92,93)       -179.5013                                         !
 ! D250  D(90,88,92,94)         60.8425                                         !
 ! D251  D(90,88,92,95)        -59.8656                                         !
 ! D252  D(88,92,95,96)       -126.2259                                         !
 ! D253  D(88,92,95,97)         55.0446                                         !
 ! D254  D(93,92,95,96)         -4.1501                                         !
 ! D255  D(93,92,95,97)        177.1204                                         !
 ! D256  D(94,92,95,96)        110.8105                                         !
 ! D257  D(94,92,95,97)        -67.9191                                         !
 ! D258  D(92,95,97,123)       175.4042                                         !
 ! D259  D(96,95,97,123)        -3.3911                                         !
 ! D260  D(87,98,100,101)      -17.5435                                         !
 ! D261  D(87,98,100,102)     -136.3003                                         !
 ! D262  D(87,98,100,103)      102.5543                                         !
 ! D263  D(99,98,100,101)      149.6514                                         !
 ! D264  D(99,98,100,102)       30.8946                                         !
 ! D265  D(99,98,100,103)      -90.2508                                         !
 ! D266  D(98,100,102,106)     -36.5572                                         !
 ! D267  D(98,100,102,122)     149.3476                                         !
 ! D268  D(101,100,102,106)   -154.7478                                         !
 ! D269  D(101,100,102,122)     31.157                                          !
 ! D270  D(103,100,102,106)     84.027                                          !
 ! D271  D(103,100,102,122)    -90.0681                                         !
 ! D272  D(98,100,103,104)      41.5764                                         !
 ! D273  D(98,100,103,105)     -71.7005                                         !
 ! D274  D(98,100,103,107)     165.0418                                         !
 ! D275  D(101,100,103,104)    160.9367                                         !
 ! D276  D(101,100,103,105)     47.6598                                         !
 ! D277  D(101,100,103,107)    -75.5979                                         !
 ! D278  D(102,100,103,104)    -78.0271                                         !
 ! D279  D(102,100,103,105)    168.696                                          !
 ! D280  D(102,100,103,107)     45.4383                                         !
 ! D281  D(100,103,107,108)    134.2581                                         !
 ! D282  D(100,103,107,109)     16.3497                                         !
 ! D283  D(100,103,107,110)   -106.7829                                         !
 ! D284  D(104,103,107,108)   -103.53                                           !
 ! D285  D(104,103,107,109)    138.5616                                         !
 ! D286  D(104,103,107,110)     15.429                                          !
 ! D287  D(105,103,107,108)     12.4975                                         !
 ! D288  D(105,103,107,109)   -105.4109                                         !
 ! D289  D(105,103,107,110)    131.4564                                         !
 ! D290  D(103,107,110,111)    -60.5212                                         !
 ! D291  D(103,107,110,112)   -177.4963                                         !
 ! D292  D(103,107,110,113)     59.959                                          !
 ! D293  D(108,107,110,111)     60.4269                                         !
 ! D294  D(108,107,110,112)    -56.5483                                         !
 ! D295  D(108,107,110,113)   -179.0929                                         !
 ! D296  D(109,107,110,111)    175.8736                                         !
 ! D297  D(109,107,110,112)     58.8984                                         !
 ! D298  D(109,107,110,113)    -63.6462                                         !
 ! D299  D(107,110,113,114)    -48.3733                                         !
 ! D300  D(107,110,113,121)     98.5948                                         !
 ! D301  D(111,110,113,114)     73.7023                                         !
 ! D302  D(111,110,113,121)   -139.3297                                         !
 ! D303  D(112,110,113,114)   -171.0804                                         !
 ! D304  D(112,110,113,121)    -24.1123                                         !
 ! D305  D(110,113,121,115)     31.9297                                         !
 ! D306  D(110,113,121,118)   -152.5107                                         !
 ! D307  D(114,113,121,115)    179.9455                                         !
 ! D308  D(114,113,121,118)     -4.4948                                         !
 ! D309  D(116,115,121,113)   -163.2847                                         !
 ! D310  D(116,115,121,118)     21.2689                                         !
 ! D311  D(117,115,121,113)      4.3119                                         !
 ! D312  D(117,115,121,118)   -171.1345                                         !
 ! D313  D(119,118,121,113)   -177.993                                          !
 ! D314  D(119,118,121,115)     -2.4135                                         !
 ! D315  D(120,118,121,113)     28.4021                                         !
 ! D316  D(120,118,121,115)   -156.0183                                         !
 --------------------------------------------------------------------------------
 Symmetry turned off by external request.
 Stoichiometry    C41H61N10O11(1+)
 Framework group  C1[X(C41H61N10O11)]
 Deg. of freedom   363
 Full point group                 C1      NOp   1
                          Input orientation:                          
 ---------------------------------------------------------------------
 Center     Atomic      Atomic             Coordinates (Angstroms)
 Number     Number       Type             X           Y           Z
 ---------------------------------------------------------------------
      1          7           0       -3.590993    5.132867    5.835518
      2          1           0       -3.167174    5.882102    6.387167
      3          1           0       -3.872129    4.377844    6.468540
      4          1           0       -4.449051    5.481059    5.298490
      5          6           0       -2.711526    4.626301    4.703366
      6          1           0       -1.862585    5.310085    4.622665
      7          6           0       -3.651859    4.786449    3.472800
      8          6           0       -2.220889    3.186064    4.983769
      9          1           0       -3.069405    2.500938    4.882273
     10          1           0       -1.874156    3.151619    6.025929
     11          8           0       -4.756427    5.315535    3.665426
     12          6           0       -1.088232    2.765837    4.064156
     13          6           0       -1.310873    1.852086    3.023107
     14          1           0       -2.296722    1.415983    2.883036
     15          6           0        0.195771    3.306091    4.233625
     16          1           0        0.392296    3.997549    5.052021
     17          6           0       -0.272640    1.508690    2.152106
     18          1           0       -0.484321    0.821022    1.339472
     19          6           0        1.231638    2.952279    3.370062
     20          1           0        2.221518    3.375649    3.514734
     21          6           0        1.000207    2.058350    2.319866
     22          1           0        1.800087    1.793104    1.633824
     23          7           0       -3.204639    4.367051    2.285815
     24          1           0       -2.351443    3.812529    2.284576
     25          6           0       -4.154874    4.069066    1.214731
     26          1           0       -4.788871    4.950284    1.076511
     27          6           0       -5.040753    2.874673    1.682523
     28          6           0       -3.390703    3.742821   -0.077144
     29          1           0       -4.076519    3.665881   -0.925489
     30          1           0       -2.855795    2.790100    0.005670
     31          1           0       -2.664903    4.528364   -0.305672
     32          8           0       -4.807468    2.278415    2.733298
     33          7           0       -6.037250    2.534691    0.833543
     34          1           0       -6.147823    3.058347   -0.025757
     35          6           0       -6.907642    1.367439    1.014268
     36          1           0       -6.793965    1.078110    2.064243
     37          6           0       -6.447695    0.156003    0.158770
     38          6           0       -8.365763    1.720885    0.724174
     39          1           0       -8.982000    0.825201    0.817098
     40          1           0       -8.486677    2.095207   -0.299403
     41          1           0       -8.721057    2.484264    1.422344
     42          8           0       -7.253582   -0.677898   -0.242152
     43          7           0       -5.116796    0.091378   -0.088274
     44          1           0       -4.458511    0.698650    0.384774
     45          6           0       -4.504465   -1.021131   -0.788165
     46          1           0       -4.922039   -1.961199   -0.407482
     47          6           0       -3.000971   -0.950793   -0.471401
     48          6           0       -4.776344   -0.953526   -2.327612
     49          1           0       -5.795534   -0.570286   -2.432738
     50          1           0       -4.097674   -0.221465   -2.778679
     51          8           0       -2.518314    0.007952    0.146097
     52          6           0       -4.673345   -2.286440   -3.038682
     53          6           0       -3.601973   -2.591658   -3.894356
     54          1           0       -2.809620   -1.861228   -4.040118
     55          6           0       -5.675912   -3.252118   -2.861973
     56          1           0       -6.521454   -3.029591   -2.214408
     57          6           0       -3.530385   -3.820126   -4.549974
     58          1           0       -2.707905   -4.053041   -5.219067
     59          6           0       -5.614333   -4.482717   -3.511502
     60          1           0       -6.405244   -5.216423   -3.366032
     61          8           0       -4.419255   -5.955764   -5.028012
     62          1           0       -5.189823   -6.511991   -4.833615
     63          6           0       -4.538838   -4.770794   -4.361233
     64          7           0       -2.255114   -1.984504   -0.918246
     65          1           0       -2.693627   -2.624257   -1.572979
     66          6           0       -0.796133   -1.916335   -0.941770
     67          1           0       -0.454637   -1.736794    0.082261
     68          6           0       -0.353736   -0.746496   -1.851734
     69          6           0       -0.253664   -3.263125   -1.461288
     70          1           0       -0.722663   -4.061257   -0.869084
     71          1           0       -0.603886   -3.384696   -2.494865
     72          8           0       -0.910857   -0.520242   -2.924492
     73          6           0        1.276818   -3.443387   -1.420113
     74          1           0        1.738011   -2.608428   -1.966091
     75          6           0        1.832539   -3.443400    0.012798
     76          1           0        1.380136   -4.247425    0.607592
     77          1           0        2.916209   -3.604453    0.007092
     78          1           0        1.651022   -2.498586    0.538299
     79          6           0        1.660601   -4.742826   -2.144922
     80          1           0        1.222145   -5.616464   -1.645863
     81          1           0        1.310709   -4.740731   -3.183583
     82          1           0        2.747812   -4.878592   -2.156379
     83          7           0        0.693907   -0.020796   -1.395079
     84          1           0        1.128770   -0.204821   -0.497102
     85          6           0        1.267579    1.099307   -2.123001
     86          1           0        1.383806    0.810783   -3.174375
     87          6           0        2.638358    1.364252   -1.471846
     88          6           0        0.344348    2.346350   -2.045617
     89          1           0       -0.669215    1.992171   -2.256880
     90          1           0        0.356969    2.736681   -1.022550
     91          8           0        2.837347    1.049743   -0.291214
     92          6           0        0.712082    3.453475   -3.050589
     93          1           0        0.691892    3.069294   -4.074643
     94          1           0        1.720575    3.841280   -2.859142
     95          6           0       -0.230419    4.635810   -3.019516
     96          8           0       -0.818347    5.103252   -3.966605
     97          8           0       -0.345838    5.174605   -1.768523
     98          7           0        3.553077    1.961510   -2.254129
     99          1           0        3.324904    2.252522   -3.200500
    100          6           0        4.823428    2.512265   -1.786548
    101          1           0        4.768204    2.643569   -0.705102
    102          6           0        5.033594    3.887471   -2.462730
    103          6           0        5.984990    1.539056   -2.140411
    104          1           0        5.806444    1.161364   -3.157085
    105          1           0        5.892754    0.668430   -1.482331
    106          8           0        4.612800    3.944395   -3.682413
    107          6           0        7.411927    2.136550   -2.037979
    108          1           0        8.069194    1.434842   -1.510395
    109          1           0        7.389343    3.063650   -1.456426
    110          6           0        8.081548    2.409664   -3.399641
    111          1           0        8.178745    1.476195   -3.965659
    112          1           0        9.095882    2.786016   -3.238447
    113          7           0        7.342785    3.358467   -4.247099
    114          1           0        6.340069    3.167738   -4.338255
    115          7           0        8.862419    5.142830   -4.304977
    116          1           0        9.027832    6.126999   -4.161502
    117          1           0        9.647211    4.520467   -4.196863
    118          7           0        6.590702    5.476544   -4.707120
    119          1           0        6.763888    6.460950   -4.850149
    120          1           0        5.646175    5.157043   -4.379292
    121          6           0        7.601418    4.667990   -4.389750
    122          8           0        5.665972    4.754325   -1.847645
    123          1           0       -0.909959    5.962557   -1.884979
 ---------------------------------------------------------------------
 Rotational constants (GHZ):           0.0395193           0.0235501           0.0176180
 Standard basis: 6-31G(d) (6D, 7F)
  1052 basis functions,  1980 primitive gaussians,  1052 cartesian basis functions
   232 alpha electrons      232 beta electrons
       nuclear repulsion energy      9716.6768298843 Hartrees.
 NAtoms=  123 NActive=  123 NUniq=  123 SFac= 1.00D+00 NAtFMM=   60 NAOKFM=T Big=T
 Integral buffers will be    131072 words long.
 Raffenetti 2 integral format.
 Two-electron integral symmetry is turned off.
 One-electron integrals computed using PRISM.
 NBasis=  1052 RedAO= T EigKep=  4.28D-04  NBF=  1052
 NBsUse=  1052 1.00D-06 EigRej= -1.00D+00 NBFU=  1052
 Initial guess from the checkpoint file:  "conf-364.chk"
 B after Tr=     0.000000    0.000000    0.000000
         Rot=    1.000000    0.000000    0.000000    0.000000 Ang=   0.00 deg.
 Requested convergence on RMS density matrix=1.00D-08 within 128 cycles.
 Requested convergence on MAX density matrix=1.00D-06.
 Requested convergence on             energy=1.00D-06.
 No special actions if energy rises.
 SCF Done:  E(RB3LYP) =  -2974.03743232     A.U. after    2 cycles
            NFock=  2  Conv=0.75D-08     -V/T= 2.0094
 Hyperfine terms turned off by default for NAtoms > 100.

 **********************************************************************

            Population analysis using the SCF Density.

 **********************************************************************

 Alpha  occ. eigenvalues --  -19.26115 -19.25495 -19.22459 -19.21288 -19.19523
 Alpha  occ. eigenvalues --  -19.19507 -19.17902 -19.17657 -19.17319 -19.14868
 Alpha  occ. eigenvalues --  -19.13547 -14.58781 -14.48071 -14.46443 -14.45570
 Alpha  occ. eigenvalues --  -14.44492 -14.43189 -14.42597 -14.41910 -14.41842
 Alpha  occ. eigenvalues --  -14.41757 -10.42603 -10.41364 -10.39709 -10.38378
 Alpha  occ. eigenvalues --  -10.37746 -10.35933 -10.34989 -10.34951 -10.34470
 Alpha  occ. eigenvalues --  -10.34099 -10.32486 -10.31833 -10.30890 -10.30793
 Alpha  occ. eigenvalues --  -10.29785 -10.29768 -10.29727 -10.29665 -10.29476
 Alpha  occ. eigenvalues --  -10.28026 -10.27907 -10.27307 -10.27235 -10.27205
 Alpha  occ. eigenvalues --  -10.26587 -10.26332 -10.25768 -10.25562 -10.25240
 Alpha  occ. eigenvalues --  -10.24978 -10.24879 -10.24796 -10.24732 -10.24696
 Alpha  occ. eigenvalues --  -10.24055 -10.23900 -10.23801 -10.23585 -10.23195
 Alpha  occ. eigenvalues --  -10.22945 -10.22456  -1.18556  -1.16080  -1.13259
 Alpha  occ. eigenvalues --   -1.12490  -1.11140  -1.10532  -1.10046  -1.09831
 Alpha  occ. eigenvalues --   -1.09452  -1.08823  -1.07294  -1.07006  -1.05131
 Alpha  occ. eigenvalues --   -1.01837  -0.99685  -0.99342  -0.98993  -0.98401
 Alpha  occ. eigenvalues --   -0.98321  -0.97906  -0.97298  -0.95078  -0.91354
 Alpha  occ. eigenvalues --   -0.90178  -0.87841  -0.87368  -0.86341  -0.85571
 Alpha  occ. eigenvalues --   -0.84770  -0.83903  -0.83081  -0.82741  -0.81476
 Alpha  occ. eigenvalues --   -0.80601  -0.79448  -0.78644  -0.78340  -0.77670
 Alpha  occ. eigenvalues --   -0.75204  -0.74012  -0.73635  -0.73384  -0.72837
 Alpha  occ. eigenvalues --   -0.72051  -0.72018  -0.71659  -0.70955  -0.70242
 Alpha  occ. eigenvalues --   -0.68968  -0.68864  -0.68262  -0.66994  -0.66915
 Alpha  occ. eigenvalues --   -0.66844  -0.66553  -0.66076  -0.65685  -0.64874
 Alpha  occ. eigenvalues --   -0.64405  -0.64294  -0.63721  -0.63272  -0.63027
 Alpha  occ. eigenvalues --   -0.62505  -0.61640  -0.61422  -0.60516  -0.59406
 Alpha  occ. eigenvalues --   -0.59236  -0.58934  -0.58896  -0.58263  -0.57627
 Alpha  occ. eigenvalues --   -0.57041  -0.56668  -0.55859  -0.55404  -0.55095
 Alpha  occ. eigenvalues --   -0.54960  -0.54740  -0.54541  -0.54124  -0.54091
 Alpha  occ. eigenvalues --   -0.53746  -0.53429  -0.53178  -0.52862  -0.52510
 Alpha  occ. eigenvalues --   -0.52425  -0.52168  -0.51778  -0.51467  -0.51342
 Alpha  occ. eigenvalues --   -0.50914  -0.50686  -0.50296  -0.50094  -0.49864
 Alpha  occ. eigenvalues --   -0.49831  -0.49546  -0.49460  -0.49301  -0.49031
 Alpha  occ. eigenvalues --   -0.48741  -0.48606  -0.48413  -0.48260  -0.48127
 Alpha  occ. eigenvalues --   -0.47493  -0.47220  -0.47043  -0.46939  -0.46737
 Alpha  occ. eigenvalues --   -0.46686  -0.46405  -0.46057  -0.45936  -0.45591
 Alpha  occ. eigenvalues --   -0.45484  -0.44869  -0.44789  -0.44746  -0.44333
 Alpha  occ. eigenvalues --   -0.44164  -0.44090  -0.43846  -0.43623  -0.43324
 Alpha  occ. eigenvalues --   -0.42782  -0.42619  -0.42538  -0.42326  -0.42267
 Alpha  occ. eigenvalues --   -0.42215  -0.41755  -0.41429  -0.41260  -0.40875
 Alpha  occ. eigenvalues --   -0.40828  -0.40722  -0.40465  -0.40018  -0.39484
 Alpha  occ. eigenvalues --   -0.38768  -0.38632  -0.38258  -0.38141  -0.38081
 Alpha  occ. eigenvalues --   -0.37519  -0.37443  -0.36679  -0.36155  -0.34987
 Alpha  occ. eigenvalues --   -0.33983  -0.33717  -0.33471  -0.33435  -0.33228
 Alpha  occ. eigenvalues --   -0.33076  -0.32452  -0.32146  -0.31711  -0.30893
 Alpha  occ. eigenvalues --   -0.30663  -0.30506  -0.30102  -0.29924  -0.29534
 Alpha  occ. eigenvalues --   -0.26921  -0.26541
 Alpha virt. eigenvalues --   -0.11951  -0.09970  -0.09335  -0.08682  -0.07139
 Alpha virt. eigenvalues --   -0.05995  -0.05934  -0.05245  -0.05033  -0.04854
 Alpha virt. eigenvalues --   -0.04055  -0.03858  -0.03632  -0.02967  -0.02768
 Alpha virt. eigenvalues --   -0.02403  -0.01654  -0.00371   0.00243   0.00403
 Alpha virt. eigenvalues --    0.00588   0.01336   0.01402   0.01837   0.02296
 Alpha virt. eigenvalues --    0.02511   0.03232   0.03321   0.03836   0.04200
 Alpha virt. eigenvalues --    0.04615   0.04667   0.04895   0.05152   0.05239
 Alpha virt. eigenvalues --    0.05611   0.05874   0.06116   0.06308   0.06666
 Alpha virt. eigenvalues --    0.06892   0.07087   0.07245   0.07506   0.07806
 Alpha virt. eigenvalues --    0.07992   0.08312   0.08443   0.08596   0.08809
[...]
 Alpha virt. eigenvalues --    0.93779   0.94179   0.94427   0.94872   0.95309
 Alpha virt. eigenvalues --    0.95379   0.96134   0.96422   0.97072   0.97303
 Alpha virt. eigenvalues --    0.98042   0.98721   0.99127   0.99825   1.00158
 Alpha virt. eigenvalues --    1.00312   1.00374   1.01166   1.01595   1.01901
 Alpha virt. eigenvalues --    1.02261   1.03335   1.03671   1.03980   1.04544
 Alpha virt. eigenvalues --    1.04680   1.05507   1.06022   1.06278   1.06593
 Alpha virt. eigenvalues --    1.06811   1.07066   1.07619   1.08142   1.09131
 Alpha virt. eigenvalues --    1.09428   1.09644   1.10207   1.10551   1.11333
 Alpha virt. eigenvalues --    1.11920   1.12046   1.12734   1.13384   1.13501
 Alpha virt. eigenvalues --    1.14102   1.14530   1.14819   1.15933   1.15988
 Alpha virt. eigenvalues --    1.16566   1.17547   1.17815   1.18454   1.18492
 Alpha virt. eigenvalues --    1.19742   1.20056   1.20622   1.20741   1.20874
 Alpha virt. eigenvalues --    1.21375   1.22103   1.22747   1.22920   1.23352
 Alpha virt. eigenvalues --    1.24022   1.24979   1.25582   1.26072   1.26490
 Alpha virt. eigenvalues --    1.26657   1.26915   1.27253   1.27683   1.28021
 Alpha virt. eigenvalues --    1.28869   1.29400   1.30042   1.31497   1.31841
 Alpha virt. eigenvalues --    1.31973   1.32258   1.32821   1.33064   1.33609
 Alpha virt. eigenvalues --    1.34649   1.35401   1.35724   1.35920   1.36187
 Alpha virt. eigenvalues --    1.36807   1.37462   1.37840   1.39277   1.39351
 Alpha virt. eigenvalues --    1.39425   1.39611   1.39953   1.40804   1.40908
 Alpha virt. eigenvalues --    1.41141   1.41278   1.41425   1.41686   1.41833
 Alpha virt. eigenvalues --    1.42387   1.42920   1.43010   1.43709   1.44129
 Alpha virt. eigenvalues --    1.44646   1.44842   1.45826   1.46465   1.46638
 Alpha virt. eigenvalues --    1.46779   1.47358   1.48858   1.49094   1.50257
 Alpha virt. eigenvalues --    1.50609   1.51195   1.51823   1.52425   1.53235
 Alpha virt. eigenvalues --    1.53547   1.55275   1.55323   1.56105   1.56334
 Alpha virt. eigenvalues --    1.56556   1.56683   1.57750   1.58145   1.59104
 Alpha virt. eigenvalues --    1.60337   1.60920   1.60970   1.61406   1.61661
 Alpha virt. eigenvalues --    1.62437   1.62980   1.63934   1.64450   1.64877
 Alpha virt. eigenvalues --    1.65458   1.66457   1.66932   1.67109   1.67318
 Alpha virt. eigenvalues --    1.67547   1.68380   1.68848   1.69094   1.69586
 Alpha virt. eigenvalues --    1.70264   1.70609   1.70780   1.71223   1.71291
 Alpha virt. eigenvalues --    1.71668   1.72097   1.72422   1.72512   1.73083
 Alpha virt. eigenvalues --    1.73194   1.73770   1.73924   1.74191   1.74483
 Alpha virt. eigenvalues --    1.74676   1.75161   1.75445   1.75494   1.75779
 Alpha virt. eigenvalues --    1.76149   1.76576   1.77184   1.77418   1.77644
 Alpha virt. eigenvalues --    1.78322   1.78494   1.78621   1.78825   1.79064
 Alpha virt. eigenvalues --    1.79731   1.80599   1.80887   1.81109   1.81335
 Alpha virt. eigenvalues --    1.81781   1.81968   1.82570   1.82879   1.83124
 Alpha virt. eigenvalues --    1.83429   1.83669   1.83782   1.84097   1.84521
 Alpha virt. eigenvalues --    1.84920   1.85185   1.85713   1.85968   1.86349
 Alpha virt. eigenvalues --    1.86885   1.87670   1.87810   1.88011   1.88228
 Alpha virt. eigenvalues --    1.88530   1.88608   1.89018   1.89187   1.90157
 Alpha virt. eigenvalues --    1.90518   1.90698   1.91108   1.91284   1.91598
 Alpha virt. eigenvalues --    1.91693   1.92205   1.92413   1.92666   1.93376
 Alpha virt. eigenvalues --    1.93551   1.93997   1.94447   1.94753   1.95202
 Alpha virt. eigenvalues --    1.95293   1.95359   1.95637   1.95910   1.96601
 Alpha virt. eigenvalues --    1.97056   1.97494   1.97924   1.98352   1.98361
 Alpha virt. eigenvalues --    1.99088   1.99713   1.99958   2.00071   2.00494
 Alpha virt. eigenvalues --    2.00849   2.01147   2.01962   2.02399   2.02760
 Alpha virt. eigenvalues --    2.02992   2.03184   2.04227   2.04350   2.04530
 Alpha virt. eigenvalues --    2.05483   2.06297   2.06537   2.06888   2.07248
 Alpha virt. eigenvalues --    2.07324   2.07678   2.08276   2.08777   2.08975
 Alpha virt. eigenvalues --    2.09532   2.09723   2.09933   2.10621   2.11064
 Alpha virt. eigenvalues --    2.12116   2.12973   2.13405   2.13614   2.14006
 Alpha virt. eigenvalues --    2.14460   2.15642   2.16936   2.17461   2.17905
 Alpha virt. eigenvalues --    2.18268   2.18778   2.19156   2.19476   2.19894
 Alpha virt. eigenvalues --    2.20122   2.20400   2.21331   2.21874   2.22283
 Alpha virt. eigenvalues --    2.22769   2.23031   2.23629   2.24020   2.24368
 Alpha virt. eigenvalues --    2.24431   2.25254   2.25385   2.26207   2.26772
 Alpha virt. eigenvalues --    2.27140   2.27458   2.27812   2.28507   2.28727
 Alpha virt. eigenvalues --    2.28886   2.29993   2.30504   2.31606   2.32551
 Alpha virt. eigenvalues --    2.32980   2.32990   2.34061   2.34519   2.35053
 Alpha virt. eigenvalues --    2.35253   2.35527   2.35867   2.36668   2.36829
 Alpha virt. eigenvalues --    2.37418   2.37571   2.38398   2.39480   2.39768
 Alpha virt. eigenvalues --    2.40444   2.41289   2.41653   2.42063   2.42920
 Alpha virt. eigenvalues --    2.43753   2.44042   2.44261   2.45674   2.45854
 Alpha virt. eigenvalues --    2.46455   2.46998   2.47543   2.48081   2.48430
 Alpha virt. eigenvalues --    2.50027   2.50933   2.51277   2.51362   2.51748
 Alpha virt. eigenvalues --    2.52094   2.52227   2.53327   2.53495   2.54433
 Alpha virt. eigenvalues --    2.55436   2.55526   2.55788   2.56161   2.56893
 Alpha virt. eigenvalues --    2.56955   2.57833   2.58142   2.59121   2.59968
 Alpha virt. eigenvalues --    2.59980   2.60485   2.61196   2.61823   2.62362
 Alpha virt. eigenvalues --    2.63384   2.63752   2.64819   2.65693   2.65797
 Alpha virt. eigenvalues --    2.66094   2.66262   2.67120   2.67617   2.68109
 Alpha virt. eigenvalues --    2.68186   2.69449   2.70283   2.70648   2.71265
 Alpha virt. eigenvalues --    2.71564   2.72118   2.72651   2.74243   2.74402
 Alpha virt. eigenvalues --    2.75809   2.76434   2.77165   2.79499   2.80729
 Alpha virt. eigenvalues --    2.81473   2.81892   2.83604   2.83682   2.84936
 Alpha virt. eigenvalues --    2.87974   2.89197   2.89750   2.90670   2.90904
 Alpha virt. eigenvalues --    2.91319   2.92583   2.92907   2.93681   2.94206
 Alpha virt. eigenvalues --    2.95791   2.97245   2.97397   2.98164   2.99530
 Alpha virt. eigenvalues --    2.99656   3.01167   3.02649   3.04456   3.06879
 Alpha virt. eigenvalues --    3.07440   3.08479   3.11073   3.13933   3.15399
 Alpha virt. eigenvalues --    3.16604   3.32274   3.36621   3.64668   3.72071
 Alpha virt. eigenvalues --    3.76428   3.82849   3.88457   3.89384   3.90681
 Alpha virt. eigenvalues --    3.94004   3.95866   3.97610   3.98530   4.00320
 Alpha virt. eigenvalues --    4.01991   4.02741   4.03099   4.05273   4.06243
 Alpha virt. eigenvalues --    4.06586   4.07803   4.08622   4.09941   4.10135
 Alpha virt. eigenvalues --    4.10622   4.10890   4.12670   4.14098   4.16062
 Alpha virt. eigenvalues --    4.16900   4.18869   4.19254   4.20472   4.22198
 Alpha virt. eigenvalues --    4.23082   4.23657   4.24399   4.26656   4.27287
 Alpha virt. eigenvalues --    4.28255   4.29391   4.30624   4.31514   4.32878
 Alpha virt. eigenvalues --    4.34534   4.36788   4.38951   4.40616   4.42134
 Alpha virt. eigenvalues --    4.44182   4.44261   4.45769   4.48129   4.50067
 Alpha virt. eigenvalues --    4.52044   4.53189   4.54931   4.56772   4.60127
 Alpha virt. eigenvalues --    4.62325   4.63408   4.64165   4.67289   4.70865
          Condensed to atoms (all electrons):
 Mulliken charges:
               1
     1  N   -0.763739
     2  H    0.412011
     3  H    0.415094
     4  H    0.436848
     5  C   -0.112848
     6  H    0.224087
     7  C    0.662270
     8  C   -0.385114
     9  H    0.215535
    10  H    0.172735
    11  O   -0.540882
    12  C    0.123970
    13  C   -0.241037
    14  H    0.181712
    15  C   -0.178554
    16  H    0.121109
    17  C   -0.150797
    18  H    0.182580
    19  C   -0.130557
    20  H    0.155521
    21  C   -0.145719
    22  H    0.205752
    23  N   -0.581691
    24  H    0.374645
    25  C   -0.082545
    26  H    0.199366
    27  C    0.635712
    28  C   -0.502989
    29  H    0.171971
    30  H    0.205028
    31  H    0.181882
    32  O   -0.542764
    33  N   -0.599337
    34  H    0.340348
    35  C   -0.072226
    36  H    0.206933
    37  C    0.620690
    38  C   -0.452600
    39  H    0.199949
    40  H    0.152334
    41  H    0.156854
    42  O   -0.522669
    43  N   -0.641100
    44  H    0.366945
    45  C   -0.036575
    46  H    0.187190
    47  C    0.625532
    48  C   -0.358031
    49  H    0.184726
    50  H    0.167736
    51  O   -0.562671
    52  C    0.112255
    53  C   -0.230875
    54  H    0.180012
    55  C   -0.191171
    56  H    0.159892
    57  C   -0.163965
    58  H    0.147808
    59  C   -0.193085
    60  H    0.129929
    61  O   -0.636609
    62  H    0.411962
    63  C    0.354091
    64  N   -0.611092
    65  H    0.360591
    66  C   -0.039073
    67  H    0.160370
    68  C    0.645624
    69  C   -0.298454
    70  H    0.151574
    71  H    0.161989
    72  O   -0.545968
    73  C   -0.083700
    74  H    0.136211
    75  C   -0.449637
    76  H    0.147321
    77  H    0.154384
    78  H    0.136958
    79  C   -0.444817
    80  H    0.146730
    81  H    0.150271
    82  H    0.148859
    83  N   -0.629851
    84  H    0.358002
    85  C   -0.028165
    86  H    0.171892
    87  C    0.606796
    88  C   -0.282711
    89  H    0.184845
    90  H    0.164628
    91  O   -0.552042
    92  C   -0.365602
    93  H    0.183178
    94  H    0.198098
    95  C    0.565476
    96  O   -0.448245
    97  O   -0.570582
    98  N   -0.600214
    99  H    0.350976
   100  C   -0.035269
   101  H    0.175701
   102  C    0.580918
   103  C   -0.292116
   104  H    0.137782
   105  H    0.168368
   106  O   -0.652923
   107  C   -0.278543
   108  H    0.150954
   109  H    0.192800
   110  C   -0.165734
   111  H    0.177318
   112  H    0.143494
   113  N   -0.597957
   114  H    0.376676
   115  N   -0.765289
   116  H    0.368094
   117  H    0.370279
   118  N   -0.755995
   119  H    0.343701
   120  H    0.416659
   121  C    0.795026
   122  O   -0.557344
   123  H    0.405914
 Sum of Mulliken charges =   1.00000
 Mulliken charges with hydrogens summed into heavy atoms:
               1
     1  N    0.500214
     5  C    0.111240
     7  C    0.662270
     8  C    0.003155
    11  O   -0.540882
    12  C    0.123970
    13  C   -0.059326
    15  C   -0.057445
    17  C    0.031783
    19  C    0.024964
    21  C    0.060033
    23  N   -0.207046
    25  C    0.116822
    27  C    0.635712
    28  C    0.055892
    32  O   -0.542764
    33  N   -0.258989
    35  C    0.134708
    37  C    0.620690
    38  C    0.056537
    42  O   -0.522669
    43  N   -0.274155
    45  C    0.150615
    47  C    0.625532
    48  C   -0.005570
    51  O   -0.562671
    52  C    0.112255
    53  C   -0.050863
    55  C   -0.031279
    57  C   -0.016157
    59  C   -0.063155
    61  O   -0.224647
    63  C    0.354091
    64  N   -0.250502
    66  C    0.121297
    68  C    0.645624
    69  C    0.015109
    72  O   -0.545968
    73  C    0.052511
    75  C   -0.010975
    79  C    0.001044
    83  N   -0.271850
    85  C    0.143727
    87  C    0.606796
    88  C    0.066763
    91  O   -0.552042
    92  C    0.015675
    95  C    0.565476
    96  O   -0.448245
    97  O   -0.164668
    98  N   -0.249238
   100  C    0.140432
   102  C    0.580918
   103  C    0.014035
   106  O   -0.652923
   107  C    0.065211
   110  C    0.155078
   113  N   -0.221281
   115  N   -0.026915
   118  N    0.004366
   121  C    0.795026
   122  O   -0.557344
 Electronic spatial extent (au):  <R**2>=          65558.6768
 Charge=              1.0000 electrons
 Dipole moment (field-independent basis, Debye):
    X=              2.2838    Y=             18.9926    Z=             11.1093  Tot=             22.1213
 Quadrupole moment (field-independent basis, Debye-Ang):
   XX=           -167.7683   YY=           -218.8448   ZZ=           -238.7034
   XY=             17.9741   XZ=           -116.8887   YZ=             71.2879
 Traceless Quadrupole moment (field-independent basis, Debye-Ang):
   XX=             40.6706   YY=            -10.4060   ZZ=            -30.2646
   XY=             17.9741   XZ=           -116.8887   YZ=             71.2879
 Octapole moment (field-independent basis, Debye-Ang**2):
  XXX=           1881.4063  YYY=           -729.2032  ZZZ=           1541.8607  XYY=            206.1610
  XXY=            364.1146  XXZ=           -252.8389  XZZ=            169.1105  YZZ=            241.7704
  YYZ=            506.1093  XYZ=           -664.5526
 Hexadecapole moment (field-independent basis, Debye-Ang**3):
 XXXX=         -27757.0649 YYYY=         -18602.5919 ZZZZ=         -14097.4277 XXXY=           2508.9713
 XXXZ=          -1663.5883 YYYX=          -1428.8649 YYYZ=           -475.3874 ZZZX=            856.4998
 ZZZY=           1252.5743 XXYY=          -5404.5581 XXZZ=          -6344.8166 YYZZ=          -3140.9727
 XXYZ=          -2598.9583 YYXZ=          -1471.7414 ZZXY=          -1234.5299
 N-N= 9.716676829884D+03 E-N=-2.632992500067D+04  KE= 2.946364576554D+03
 Unable to Open any file for archive entry.
 1\1\GINC-SKL-142\SP\RB3LYP\6-31G(d)\C41H61N10O11(1+)\KENGMITH\18-Jul-2
 022\0\\# B3LYP/6-31G* guess=read geom=check nosymm integral(ultrafineg
 rid)\\Candidate Structure: Conf:364 Charge calc in gas phase\\1,1\N,0,
 -3.5909933114,5.1328668369,5.8355175864\H,0,-3.1671743843,5.8821017297
 ,6.387167072\H,0,-3.8721287883,4.3778438556,6.4685398272\H,0,-4.449050
 5729,5.4810590276,5.2984895549\C,0,-2.7115255607,4.6263008905,4.703365
 5997\H,0,-1.8625850745,5.3100852163,4.6226649823\C,0,-3.6518594514,4.7
 864486267,3.4727997354\C,0,-2.2208892382,3.1860636698,4.9837690298\H,0
 ,-3.0694048029,2.5009384511,4.8822729484\H,0,-1.8741558728,3.151619306
 6,6.0259288115\O,0,-4.7564273695,5.3155348596,3.6654263807\C,0,-1.0882
 323193,2.76583678,4.0641557712\C,0,-1.3108728992,1.8520858629,3.023107
 2753\H,0,-2.2967221499,1.4159828926,2.8830364654\C,0,0.1957712515,3.30
 60905443,4.233625049\H,0,0.3922957648,3.997549301,5.0520207019\C,0,-0.
 2726396982,1.5086899696,2.1521064376\H,0,-0.4843207823,0.8210215636,1.
 339471835\C,0,1.2316381934,2.952279339,3.3700617461\H,0,2.2215175756,3
 .3756490593,3.5147342765\C,0,1.0002065217,2.0583502558,2.3198661316\H,
 0,1.8000872195,1.7931036452,1.6338238082\N,0,-3.2046385771,4.367051270
 7,2.2858150991\H,0,-2.351443475,3.8125287332,2.2845758514\C,0,-4.15487
 44731,4.0690658065,1.2147311862\H,0,-4.7888711366,4.9502843045,1.07651
 12259\C,0,-5.0407529165,2.8746733426,1.6825231454\C,0,-3.3907027508,3.
 7428209831,-0.0771435255\H,0,-4.0765185845,3.6658808754,-0.9254888657\
 H,0,-2.8557953022,2.7901004782,0.0056696258\H,0,-2.6649029493,4.528364
 4398,-0.3056724166\O,0,-4.8074681141,2.278415084,2.7332975105\N,0,-6.0
 372496744,2.5346908341,0.8335430477\H,0,-6.1478229383,3.0583466453,-0.
 0257574112\C,0,-6.9076420126,1.3674385679,1.0142677179\H,0,-6.79396506
 27,1.078110302,2.0642427522\C,0,-6.4476950301,0.1560034297,0.158770087
 2\C,0,-8.3657628684,1.7208854139,0.7241743056\H,0,-8.9819998347,0.8252
 007082,0.8170976165\H,0,-8.4866771278,2.0952065153,-0.2994026272\H,0,-
 8.7210566264,2.4842637797,1.4223438524\O,0,-7.2535819222,-0.6778976055
 ,-0.2421524001\N,0,-5.1167958609,0.0913776861,-0.0882739288\H,0,-4.458
 5106441,0.6986500595,0.38477388\C,0,-4.5044651611,-1.021131339,-0.7881
 64505\H,0,-4.9220393616,-1.9611992381,-0.40748201\C,0,-3.0009706975,-0
 .950792746,-0.4714014839\C,0,-4.7763437938,-0.9535259719,-2.3276116236
 \H,0,-5.7955343307,-0.5702862686,-2.4327382361\H,0,-4.0976736621,-0.22
 1465479,-2.778679266\O,0,-2.5183136541,0.0079516796,0.1460973804\C,0,-
 4.6733451734,-2.2864404135,-3.0386819084\C,0,-3.6019728455,-2.59165823
 88,-3.8943560705\H,0,-2.809620326,-1.8612282286,-4.0401178473\C,0,-5.6
 759120303,-3.2521184649,-2.8619725685\H,0,-6.5214540672,-3.0295910637,
 -2.2144084864\C,0,-3.5303846227,-3.8201262254,-4.5499736305\H,0,-2.707
 904672,-4.0530410676,-5.2190668209\C,0,-5.6143329552,-4.4827167723,-3.
 5115020079\H,0,-6.4052441948,-5.2164231411,-3.366031725\O,0,-4.4192551
 143,-5.9557643649,-5.0280117604\H,0,-5.1898229114,-6.5119908041,-4.833
 6152424\C,0,-4.5388376775,-4.7707943311,-4.3612325924\N,0,-2.255113863
 7,-1.9845037996,-0.918245869\H,0,-2.6936267797,-2.6242567685,-1.572978
 8763\C,0,-0.7961327874,-1.9163352369,-0.9417701743\H,0,-0.4546366752,-
 1.7367940433,0.0822608978\C,0,-0.353735505,-0.7464961211,-1.8517337378
 \C,0,-0.2536643233,-3.2631254801,-1.461287641\H,0,-0.7226633601,-4.061
 257425,-0.8690839843\H,0,-0.6038864724,-3.3846963966,-2.4948653119\O,0
 ,-0.910856742,-0.5202421859,-2.9244920183\C,0,1.2768182154,-3.44338655
 51,-1.4201128376\H,0,1.7380106067,-2.608428313,-1.9660909852\C,0,1.832
 5392419,-3.4434001212,0.0127975126\H,0,1.3801355971,-4.2474251782,0.60
 75916957\H,0,2.9162086027,-3.6044530133,0.0070921557\H,0,1.6510218763,
 -2.4985860102,0.5382993825\C,0,1.660601228,-4.7428262261,-2.1449218245
 \H,0,1.2221447229,-5.6164641139,-1.6458629353\H,0,1.3107094029,-4.7407
 312124,-3.183583113\H,0,2.7478120716,-4.8785917799,-2.1563789372\N,0,0
 .6939068933,-0.020795539,-1.3950789323\H,0,1.1287695062,-0.2048210841,
 -0.4971022611\C,0,1.2675791224,1.0993074396,-2.1230007808\H,0,1.383805
 5891,0.8107828516,-3.1743749569\C,0,2.6383580229,1.3642522828,-1.47184
 61646\C,0,0.344348388,2.3463495849,-2.0456171499\H,0,-0.6692151373,1.9
 921705489,-2.2568799374\H,0,0.3569686656,2.7366813744,-1.022550411\O,0
 ,2.837346823,1.0497425813,-0.2912135471\C,0,0.7120818167,3.4534751911,
 -3.0505890783\H,0,0.691892226,3.0692935533,-4.0746433544\H,0,1.7205747
 347,3.8412800048,-2.8591417643\C,0,-0.2304188926,4.6358099405,-3.01951
 64734\O,0,-0.8183471511,5.1032524132,-3.9666051032\O,0,-0.3458383653,5
 .1746054351,-1.7685233999\N,0,3.5530769457,1.9615098377,-2.2541287008\
 H,0,3.324903523,2.2525217826,-3.2005002795\C,0,4.8234277257,2.51226483
 1,-1.7865478216\H,0,4.7682043097,2.6435686367,-0.7051024533\C,0,5.0335
 941218,3.8874712252,-2.4627295451\C,0,5.9849900885,1.5390562265,-2.140
 4113136\H,0,5.8064442886,1.1613640969,-3.1570851983\H,0,5.8927542756,0
 .6684297153,-1.4823306493\O,0,4.6128003749,3.9443946011,-3.6824134599\
 C,0,7.411927494,2.1365500261,-2.0379790425\H,0,8.0691939257,1.43484151
 1,-1.5103951905\H,0,7.3893434281,3.063649649,-1.4564258593\C,0,8.08154
 83118,2.4096642545,-3.3996408275\H,0,8.1787450875,1.4761949171,-3.9656
 588305\H,0,9.0958819033,2.7860164465,-3.2384468907\N,0,7.3427854547,3.
 3584667802,-4.2470985074\H,0,6.3400691103,3.1677381634,-4.3382550864\N
 ,0,8.8624194961,5.1428298,-4.3049765701\H,0,9.0278321427,6.126998676,-
 4.1615016999\H,0,9.6472113974,4.5204669645,-4.1968627482\N,0,6.5907024
 429,5.4765437745,-4.7071203954\H,0,6.7638878639,6.4609497159,-4.850148
 5357\H,0,5.6461749765,5.1570428228,-4.3792922811\C,0,7.6014180037,4.66
 79899466,-4.3897501857\O,0,5.6659719546,4.7543246323,-1.8476452387\H,0
 ,-0.9099591723,5.9625573494,-1.8849792327\\Version=ES64L-G16RevC.01\HF
 =-2974.0374323\RMSD=7.511e-09\Dipole=2.0495815,5.0905826,5.8139182\Qua
 drupole=30.2375703,-7.7365978,-22.5009725,13.3632965,-86.9038691,53.00
 07702\PG=C01 [X(C41H61N10O11)]\\@
 The archive entry for this job was punched.


 I LOVE THOSE WHO LONG FOR THE IMPOSSIBLE.

                                 -- GOETHE
 Job cpu time:       0 days  0 hours  7 minutes 30.8 seconds.
 Elapsed time:       0 days  0 hours  1 minutes 59.0 seconds.
 File lengths (MBytes):  RWF=    696 Int=      0 D2E=      0 Chk=    112 Scr=     16
 Normal termination of Gaussian 16 at Mon Jul 18 02:04:40 2022.
