 Entering Gaussian System, Link 0=/opt/software/Gaussian/g16-AVX2-C.01/g16/g16
 Input=charge-conf-929.com
 Output=charge-conf-929.log
 Initial command:
 /opt/software/Gaussian/g16-AVX2-C.01/g16/l1.exe "/mnt/gs18/scratch/users/kengmith/Gau-16393.inp" -scrdir="/mnt/gs18/scratch/users/kengmith/"
 Entering Link 1 = /opt/software/Gaussian/g16-AVX2-C.01/g16/l1.exe PID=     16403.
  
 Copyright (c) 1988-2019, Gaussian, Inc.  All Rights Reserved.
  
 This is part of the Gaussian(R) 16 program.  It is based on
 the Gaussian(R) 09 system (copyright 2009, Gaussian, Inc.),
 the Gaussian(R) 03 system (copyright 2003, Gaussian, Inc.),
 the Gaussian(R) 98 system (copyright 1998, Gaussian, Inc.),
 the Gaussian(R) 94 system (copyright 1995, Gaussian, Inc.),
 the Gaussian 92(TM) system (copyright 1992, Gaussian, Inc.),
 the Gaussian 90(TM) system (copyright 1990, Gaussian, Inc.),
 the Gaussian 88(TM) system (copyright 1988, Gaussian, Inc.),
 the Gaussian 86(TM) system (copyright 1986, Carnegie Mellon
 University), and the Gaussian 82(TM) system (copyright 1983,
 Carnegie Mellon University). Gaussian is a federally registered
 trademark of Gaussian, Inc.
  
 This software contains proprietary and confidential information,
 including trade secrets, belonging to Gaussian, Inc.
  
 This software is provided under written license and may be
 used, copied, transmitted, or stored only in accord with that
 written license.
  
 The following legend is applicable only to US Government
 contracts under FAR:
  
                    RESTRICTED RIGHTS LEGEND
  
 Use, reproduction and disclosure by the US Government is
 subject to restrictions as set forth in subparagraphs (a)
 and (c) of the Commercial Computer Software - Restricted
 Rights clause in FAR 52.227-19.
  
 Gaussian, Inc.
 340 Quinnipiac St., Bldg. 40, Wallingford CT 06492
  
  
 ---------------------------------------------------------------
 Warning -- This program may not be used in any manner that
 competes with the business of Gaussian, Inc. or will provide
 assistance to any competitor of Gaussian, Inc.  The licensee
 of this program is prohibited from giving any competitor of
 Gaussian, Inc. access to this program.  By using this program,
 the user acknowledges that Gaussian, Inc. is engaged in the
 business of creating and licensing software in the field of
 computational chemistry and represents and warrants to the
 licensee that it is not a competitor of Gaussian, Inc. and that
 it will not use this program in any manner prohibited above.
 ---------------------------------------------------------------
  

 Cite this work as:
 Gaussian 16, Revision C.01,
 M. J. Frisch, G. W. Trucks, H. B. Schlegel, G. E. Scuseria, 
 M. A. Robb, J. R. Cheeseman, G. Scalmani, V. Barone, 
 G. A. Petersson, H. Nakatsuji, X. Li, M. Caricato, A. V. Marenich, 
 J. Bloino, B. G. Janesko, R. Gomperts, B. Mennucci, H. P. Hratchian, 
 J. V. Ortiz, A. F. Izmaylov, J. L. Sonnenberg, D. Williams-Young, 
 F. Ding, F. Lipparini, F. Egidi, J. Goings, B. Peng, A. Petrone, 
 T. Henderson, D. Ranasinghe, V. G. Zakrzewski, J. Gao, N. Rega, 
 G. Zheng, W. Liang, M. Hada, M. Ehara, K. Toyota, R. Fukuda, 
 J. Hasegawa, M. Ishida, T. Nakajima, Y. Honda, O. Kitao, H. Nakai, 
 T. Vreven, K. Throssell, J. A. Montgomery, Jr., J. E. Peralta, 
 F. Ogliaro, M. J. Bearpark, J. J. Heyd, E. N. Brothers, K. N. Kudin, 
 V. N. Staroverov, T. A. Keith, R. Kobayashi, J. Normand, 
 K. Raghavachari, A. P. Rendell, J. C. Burant, S. S. Iyengar, 
 J. Tomasi, M. Cossi, J. M. Millam, M. Klene, C. Adamo, R. Cammi, 
 J. W. Ochterski, R. L. Martin, K. Morokuma, O. Farkas, 
 J. B. Foresman, and D. J. Fox, Gaussian, Inc., Wallingford CT, 2019.
 
 ******************************************
 Gaussian 16:  ES64L-G16RevC.01  3-Jul-2019
                26-May-2022 
 ******************************************
 %mem=8gb
 %nproc=4
 Will use up to    4 processors via shared memory.
 %chk=conf-929.chk
 -------------------------------------------------------------------
 # B3LYP/6-31G* guess=read geom=check nosymm integral(ultrafinegrid)
 -------------------------------------------------------------------
 1/29=2,38=1,172=1/1;
 2/12=2,15=1,40=1/2;
 3/5=1,6=6,7=1,11=2,14=-4,25=1,30=1,74=-5,75=-5,116=-2/1,2,3;
 4/5=1/1;
 5/5=2,38=6/2;
 6/7=2,8=2,9=2,10=2,28=1/1;
 99/5=1,9=1/99;
 ------------------------------------------------------
 Candidate Structure: Conf:929 Charge calc in gas phase
 ------------------------------------------------------
 Structure from the checkpoint file:  "conf-929.chk"
 Charge =  1 Multiplicity = 1
 Redundant internal coordinates found in file.  (old form).
 N,0,-1.8374080167,-3.7795969942,2.0330932771
 H,0,-2.7509289496,-3.5632964646,2.4417011062
 H,0,-1.9234071127,-3.7647825344,0.9712282584
 H,0,-1.5357299494,-4.6983506151,2.3712406046
 C,0,-0.7978876365,-2.6987715448,2.2674428756
 H,0,-1.1434756383,-2.0601904207,3.0830014525
 C,0,-0.7965279276,-1.9468039011,0.9036771808
 C,0,0.5562849672,-3.3602700864,2.6268064359
 H,0,0.3589386507,-4.067309483,3.4485998143
 H,0,0.8932545503,-3.9468007677,1.7633376767
 O,0,-1.3291260033,-2.5278141301,-0.0504095113
 C,0,1.6217200319,-2.390340577,3.032254604
 C,0,2.7924405666,-2.1590199517,2.3425238155
 H,0,3.1063973346,-2.5566239633,1.3878211265
 C,0,1.6842316278,-1.5909643778,4.2358082902
 C,0,2.9268735387,-0.8979303411,4.1968584329
 C,0,0.8375057499,-1.3998634726,5.3444802615
 H,0,-0.1079249501,-1.9328276028,5.4289247509
 N,0,3.5766608763,-1.2733224122,3.0329050677
 H,0,4.4772281811,-0.9155623854,2.7042306604
 C,0,2.4706142379,0.1457888514,6.2878221062
 H,0,2.7552777487,0.8106632144,7.0977029546
 C,0,3.3357883256,-0.0281787425,5.2143166696
 H,0,4.2988085792,0.474951091,5.1729524218
 C,0,1.2359061632,-0.5331097618,6.3538804964
 H,0,0.5924688838,-0.3808985934,7.2154906423
 N,0,-0.2799301335,-0.713039886,0.9175328497
 H,0,0.2322785952,-0.4759511427,1.7622355347
 C,0,0.0508702517,0.1179510408,-0.2592443387
 H,0,0.1142543761,1.1387073754,0.1386486757
 C,0,1.4747551308,-0.3121069416,-0.7085015608
 C,0,-1.0512129494,0.1314416475,-1.3575570942
 H,0,-1.1406491696,-0.8819721834,-1.7570284668
 O,0,1.8599054097,-1.4710086193,-0.5964530688
 C,0,-0.6965601365,1.0901980752,-2.5280107353
 H,0,-1.6339993724,1.5352663695,-2.8817877895
 H,0,-0.1091141638,1.9452236906,-2.1575402332
 C,0,-2.3991009743,0.5366778973,-0.7358973823
 H,0,-2.3616357188,1.5594251849,-0.3391077556
 H,0,-3.1807074649,0.5082822258,-1.501595578
 H,0,-2.7083802027,-0.1300449384,0.0737124078
 C,0,0.0013112363,0.4341825959,-3.7260471445
 H,0,0.1566367266,1.1696579203,-4.5232608114
 H,0,-0.6245026525,-0.3662466233,-4.1377182575
 H,0,0.976282926,0.0050441556,-3.4811631096
 N,0,2.2821149857,0.6916601161,-1.1397531146
 H,0,1.9076509278,1.6242495269,-1.2387175622
 C,0,3.7171598666,0.5004377423,-1.3634874199
 H,0,4.0583902153,1.3927755822,-1.9031919647
 C,0,3.9301115524,-0.6614681291,-2.3502329203
 C,0,4.4601181443,0.4060056268,-0.0141390241
 H,0,3.9894834103,1.1464236351,0.6458182454
 H,0,4.2567976027,-0.5747848323,0.4178530092
 O,0,3.2877113568,-0.814147551,-3.3602921361
 C,0,5.9695907939,0.679388424,-0.0411630566
 H,0,6.1729253015,1.6054117279,-0.5959278729
 H,0,6.4977853659,-0.1207031234,-0.5710704283
 C,0,6.5524090925,0.8582642102,1.366081461
 H,0,7.6021124007,1.1789279761,1.2962052392
 H,0,6.0045616604,1.6540985809,1.8834901737
 N,0,6.4295894954,-0.3648847564,2.1750288708
 H,0,6.8554430537,-1.1613032188,1.7035475077
 N,0,7.0392244632,-1.5926532765,4.0553114626
 H,0,7.2275740678,-1.5606620015,5.0509138032
 H,0,6.3348144194,-2.2820084742,3.8164869555
 N,0,7.0436804169,0.7154848272,4.2615433922
 H,0,7.0255186884,1.5826807938,3.7269910675
 C,0,6.8516590137,-0.3176112643,3.5310308014
 O,0,4.9676264013,-1.4538299261,-2.0058065687
 H,0,5.0450182204,-2.1235512831,-2.7128479738
 Recover connectivity data from disk.
                           ----------------------------
                           !    Current Parameters    !
                           ! (Angstroms and Degrees)  !
 --------------------------                            --------------------------
 ! Name  Definition              Value                                          !
 --------------------------------------------------------------------------------
 ! R1    R(1,2)                  1.0238                                         !
 ! R2    R(1,3)                  1.0654                                         !
 ! R3    R(1,4)                  1.0244                                         !
 ! R4    R(1,5)                  1.5178                                         !
 ! R5    R(5,6)                  1.0919                                         !
 ! R6    R(5,7)                  1.5573                                         !
 ! R7    R(5,8)                  1.5494                                         !
 ! R8    R(7,11)                 1.2375                                         !
 ! R9    R(7,27)                 1.3376                                         !
 ! R10   R(8,9)                  1.1019                                         !
 ! R11   R(8,10)                 1.0969                                         !
 ! R12   R(8,12)                 1.4968                                         !
 ! R13   R(12,13)                1.3783                                         !
 ! R14   R(12,15)                1.4462                                         !
 ! R15   R(13,14)                1.0808                                         !
 ! R16   R(13,19)                1.3697                                         !
 ! R17   R(15,16)                1.4234                                         !
 ! R18   R(15,17)                1.4081                                         !
 ! R19   R(16,19)                1.3849                                         !
 ! R20   R(16,23)                1.3996                                         !
 ! R21   R(17,18)                1.0886                                         !
 ! R22   R(17,25)                1.3888                                         !
 ! R23   R(19,20)                1.0233                                         !
 ! R24   R(21,22)                1.0858                                         !
 ! R25   R(21,23)                1.3897                                         !
 ! R26   R(21,25)                1.4106                                         !
 ! R27   R(23,24)                1.0873                                         !
 ! R28   R(25,26)                1.0861                                         !
 ! R29   R(27,28)                1.0159                                         !
 ! R30   R(27,29)                1.4781                                         !
 ! R31   R(29,30)                1.0974                                         !
 ! R32   R(29,31)                1.5538                                         !
 ! R33   R(29,32)                1.556                                          !
 ! R34   R(31,34)                1.2264                                         !
 ! R35   R(31,46)                1.3584                                         !
 ! R36   R(32,33)                1.093                                          !
 ! R37   R(32,35)                1.554                                          !
 ! R38   R(32,38)                1.5387                                         !
 ! R39   R(35,36)                1.0964                                         !
 ! R40   R(35,37)                1.1015                                         !
 ! R41   R(35,42)                1.5338                                         !
 ! R42   R(38,39)                1.0977                                         !
 ! R43   R(38,40)                1.0945                                         !
 ! R44   R(38,41)                1.0935                                         !
 ! R45   R(42,43)                1.0957                                         !
 ! R46   R(42,44)                1.0963                                         !
 ! R47   R(42,45)                1.093                                          !
 ! R48   R(46,47)                1.0098                                         !
 ! R49   R(46,48)                1.4649                                         !
 ! R50   R(48,49)                1.0973                                         !
 ! R51   R(48,50)                1.5392                                         !
 ! R52   R(48,51)                1.5433                                         !
 ! R53   R(50,54)                1.2067                                         !
 ! R54   R(50,69)                1.3501                                         !
 ! R55   R(51,52)                1.0978                                         !
 ! R56   R(51,53)                1.0908                                         !
 ! R57   R(51,55)                1.5343                                         !
 ! R58   R(55,56)                1.0985                                         !
 ! R59   R(55,57)                1.0954                                         !
 ! R60   R(55,58)                1.5336                                         !
 ! R61   R(58,59)                1.0998                                         !
 ! R62   R(58,60)                1.096                                          !
 ! R63   R(58,61)                1.4716                                         !
 ! R64   R(61,62)                1.0188                                         !
 ! R65   R(61,68)                1.421                                          !
 ! R66   R(63,64)                1.0138                                         !
 ! R67   R(63,65)                1.0141                                         !
 ! R68   R(63,68)                1.3913                                         !
 ! R69   R(66,67)                1.0189                                         !
 ! R70   R(66,68)                1.2798                                         !
 ! R71   R(69,70)                0.9769                                         !
 ! A1    A(2,1,3)              108.8319                                         !
 ! A2    A(2,1,4)              108.6923                                         !
 ! A3    A(2,1,5)              113.5173                                         !
 ! A4    A(3,1,4)              111.4207                                         !
 ! A5    A(3,1,5)              101.4939                                         !
 ! A6    A(4,1,5)              112.7052                                         !
 ! A7    A(1,5,6)              108.3611                                         !
 ! A8    A(1,5,7)              102.0772                                         !
 ! A9    A(1,5,8)              109.2923                                         !
 ! A10   A(6,5,7)              111.8357                                         !
 ! A11   A(6,5,8)              110.675                                          !
 ! A12   A(7,5,8)              114.1109                                         !
 ! A13   A(5,7,11)             116.6189                                         !
 ! A14   A(5,7,27)             115.8889                                         !
 ! A15   A(11,7,27)            127.3894                                         !
 ! A16   A(5,8,9)              106.882                                          !
 ! A17   A(5,8,10)             108.3138                                         !
 ! A18   A(5,8,12)             114.0987                                         !
 ! A19   A(9,8,10)             107.3977                                         !
 ! A20   A(9,8,12)             109.9539                                         !
 ! A21   A(10,8,12)            109.9424                                         !
 ! A22   A(8,12,13)            125.2963                                         !
 ! A23   A(8,12,15)            127.908                                          !
 ! A24   A(13,12,15)           106.6768                                         !
 ! A25   A(12,13,14)           128.8304                                         !
 ! A26   A(12,13,19)           110.0355                                         !
 ! A27   A(14,13,19)           121.1179                                         !
 ! A28   A(12,15,16)           106.5048                                         !
 ! A29   A(12,15,17)           134.7733                                         !
 ! A30   A(16,15,17)           118.7152                                         !
 ! A31   A(15,16,19)           107.4962                                         !
 ! A32   A(15,16,23)           122.5303                                         !
 ! A33   A(19,16,23)           129.967                                          !
 ! A34   A(15,17,18)           121.1242                                         !
 ! A35   A(15,17,25)           118.9772                                         !
 ! A36   A(18,17,25)           119.8878                                         !
 ! A37   A(13,19,16)           109.2849                                         !
 ! A38   A(13,19,20)           124.6168                                         !
 ! A39   A(16,19,20)           126.0246                                         !
 ! A40   A(22,21,23)           119.3151                                         !
 ! A41   A(22,21,25)           119.2914                                         !
 ! A42   A(23,21,25)           121.3906                                         !
 ! A43   A(16,23,21)           117.2237                                         !
 ! A44   A(16,23,24)           121.2424                                         !
 ! A45   A(21,23,24)           121.5245                                         !
 ! A46   A(17,25,21)           121.1592                                         !
 ! A47   A(17,25,26)           119.6106                                         !
 ! A48   A(21,25,26)           119.2272                                         !
 ! A49   A(7,27,28)            114.7452                                         !
 ! A50   A(7,27,29)            126.6365                                         !
 ! A51   A(28,27,29)           114.7037                                         !
 ! A52   A(27,29,30)           104.3119                                         !
 ! A53   A(27,29,31)           106.2411                                         !
 ! A54   A(27,29,32)           114.0999                                         !
 ! A55   A(30,29,31)           108.0205                                         !
 ! A56   A(30,29,32)           106.7848                                         !
 ! A57   A(31,29,32)           116.576                                          !
 ! A58   A(29,31,34)           121.5301                                         !
 ! A59   A(29,31,46)           115.5892                                         !
 ! A60   A(34,31,46)           122.7258                                         !
 ! A61   A(29,32,33)           107.9332                                         !
 ! A62   A(29,32,35)           112.046                                          !
 ! A63   A(29,32,38)           109.7287                                         !
 ! A64   A(33,32,35)           108.3874                                         !
 ! A65   A(33,32,38)           108.6741                                         !
 ! A66   A(35,32,38)           109.9829                                         !
 ! A67   A(32,35,36)           107.3587                                         !
 ! A68   A(32,35,37)           110.3211                                         !
 ! A69   A(32,35,42)           115.3568                                         !
 ! A70   A(36,35,37)           104.4426                                         !
 ! A71   A(36,35,42)           108.0961                                         !
 ! A72   A(37,35,42)           110.6113                                         !
 ! A73   A(32,38,39)           111.1951                                         !
 ! A74   A(32,38,40)           109.6385                                         !
 ! A75   A(32,38,41)           112.7268                                         !
 ! A76   A(39,38,40)           107.5435                                         !
 ! A77   A(39,38,41)           108.0671                                         !
 ! A78   A(40,38,41)           107.4678                                         !
 ! A79   A(35,42,43)           110.2246                                         !
 ! A80   A(35,42,44)           110.2339                                         !
 ! A81   A(35,42,45)           113.5013                                         !
 ! A82   A(43,42,44)           107.3252                                         !
 ! A83   A(43,42,45)           107.4633                                         !
 ! A84   A(44,42,45)           107.8587                                         !
 ! A85   A(31,46,47)           119.5459                                         !
 ! A86   A(31,46,48)           122.2925                                         !
 ! A87   A(47,46,48)           117.9593                                         !
 ! A88   A(46,48,49)           105.8791                                         !
 ! A89   A(46,48,50)           109.3894                                         !
 ! A90   A(46,48,51)           110.2462                                         !
 ! A91   A(49,48,50)           104.8063                                         !
 ! A92   A(49,48,51)           109.2754                                         !
 ! A93   A(50,48,51)           116.5987                                         !
 ! A94   A(48,50,54)           123.9495                                         !
 ! A95   A(48,50,69)           112.6933                                         !
 ! A96   A(54,50,69)           123.254                                          !
 ! A97   A(48,51,52)           106.1383                                         !
 ! A98   A(48,51,53)           108.1525                                         !
 ! A99   A(48,51,55)           116.573                                          !
 ! A100  A(52,51,53)           106.7638                                         !
 ! A101  A(52,51,55)           108.1905                                         !
 ! A102  A(53,51,55)           110.5218                                         !
 ! A103  A(51,55,56)           109.9515                                         !
 ! A104  A(51,55,57)           110.6567                                         !
 ! A105  A(51,55,58)           112.2411                                         !
 ! A106  A(56,55,57)           106.3898                                         !
 ! A107  A(56,55,58)           107.1423                                         !
 ! A108  A(57,55,58)           110.2326                                         !
 ! A109  A(55,58,59)           109.7806                                         !
 ! A110  A(55,58,60)           109.1425                                         !
 ! A111  A(55,58,61)           112.0705                                         !
 ! A112  A(59,58,60)           107.1798                                         !
 ! A113  A(59,58,61)           110.9114                                         !
 ! A114  A(60,58,61)           107.5964                                         !
 ! A115  A(58,61,62)           111.1291                                         !
 ! A116  A(58,61,68)           118.1732                                         !
 ! A117  A(62,61,68)           110.089                                          !
 ! A118  A(64,63,65)           112.4441                                         !
 ! A119  A(64,63,68)           111.4813                                         !
 ! A120  A(65,63,68)           116.1399                                         !
 ! A121  A(67,66,68)           112.6391                                         !
 ! A122  A(61,68,63)           111.6633                                         !
 ! A123  A(61,68,66)           128.0353                                         !
 ! A124  A(63,68,66)           120.2956                                         !
 ! A125  A(50,69,70)           106.1745                                         !
 ! D1    D(2,1,5,6)             17.5614                                         !
 ! D2    D(2,1,5,7)           -100.5887                                         !
 ! D3    D(2,1,5,8)            138.2464                                         !
 ! D4    D(3,1,5,6)            134.1592                                         !
 ! D5    D(3,1,5,7)             16.0091                                         !
 ! D6    D(3,1,5,8)           -105.1558                                         !
 ! D7    D(4,1,5,6)           -106.5609                                         !
 ! D8    D(4,1,5,7)            135.2889                                         !
 ! D9    D(4,1,5,8)             14.1241                                         !
 ! D10   D(1,5,7,11)           -15.6384                                         !
 ! D11   D(1,5,7,27)           160.9522                                         !
 ! D12   D(6,5,7,11)          -131.2817                                         !
 ! D13   D(6,5,7,27)            45.3089                                         !
 ! D14   D(8,5,7,11)           102.1314                                         !
 ! D15   D(8,5,7,27)           -81.278                                          !
 ! D16   D(1,5,8,9)            -51.6507                                         !
 ! D17   D(1,5,8,10)            63.7907                                         !
 ! D18   D(1,5,8,12)          -173.4152                                         !
 ! D19   D(6,5,8,9)             67.6121                                         !
 ! D20   D(6,5,8,10)          -176.9465                                         !
 ! D21   D(6,5,8,12)           -54.1524                                         !
 ! D22   D(7,5,8,9)           -165.1994                                         !
 ! D23   D(7,5,8,10)           -49.758                                          !
 ! D24   D(7,5,8,12)            73.0361                                         !
 ! D25   D(5,7,27,28)           12.4715                                         !
 ! D26   D(5,7,27,29)          168.8528                                         !
 ! D27   D(11,7,27,28)        -171.3654                                         !
 ! D28   D(11,7,27,29)         -14.9841                                         !
 ! D29   D(5,8,12,13)         -115.3278                                         !
 ! D30   D(5,8,12,15)           69.1752                                         !
 ! D31   D(9,8,12,13)          124.6166                                         !
 ! D32   D(9,8,12,15)          -50.8804                                         !
 ! D33   D(10,8,12,13)           6.5745                                         !
 ! D34   D(10,8,12,15)        -168.9225                                         !
 ! D35   D(8,12,13,14)           5.1962                                         !
 ! D36   D(8,12,13,19)        -176.2768                                         !
 ! D37   D(15,12,13,14)       -178.5114                                         !
 ! D38   D(15,12,13,19)          0.0155                                         !
 ! D39   D(8,12,15,16)         176.4102                                         !
 ! D40   D(8,12,15,17)          -2.5918                                         !
 ! D41   D(13,12,15,16)          0.2457                                         !
 ! D42   D(13,12,15,17)       -178.7563                                         !
 ! D43   D(12,13,19,16)         -0.2822                                         !
 ! D44   D(12,13,19,20)       -177.3184                                         !
 ! D45   D(14,13,19,16)        178.3774                                         !
 ! D46   D(14,13,19,20)          1.3413                                         !
 ! D47   D(12,15,16,19)         -0.4131                                         !
 ! D48   D(12,15,16,23)       -179.5694                                         !
 ! D49   D(17,15,16,19)        178.7791                                         !
 ! D50   D(17,15,16,23)         -0.3772                                         !
 ! D51   D(12,15,17,18)          0.7571                                         !
 ! D52   D(12,15,17,25)        179.5641                                         !
 ! D53   D(16,15,17,18)       -178.1518                                         !
 ! D54   D(16,15,17,25)          0.6552                                         !
 ! D55   D(15,16,19,13)          0.4331                                         !
 ! D56   D(15,16,19,20)        177.4172                                         !
 ! D57   D(23,16,19,13)        179.505                                          !
 ! D58   D(23,16,19,20)         -3.511                                          !
 ! D59   D(15,16,23,21)         -0.168                                          !
 ! D60   D(15,16,23,24)        178.7318                                         !
 ! D61   D(19,16,23,21)       -179.1181                                         !
 ! D62   D(19,16,23,24)         -0.2183                                         !
 ! D63   D(15,17,25,21)         -0.4077                                         !
 ! D64   D(15,17,25,26)       -179.7722                                         !
 ! D65   D(18,17,25,21)        178.4144                                         !
 ! D66   D(18,17,25,26)         -0.9501                                         !
 ! D67   D(22,21,23,16)        179.8145                                         !
 ! D68   D(22,21,23,24)          0.9181                                         !
 ! D69   D(25,21,23,16)          0.4338                                         !
 ! D70   D(25,21,23,24)       -178.4626                                         !
 ! D71   D(22,21,25,17)       -179.5342                                         !
 ! D72   D(22,21,25,26)         -0.1673                                         !
 ! D73   D(23,21,25,17)         -0.1533                                         !
 ! D74   D(23,21,25,26)        179.2135                                         !
 ! D75   D(7,27,29,30)         161.3                                            !
 ! D76   D(7,27,29,31)         -84.6927                                         !
 ! D77   D(7,27,29,32)          45.1575                                         !
 ! D78   D(28,27,29,30)        -42.3103                                         !
 ! D79   D(28,27,29,31)         71.697                                          !
 ! D80   D(28,27,29,32)       -158.4528                                         !
 ! D81   D(27,29,31,34)         33.8059                                         !
 ! D82   D(27,29,31,46)       -141.7877                                         !
 ! D83   D(30,29,31,34)        145.2457                                         !
 ! D84   D(30,29,31,46)        -30.3479                                         !
 ! D85   D(32,29,31,34)        -94.6029                                         !
 ! D86   D(32,29,31,46)         89.8035                                         !
 ! D87   D(27,29,32,33)        -64.4675                                         !
 ! D88   D(27,29,32,35)        176.2733                                         !
 ! D89   D(27,29,32,38)         53.7994                                         !
 ! D90   D(30,29,32,33)       -179.162                                          !
 ! D91   D(30,29,32,35)         61.5788                                         !
 ! D92   D(30,29,32,38)        -60.8951                                         !
 ! D93   D(31,29,32,33)         60.0285                                         !
 ! D94   D(31,29,32,35)        -59.2307                                         !
 ! D95   D(31,29,32,38)        178.2955                                         !
 ! D96   D(29,31,46,47)         -6.1692                                         !
 ! D97   D(29,31,46,48)        168.5552                                         !
 ! D98   D(34,31,46,47)        178.2954                                         !
 ! D99   D(34,31,46,48)         -6.9802                                         !
 ! D100  D(29,32,35,36)       -145.0268                                         !
 ! D101  D(29,32,35,37)        -31.7974                                         !
 ! D102  D(29,32,35,42)         94.4246                                         !
 ! D103  D(33,32,35,36)         95.9814                                         !
 ! D104  D(33,32,35,37)       -150.7891                                         !
 ! D105  D(33,32,35,42)        -24.5672                                         !
 ! D106  D(38,32,35,36)        -22.6976                                         !
 ! D107  D(38,32,35,37)         90.5319                                         !
 ! D108  D(38,32,35,42)       -143.2461                                         !
 ! D109  D(29,32,38,39)         63.3753                                         !
 ! D110  D(29,32,38,40)       -177.8321                                         !
 ! D111  D(29,32,38,41)        -58.1622                                         !
 ! D112  D(33,32,38,39)       -178.818                                          !
 ! D113  D(33,32,38,40)        -60.0254                                         !
 ! D114  D(33,32,38,41)         59.6445                                         !
 ! D115  D(35,32,38,39)        -60.3153                                         !
 ! D116  D(35,32,38,40)         58.4773                                         !
 ! D117  D(35,32,38,41)        178.1472                                         !
 ! D118  D(32,35,42,43)        176.5584                                         !
 ! D119  D(32,35,42,44)         58.262                                          !
 ! D120  D(32,35,42,45)        -62.8482                                         !
 ! D121  D(36,35,42,43)         56.4125                                         !
 ! D122  D(36,35,42,44)        -61.8839                                         !
 ! D123  D(36,35,42,45)        177.0059                                         !
 ! D124  D(37,35,42,43)        -57.3679                                         !
 ! D125  D(37,35,42,44)       -175.6643                                         !
 ! D126  D(37,35,42,45)         63.2255                                         !
 ! D127  D(31,46,48,49)        168.1388                                         !
 ! D128  D(31,46,48,50)         55.6947                                         !
 ! D129  D(31,46,48,51)        -73.7795                                         !
 ! D130  D(47,46,48,49)        -17.0571                                         !
 ! D131  D(47,46,48,50)       -129.5012                                         !
 ! D132  D(47,46,48,51)        101.0246                                         !
 ! D133  D(46,48,50,54)         44.0348                                         !
 ! D134  D(46,48,50,69)       -139.56                                           !
 ! D135  D(49,48,50,54)        -69.1097                                         !
 ! D136  D(49,48,50,69)        107.2955                                         !
 ! D137  D(51,48,50,54)        169.9449                                         !
 ! D138  D(51,48,50,69)        -13.6499                                         !
 ! D139  D(46,48,51,52)        -39.4435                                         !
 ! D140  D(46,48,51,53)         74.8151                                         !
 ! D141  D(46,48,51,55)       -159.9809                                         !
 ! D142  D(49,48,51,52)         76.5286                                         !
 ! D143  D(49,48,51,53)       -169.2127                                         !
 ! D144  D(49,48,51,55)        -44.0087                                         !
 ! D145  D(50,48,51,52)       -164.9239                                         !
 ! D146  D(50,48,51,53)        -50.6652                                         !
 ! D147  D(50,48,51,55)         74.5388                                         !
 ! D148  D(48,50,69,70)       -177.14                                           !
 ! D149  D(54,50,69,70)         -0.7059                                         !
 ! D150  D(48,51,55,56)         48.5333                                         !
 ! D151  D(48,51,55,57)        -68.7035                                         !
 ! D152  D(48,51,55,58)        167.6911                                         !
 ! D153  D(52,51,55,56)        -70.9055                                         !
 ! D154  D(52,51,55,57)        171.8577                                         !
 ! D155  D(52,51,55,58)         48.2522                                         !
 ! D156  D(53,51,55,56)        172.5319                                         !
 ! D157  D(53,51,55,57)         55.2952                                         !
 ! D158  D(53,51,55,58)        -68.3103                                         !
 ! D159  D(51,55,58,59)       -172.7353                                         !
 ! D160  D(51,55,58,60)        -55.5351                                         !
 ! D161  D(51,55,58,61)         63.546                                          !
 ! D162  D(56,55,58,59)        -51.9432                                         !
 ! D163  D(56,55,58,60)         65.257                                          !
 ! D164  D(56,55,58,61)       -175.6619                                         !
 ! D165  D(57,55,58,59)         63.4225                                         !
 ! D166  D(57,55,58,60)       -179.3774                                         !
 ! D167  D(57,55,58,61)        -60.2963                                         !
 ! D168  D(55,58,61,62)         55.2736                                         !
 ! D169  D(55,58,61,68)       -176.0656                                         !
 ! D170  D(59,58,61,62)        -67.8092                                         !
 ! D171  D(59,58,61,68)         60.8516                                         !
 ! D172  D(60,58,61,62)        175.261                                          !
 ! D173  D(60,58,61,68)        -56.0783                                         !
 ! D174  D(58,61,68,63)       -162.9631                                         !
 ! D175  D(58,61,68,66)         17.9248                                         !
 ! D176  D(62,61,68,63)        -33.8177                                         !
 ! D177  D(62,61,68,66)        147.0703                                         !
 ! D178  D(64,63,68,61)       -172.9331                                         !
 ! D179  D(64,63,68,66)          6.2569                                         !
 ! D180  D(65,63,68,61)        -42.3799                                         !
 ! D181  D(65,63,68,66)        136.8102                                         !
 ! D182  D(67,66,68,61)        -10.4803                                         !
 ! D183  D(67,66,68,63)        170.4755                                         !
 --------------------------------------------------------------------------------
 Symmetry turned off by external request.
 Stoichiometry    C23H36N7O4(1+)
 Framework group  C1[X(C23H36N7O4)]
 Deg. of freedom   204
 Full point group                 C1      NOp   1
                          Input orientation:                          
 ---------------------------------------------------------------------
 Center     Atomic      Atomic             Coordinates (Angstroms)
 Number     Number       Type             X           Y           Z
 ---------------------------------------------------------------------
      1          7           0       -1.837408   -3.779597    2.033093
      2          1           0       -2.750929   -3.563296    2.441701
      3          1           0       -1.923407   -3.764783    0.971228
      4          1           0       -1.535730   -4.698351    2.371241
      5          6           0       -0.797888   -2.698772    2.267443
      6          1           0       -1.143476   -2.060190    3.083001
      7          6           0       -0.796528   -1.946804    0.903677
      8          6           0        0.556285   -3.360270    2.626806
      9          1           0        0.358939   -4.067309    3.448600
     10          1           0        0.893255   -3.946801    1.763338
     11          8           0       -1.329126   -2.527814   -0.050410
     12          6           0        1.621720   -2.390341    3.032255
     13          6           0        2.792441   -2.159020    2.342524
     14          1           0        3.106397   -2.556624    1.387821
     15          6           0        1.684232   -1.590964    4.235808
     16          6           0        2.926874   -0.897930    4.196858
     17          6           0        0.837506   -1.399863    5.344480
     18          1           0       -0.107925   -1.932828    5.428925
     19          7           0        3.576661   -1.273322    3.032905
     20          1           0        4.477228   -0.915562    2.704231
     21          6           0        2.470614    0.145789    6.287822
     22          1           0        2.755278    0.810663    7.097703
     23          6           0        3.335788   -0.028179    5.214317
     24          1           0        4.298809    0.474951    5.172952
     25          6           0        1.235906   -0.533110    6.353880
     26          1           0        0.592469   -0.380899    7.215491
     27          7           0       -0.279930   -0.713040    0.917533
     28          1           0        0.232279   -0.475951    1.762236
     29          6           0        0.050870    0.117951   -0.259244
     30          1           0        0.114254    1.138707    0.138649
     31          6           0        1.474755   -0.312107   -0.708502
     32          6           0       -1.051213    0.131442   -1.357557
     33          1           0       -1.140649   -0.881972   -1.757028
     34          8           0        1.859905   -1.471009   -0.596453
     35          6           0       -0.696560    1.090198   -2.528011
     36          1           0       -1.633999    1.535266   -2.881788
     37          1           0       -0.109114    1.945224   -2.157540
     38          6           0       -2.399101    0.536678   -0.735897
     39          1           0       -2.361636    1.559425   -0.339108
     40          1           0       -3.180707    0.508282   -1.501596
     41          1           0       -2.708380   -0.130045    0.073712
     42          6           0        0.001311    0.434183   -3.726047
     43          1           0        0.156637    1.169658   -4.523261
     44          1           0       -0.624503   -0.366247   -4.137718
     45          1           0        0.976283    0.005044   -3.481163
     46          7           0        2.282115    0.691660   -1.139753
     47          1           0        1.907651    1.624250   -1.238718
     48          6           0        3.717160    0.500438   -1.363487
     49          1           0        4.058390    1.392776   -1.903192
     50          6           0        3.930112   -0.661468   -2.350233
     51          6           0        4.460118    0.406006   -0.014139
     52          1           0        3.989483    1.146424    0.645818
     53          1           0        4.256798   -0.574785    0.417853
     54          8           0        3.287711   -0.814148   -3.360292
     55          6           0        5.969591    0.679388   -0.041163
     56          1           0        6.172925    1.605412   -0.595928
     57          1           0        6.497785   -0.120703   -0.571070
     58          6           0        6.552409    0.858264    1.366081
     59          1           0        7.602112    1.178928    1.296205
     60          1           0        6.004562    1.654099    1.883490
     61          7           0        6.429589   -0.364885    2.175029
     62          1           0        6.855443   -1.161303    1.703548
     63          7           0        7.039224   -1.592653    4.055311
     64          1           0        7.227574   -1.560662    5.050914
     65          1           0        6.334814   -2.282008    3.816487
     66          7           0        7.043680    0.715485    4.261543
     67          1           0        7.025519    1.582681    3.726991
     68          6           0        6.851659   -0.317611    3.531031
     69          8           0        4.967626   -1.453830   -2.005807
     70          1           0        5.045018   -2.123551   -2.712848
 ---------------------------------------------------------------------
 Rotational constants (GHZ):           0.1353591           0.1007492           0.0673507
 Standard basis: 6-31G(d) (6D, 7F)
   582 basis functions,  1096 primitive gaussians,   582 cartesian basis functions
   127 alpha electrons      127 beta electrons
       nuclear repulsion energy      3886.2350390079 Hartrees.
 NAtoms=   70 NActive=   70 NUniq=   70 SFac= 1.00D+00 NAtFMM=   60 NAOKFM=T Big=T
 Integral buffers will be    131072 words long.
 Raffenetti 2 integral format.
 Two-electron integral symmetry is turned off.
 One-electron integrals computed using PRISM.
 NBasis=   582 RedAO= T EigKep=  3.66D-04  NBF=   582
 NBsUse=   582 1.00D-06 EigRej= -1.00D+00 NBFU=   582
 Initial guess from the checkpoint file:  "conf-929.chk"
 B after Tr=     0.000000    0.000000    0.000000
         Rot=    1.000000    0.000000    0.000000    0.000000 Ang=   0.00 deg.
 Requested convergence on RMS density matrix=1.00D-08 within 128 cycles.
 Requested convergence on MAX density matrix=1.00D-06.
 Requested convergence on             energy=1.00D-06.
 No special actions if energy rises.
 SCF Done:  E(RB3LYP) =  -1582.11551893     A.U. after    2 cycles
            NFock=  2  Conv=0.93D-08     -V/T= 2.0095

 **********************************************************************

            Population analysis using the SCF Density.

 **********************************************************************

 Alpha  occ. eigenvalues --  -19.28941 -19.26995 -19.22741 -19.22632 -14.60004
 Alpha  occ. eigenvalues --  -14.50135 -14.47295 -14.46722 -14.44590 -14.41949
 Alpha  occ. eigenvalues --  -14.36909 -10.43788 -10.41392 -10.40523 -10.39803
 Alpha  occ. eigenvalues --  -10.36309 -10.35455 -10.34671 -10.33889 -10.31718
 Alpha  occ. eigenvalues --  -10.31404 -10.30825 -10.29277 -10.28766 -10.28753
 Alpha  occ. eigenvalues --  -10.28380 -10.28100 -10.27827 -10.27197 -10.27162
 Alpha  occ. eigenvalues --  -10.26812 -10.26787 -10.26736 -10.24269  -1.19758
 Alpha  occ. eigenvalues --   -1.19442  -1.14679  -1.13750  -1.10615  -1.07153
 Alpha  occ. eigenvalues --   -1.06501  -1.05883  -1.03504  -0.97277  -0.94224
 Alpha  occ. eigenvalues --   -0.92517  -0.92307  -0.91249  -0.89356  -0.87426
 Alpha  occ. eigenvalues --   -0.84764  -0.83231  -0.82334  -0.81664  -0.80435
 Alpha  occ. eigenvalues --   -0.79015  -0.76533  -0.74107  -0.73478  -0.73114
 Alpha  occ. eigenvalues --   -0.72509  -0.71033  -0.70363  -0.70101  -0.68260
 Alpha  occ. eigenvalues --   -0.67711  -0.66942  -0.66517  -0.66039  -0.65214
 Alpha  occ. eigenvalues --   -0.63469  -0.63020  -0.62475  -0.62265  -0.60657
 Alpha  occ. eigenvalues --   -0.59246  -0.58442  -0.57896  -0.57774  -0.57354
 Alpha  occ. eigenvalues --   -0.56790  -0.56312  -0.55577  -0.55006  -0.54805
 Alpha  occ. eigenvalues --   -0.54318  -0.53304  -0.52949  -0.52497  -0.52373
 Alpha  occ. eigenvalues --   -0.51934  -0.51840  -0.51244  -0.50855  -0.50692
 Alpha  occ. eigenvalues --   -0.50282  -0.50000  -0.49788  -0.49422  -0.48887
 Alpha  occ. eigenvalues --   -0.48347  -0.47936  -0.47719  -0.47117  -0.45477
 Alpha  occ. eigenvalues --   -0.44828  -0.44511  -0.44182  -0.44086  -0.43620
 Alpha  occ. eigenvalues --   -0.42801  -0.42411  -0.42092  -0.41456  -0.41146
 Alpha  occ. eigenvalues --   -0.40704  -0.40296  -0.39875  -0.36997  -0.36751
 Alpha  occ. eigenvalues --   -0.36160  -0.35713  -0.35012  -0.33880  -0.31769
 Alpha  occ. eigenvalues --   -0.31286  -0.29793
 Alpha virt. eigenvalues --   -0.12784  -0.11195  -0.10261  -0.08830  -0.08526
 Alpha virt. eigenvalues --   -0.07029  -0.06146  -0.05193  -0.03819  -0.03520
 Alpha virt. eigenvalues --   -0.02498  -0.01875  -0.01372  -0.00957  -0.00880
 Alpha virt. eigenvalues --   -0.00170   0.00654   0.01690   0.01932   0.02177
 Alpha virt. eigenvalues --    0.02367   0.02925   0.03266   0.03455   0.04052
 Alpha virt. eigenvalues --    0.04791   0.05126   0.06077   0.06231   0.06399
 Alpha virt. eigenvalues --    0.06969   0.07127   0.07298   0.07441   0.07871
 Alpha virt. eigenvalues --    0.08472   0.08536   0.08662   0.09226   0.09692
 Alpha virt. eigenvalues --    0.09984   0.10561   0.10732   0.11191   0.11400
 Alpha virt. eigenvalues --    0.11575   0.11996   0.12410   0.13043   0.13608
 Alpha virt. eigenvalues --    0.14167   0.14460   0.14650   0.15770   0.15821
 Alpha virt. eigenvalues --    0.16156   0.16770   0.17142   0.18399   0.18793
 Alpha virt. eigenvalues --    0.18985   0.19459   0.20633   0.20694   0.22605
 Alpha virt. eigenvalues --    0.23572   0.23789   0.25602   0.26024   0.26572
 Alpha virt. eigenvalues --    0.27640   0.28344   0.29310   0.30289   0.32653
 Alpha virt. eigenvalues --    0.33477   0.34649   0.37552   0.38170   0.38487
 Alpha virt. eigenvalues --    0.39126   0.39757   0.41115   0.41626   0.42027
 Alpha virt. eigenvalues --    0.43227   0.43679   0.43844   0.44193   0.44640
 Alpha virt. eigenvalues --    0.44751   0.45395   0.45691   0.46211   0.47235
 Alpha virt. eigenvalues --    0.47485   0.47583   0.48017   0.48901   0.49485
 Alpha virt. eigenvalues --    0.49696   0.50111   0.50364   0.50947   0.51828
 Alpha virt. eigenvalues --    0.52065   0.52143   0.52560   0.53071   0.53365
 Alpha virt. eigenvalues --    0.53470   0.54071   0.54278   0.54497   0.54937
 Alpha virt. eigenvalues --    0.55580   0.55908   0.56474   0.56674   0.57172
 Alpha virt. eigenvalues --    0.57895   0.58111   0.58553   0.59013   0.59740
 Alpha virt. eigenvalues --    0.60490   0.61175   0.62242   0.62544   0.63208
 Alpha virt. eigenvalues --    0.63564   0.63657   0.64391   0.64672   0.65243
 Alpha virt. eigenvalues --    0.66159   0.66654   0.67011   0.67537   0.68156
 Alpha virt. eigenvalues --    0.68559   0.69240   0.69909   0.70509   0.70857
 Alpha virt. eigenvalues --    0.71422   0.72254   0.72610   0.72971   0.73422
 Alpha virt. eigenvalues --    0.73715   0.73893   0.75081   0.75882   0.76216
 Alpha virt. eigenvalues --    0.76412   0.76605   0.76974   0.77512   0.77776
 Alpha virt. eigenvalues --    0.78204   0.78827   0.79418   0.79706   0.80132
 Alpha virt. eigenvalues --    0.80246   0.80437   0.80769   0.81634   0.81709
 Alpha virt. eigenvalues --    0.82361   0.82647   0.82860   0.83287   0.83391
 Alpha virt. eigenvalues --    0.83810   0.84183   0.85043   0.85122   0.85472
 Alpha virt. eigenvalues --    0.85846   0.86339   0.86935   0.87507   0.87884
 Alpha virt. eigenvalues --    0.88236   0.88578   0.89551   0.89870   0.90850
 Alpha virt. eigenvalues --    0.91044   0.91283   0.92109   0.92448   0.93161
 Alpha virt. eigenvalues --    0.94008   0.94141   0.94769   0.95044   0.96860
 Alpha virt. eigenvalues --    0.97370   0.97544   0.97736   0.99126   1.00026
 Alpha virt. eigenvalues --    1.01743   1.02122   1.03260   1.04025   1.05246
 Alpha virt. eigenvalues --    1.05717   1.07161   1.08372   1.09500   1.09892
 Alpha virt. eigenvalues --    1.11087   1.11970   1.14048   1.14725   1.14856
 Alpha virt. eigenvalues --    1.15927   1.16607   1.18225   1.19156   1.21576
 Alpha virt. eigenvalues --    1.22355   1.23192   1.23695   1.24191   1.25385
 Alpha virt. eigenvalues --    1.25909   1.27455   1.27776   1.28539   1.29818
 Alpha virt. eigenvalues --    1.30104   1.31487   1.32364   1.33165   1.33405
 Alpha virt. eigenvalues --    1.33744   1.34114   1.35411   1.36323   1.38159
 Alpha virt. eigenvalues --    1.38454   1.38890   1.39254   1.41129   1.41584
 Alpha virt. eigenvalues --    1.41965   1.42659   1.43801   1.43868   1.44758
 Alpha virt. eigenvalues --    1.45523   1.47411   1.49125   1.50138   1.51200
 Alpha virt. eigenvalues --    1.51513   1.55903   1.56293   1.57939   1.58614
 Alpha virt. eigenvalues --    1.59207   1.59650   1.60375   1.61184   1.61824
 Alpha virt. eigenvalues --    1.62575   1.64492   1.64634   1.65060   1.65963
 Alpha virt. eigenvalues --    1.66994   1.67954   1.68709   1.69129   1.69874
 Alpha virt. eigenvalues --    1.70915   1.71225   1.71833   1.72114   1.72551
 Alpha virt. eigenvalues --    1.72845   1.74128   1.74951   1.76098   1.76750
 Alpha virt. eigenvalues --    1.76914   1.77604   1.78373   1.79613   1.79942
 Alpha virt. eigenvalues --    1.80546   1.80771   1.82159   1.82437   1.82547
 Alpha virt. eigenvalues --    1.83146   1.83630   1.83866   1.85221   1.85397
 Alpha virt. eigenvalues --    1.85682   1.86538   1.86955   1.87222   1.88136
 Alpha virt. eigenvalues --    1.88697   1.90234   1.90502   1.90901   1.91830
 Alpha virt. eigenvalues --    1.91966   1.92665   1.93564   1.94410   1.95131
 Alpha virt. eigenvalues --    1.95621   1.96343   1.96937   1.97283   1.98555
 Alpha virt. eigenvalues --    2.00259   2.00546   2.01401   2.02185   2.03479
 Alpha virt. eigenvalues --    2.04226   2.05253   2.06600   2.07409   2.07563
 Alpha virt. eigenvalues --    2.08761   2.09432   2.10689   2.11587   2.13421
 Alpha virt. eigenvalues --    2.13865   2.14699   2.15581   2.16694   2.16910
 Alpha virt. eigenvalues --    2.17250   2.18824   2.18960   2.20251   2.20705
 Alpha virt. eigenvalues --    2.21520   2.22099   2.22766   2.23889   2.24909
 Alpha virt. eigenvalues --    2.27096   2.27684   2.28295   2.28564   2.29265
 Alpha virt. eigenvalues --    2.29773   2.30966   2.31161   2.31893   2.32951
 Alpha virt. eigenvalues --    2.35589   2.36246   2.36586   2.37276   2.38603
 Alpha virt. eigenvalues --    2.39411   2.40899   2.41684   2.43647   2.43867
 Alpha virt. eigenvalues --    2.44902   2.46273   2.47121   2.48126   2.49384
 Alpha virt. eigenvalues --    2.50590   2.51446   2.52824   2.54047   2.55228
 Alpha virt. eigenvalues --    2.56533   2.56841   2.57757   2.57927   2.58779
 Alpha virt. eigenvalues --    2.59680   2.60947   2.61159   2.61558   2.62457
 Alpha virt. eigenvalues --    2.63272   2.65137   2.65974   2.67900   2.68477
 Alpha virt. eigenvalues --    2.69694   2.71368   2.72838   2.75033   2.77159
 Alpha virt. eigenvalues --    2.77857   2.81293   2.84067   2.86071   2.88412
 Alpha virt. eigenvalues --    2.91398   2.93152   2.93701   2.94850   2.95756
 Alpha virt. eigenvalues --    3.02238   3.03214   3.04397   3.07700   3.15967
 Alpha virt. eigenvalues --    3.35190   3.64104   3.73346   3.79659   3.86773
 Alpha virt. eigenvalues --    3.87524   3.92048   3.96253   4.00096   4.01388
 Alpha virt. eigenvalues --    4.02553   4.03645   4.06224   4.08556   4.10038
 Alpha virt. eigenvalues --    4.12053   4.15173   4.17303   4.20029   4.20995
 Alpha virt. eigenvalues --    4.21776   4.23384   4.27277   4.30702   4.32710
 Alpha virt. eigenvalues --    4.34216   4.36024   4.42624   4.42945   4.45959
 Alpha virt. eigenvalues --    4.47174   4.48564   4.57635   4.62327   4.70821
          Condensed to atoms (all electrons):
 Mulliken charges:
               1
     1  N   -0.758227
     2  H    0.415709
     3  H    0.434260
     4  H    0.412351
     5  C   -0.126155
     6  H    0.217866
     7  C    0.676625
     8  C   -0.374987
     9  H    0.173526
    10  H    0.192672
    11  O   -0.533775
    12  C    0.002757
    13  C    0.016139
    14  H    0.190071
    15  C    0.080482
    16  C    0.284241
    17  C   -0.224183
    18  H    0.103048
    19  N   -0.722911
    20  H    0.395602
    21  C   -0.154782
    22  H    0.151830
    23  C   -0.171669
    24  H    0.174706
    25  C   -0.132405
    26  H    0.141948
    27  N   -0.590010
    28  H    0.364554
    29  C   -0.086194
    30  H    0.159995
    31  C    0.649744
    32  C   -0.075212
    33  H    0.187745
    34  O   -0.527672
    35  C   -0.283765
    36  H    0.161466
    37  H    0.110718
    38  C   -0.456748
    39  H    0.149984
    40  H    0.171591
    41  H    0.134049
    42  C   -0.478842
    43  H    0.155913
    44  H    0.154647
    45  H    0.193462
    46  N   -0.596522
    47  H    0.348000
    48  C   -0.061657
    49  H    0.188207
    50  C    0.621269
    51  C   -0.256215
    52  H    0.138460
    53  H    0.171294
    54  O   -0.439038
    55  C   -0.301921
    56  H    0.153252
    57  H    0.173649
    58  C   -0.145727
    59  H    0.169760
    60  H    0.156989
    61  N   -0.635894
    62  H    0.334036
    63  N   -0.741249
    64  H    0.351584
    65  H    0.321204
    66  N   -0.629941
    67  H    0.291209
    68  C    0.572974
    69  O   -0.569449
    70  H    0.425562
 Sum of Mulliken charges =   1.00000
 Mulliken charges with hydrogens summed into heavy atoms:
               1
     1  N    0.504093
     5  C    0.091711
     7  C    0.676625
     8  C   -0.008789
    11  O   -0.533775
    12  C    0.002757
    13  C    0.206210
    15  C    0.080482
    16  C    0.284241
    17  C   -0.121135
    19  N   -0.327309
    21  C   -0.002952
    23  C    0.003037
    25  C    0.009542
    27  N   -0.225456
    29  C    0.073800
    31  C    0.649744
    32  C    0.112532
    34  O   -0.527672
    35  C   -0.011580
    38  C   -0.001124
    42  C    0.025180
    46  N   -0.248522
    48  C    0.126550
    50  C    0.621269
    51  C    0.053538
    54  O   -0.439038
    55  C    0.024981
    58  C    0.181022
    61  N   -0.301858
    63  N   -0.068461
    66  N   -0.338732
    68  C    0.572974
    69  O   -0.143887
 Electronic spatial extent (au):  <R**2>=          22886.5493
 Charge=              1.0000 electrons
 Dipole moment (field-independent basis, Debye):
    X=              1.9814    Y=             -8.5970    Z=              7.4291  Tot=             11.5337
 Quadrupole moment (field-independent basis, Debye-Ang):
   XX=           -141.6622   YY=           -142.4255   ZZ=           -181.0937
   XY=             18.1421   XZ=            -22.3358   YZ=            -34.4680
 Traceless Quadrupole moment (field-independent basis, Debye-Ang):
   XX=             13.3982   YY=             12.6350   ZZ=            -26.0333
   XY=             18.1421   XZ=            -22.3358   YZ=            -34.4680
 Octapole moment (field-independent basis, Debye-Ang**2):
  XXX=          -1174.2463  YYY=            223.7080  ZZZ=           -663.1958  XYY=           -478.5708
  XXY=             51.7940  XXZ=           -313.9170  XZZ=           -528.7296  YZZ=             68.7079
  YYZ=           -140.3939  XYZ=             36.9862
 Hexadecapole moment (field-independent basis, Debye-Ang**3):
 XXXX=         -14853.7949 YYYY=          -2012.8494 ZZZZ=         -10863.7052 XXXY=            164.3697
 XXXZ=          -3625.8843 YYYX=            641.7103 YYYZ=            681.5796 ZZZX=          -2972.2940
 ZZZY=            974.0377 XXYY=          -2595.1407 XXZZ=          -4717.3459 YYZZ=          -2067.5828
 XXYZ=            105.1072 YYXZ=          -1108.7738 ZZXY=             35.9900
 N-N= 3.886235039008D+03 E-N=-1.142698327526D+04  KE= 1.567180508403D+03
 Unable to Open any file for archive entry.
 1\1\GINC-LAC-309\SP\RB3LYP\6-31G(d)\C23H36N7O4(1+)\KENGMITH\26-May-202
 2\0\\# B3LYP/6-31G* guess=read geom=check nosymm integral(ultrafinegri
 d)\\Candidate Structure: Conf:929 Charge calc in gas phase\\1,1\N,0,-1
 .8374080167,-3.7795969942,2.0330932771\H,0,-2.7509289496,-3.5632964646
 ,2.4417011062\H,0,-1.9234071127,-3.7647825344,0.9712282584\H,0,-1.5357
 299494,-4.6983506151,2.3712406046\C,0,-0.7978876365,-2.6987715448,2.26
 74428756\H,0,-1.1434756383,-2.0601904207,3.0830014525\C,0,-0.796527927
 6,-1.9468039011,0.9036771808\C,0,0.5562849672,-3.3602700864,2.62680643
 59\H,0,0.3589386507,-4.067309483,3.4485998143\H,0,0.8932545503,-3.9468
 007677,1.7633376767\O,0,-1.3291260033,-2.5278141301,-0.0504095113\C,0,
 1.6217200319,-2.390340577,3.032254604\C,0,2.7924405666,-2.1590199517,2
 .3425238155\H,0,3.1063973346,-2.5566239633,1.3878211265\C,0,1.68423162
 78,-1.5909643778,4.2358082902\C,0,2.9268735387,-0.8979303411,4.1968584
 329\C,0,0.8375057499,-1.3998634726,5.3444802615\H,0,-0.1079249501,-1.9
 328276028,5.4289247509\N,0,3.5766608763,-1.2733224122,3.0329050677\H,0
 ,4.4772281811,-0.9155623854,2.7042306604\C,0,2.4706142379,0.1457888514
 ,6.2878221062\H,0,2.7552777487,0.8106632144,7.0977029546\C,0,3.3357883
 256,-0.0281787425,5.2143166696\H,0,4.2988085792,0.474951091,5.17295242
 18\C,0,1.2359061632,-0.5331097618,6.3538804964\H,0,0.5924688838,-0.380
 8985934,7.2154906423\N,0,-0.2799301335,-0.713039886,0.9175328497\H,0,0
 .2322785952,-0.4759511427,1.7622355347\C,0,0.0508702517,0.1179510408,-
 0.2592443387\H,0,0.1142543761,1.1387073754,0.1386486757\C,0,1.47475513
 08,-0.3121069416,-0.7085015608\C,0,-1.0512129494,0.1314416475,-1.35755
 70942\H,0,-1.1406491696,-0.8819721834,-1.7570284668\O,0,1.8599054097,-
 1.4710086193,-0.5964530688\C,0,-0.6965601365,1.0901980752,-2.528010735
 3\H,0,-1.6339993724,1.5352663695,-2.8817877895\H,0,-0.1091141638,1.945
 2236906,-2.1575402332\C,0,-2.3991009743,0.5366778973,-0.7358973823\H,0
 ,-2.3616357188,1.5594251849,-0.3391077556\H,0,-3.1807074649,0.50828222
 58,-1.501595578\H,0,-2.7083802027,-0.1300449384,0.0737124078\C,0,0.001
 3112363,0.4341825959,-3.7260471445\H,0,0.1566367266,1.1696579203,-4.52
 32608114\H,0,-0.6245026525,-0.3662466233,-4.1377182575\H,0,0.976282926
 ,0.0050441556,-3.4811631096\N,0,2.2821149857,0.6916601161,-1.139753114
 6\H,0,1.9076509278,1.6242495269,-1.2387175622\C,0,3.7171598666,0.50043
 77423,-1.3634874199\H,0,4.0583902153,1.3927755822,-1.9031919647\C,0,3.
 9301115524,-0.6614681291,-2.3502329203\C,0,4.4601181443,0.4060056268,-
 0.0141390241\H,0,3.9894834103,1.1464236351,0.6458182454\H,0,4.25679760
 27,-0.5747848323,0.4178530092\O,0,3.2877113568,-0.814147551,-3.3602921
 361\C,0,5.9695907939,0.679388424,-0.0411630566\H,0,6.1729253015,1.6054
 117279,-0.5959278729\H,0,6.4977853659,-0.1207031234,-0.5710704283\C,0,
 6.5524090925,0.8582642102,1.366081461\H,0,7.6021124007,1.1789279761,1.
 2962052392\H,0,6.0045616604,1.6540985809,1.8834901737\N,0,6.4295894954
 ,-0.3648847564,2.1750288708\H,0,6.8554430537,-1.1613032188,1.703547507
 7\N,0,7.0392244632,-1.5926532765,4.0553114626\H,0,7.2275740678,-1.5606
 620015,5.0509138032\H,0,6.3348144194,-2.2820084742,3.8164869555\N,0,7.
 0436804169,0.7154848272,4.2615433922\H,0,7.0255186884,1.5826807938,3.7
 269910675\C,0,6.8516590137,-0.3176112643,3.5310308014\O,0,4.9676264013
 ,-1.4538299261,-2.0058065687\H,0,5.0450182204,-2.1235512831,-2.7128479
 738\\Version=ES64L-G16RevC.01\HF=-1582.1155189\RMSD=9.254e-09\Dipole=-
 3.5197983,-1.9523761,0.6791771\Quadrupole=9.9612673,9.3938247,-19.3550
 92,13.4882018,-16.6061513,-25.6261331\PG=C01 [X(C23H36N7O4)]\\@
 The archive entry for this job was punched.


 NOBODY LOSES ALL THE TIME
 I HAD AN UNCLE NAMED
 SOL WHO WAS A BORN FAILURE AND
 NEARLY EVERYBODY SAID HE SHOULD HAVE GONE
 INTO VAUDEVILLE PERHAPS BECAUSE MY UNCLE SOL COULD
 SING MCCANN HE WAS A DIVER ON XMAS EVE LIKE HELL ITSELF WHICH
 MAY OR MAY NOT ACCOUNT FOR THE FACT THAT MY UNCLE
 SOL INDULGED IN THAT POSSIBLY MOST INEXCUSABLE
 OF ALL TO USE A HIGHFALOOTIN PHRASE
 LUXURIES THAT IS OR TO
 WIT FARMING AND BE
 IT NEEDLESSLY
 ADDED
 MY UNCLE SOL'S FARM     
 FAILED BECAUSE THE CHICKENS
 ATE THE VEGETABLES SO
 MY UNCLE SOL HAD A
 CHICKEN FARM TILL THE
 SKUNKS ATE THE CHICKENS WHEN 
 MY UNCLE SOL
 HAD A SKUNK FARM BUT
 THE SKUNKS CAUGHT COLD AND
 DIED AND SO
 MY UNCLE SOL IMITATED THE
 SKUNKS IN A SUBTLE MANNER
 OR BY DROWNING HIMSELF IN THE WATERTANK
 BUT SOMEBODY WHO'D GIVEN MY UNCLE SOL A VICTOR     
 VICTROLA AND RECORDS WHILE HE LIVED PRESENTED TO
 HIM UPON THE AUSPICIOUS OCCASION OF HIS DECEASE A
 SCRUMPTIOUS NOT TO MENTION SPLENDIFEROUS FUNERAL WITH
 TALL BOYS IN BLACK GLOVES AND FLOWERS AND EVERYTHING AND
 I REMEMBER WE ALL CRIED LIKE THE MISSOURI
 WHEN MY UNCLE SOL'S COFFIN LURCHED BECAUSE     
 SOMEBODY PRESSED A BUTTON
 (AND DOWN WENT
 MY UNCLE
 SOL
 AND STARTED A WORM FARM)
           E. E. CUMMINGS
 Job cpu time:       0 days  0 hours  2 minutes 57.0 seconds.
 Elapsed time:       0 days  0 hours  0 minutes 44.8 seconds.
 File lengths (MBytes):  RWF=    296 Int=      0 D2E=      0 Chk=     40 Scr=     16
 Normal termination of Gaussian 16 at Thu May 26 00:32:36 2022.
