 Entering Gaussian System, Link 0=/opt/software/Gaussian/g16-AVX2-C.01/g16/g16
 Input=charge-conf-472.com
 Output=charge-conf-472.log
 Initial command:
 /opt/software/Gaussian/g16-AVX2-C.01/g16/l1.exe "/mnt/gs18/scratch/users/kengmith/Gau-10116.inp" -scrdir="/mnt/gs18/scratch/users/kengmith/"
 Entering Link 1 = /opt/software/Gaussian/g16-AVX2-C.01/g16/l1.exe PID=     10127.
  
 Copyright (c) 1988-2019, Gaussian, Inc.  All Rights Reserved.
  
 This is part of the Gaussian(R) 16 program.  It is based on
 the Gaussian(R) 09 system (copyright 2009, Gaussian, Inc.),
 the Gaussian(R) 03 system (copyright 2003, Gaussian, Inc.),
 the Gaussian(R) 98 system (copyright 1998, Gaussian, Inc.),
 the Gaussian(R) 94 system (copyright 1995, Gaussian, Inc.),
 the Gaussian 92(TM) system (copyright 1992, Gaussian, Inc.),
 the Gaussian 90(TM) system (copyright 1990, Gaussian, Inc.),
 the Gaussian 88(TM) system (copyright 1988, Gaussian, Inc.),
 the Gaussian 86(TM) system (copyright 1986, Carnegie Mellon
 University), and the Gaussian 82(TM) system (copyright 1983,
 Carnegie Mellon University). Gaussian is a federally registered
 trademark of Gaussian, Inc.
  
 This software contains proprietary and confidential information,
 including trade secrets, belonging to Gaussian, Inc.
  
 This software is provided under written license and may be
 used, copied, transmitted, or stored only in accord with that
 written license.
  
 The following legend is applicable only to US Government
 contracts under FAR:
  
                    RESTRICTED RIGHTS LEGEND
  
 Use, reproduction and disclosure by the US Government is
 subject to restrictions as set forth in subparagraphs (a)
 and (c) of the Commercial Computer Software - Restricted
 Rights clause in FAR 52.227-19.
  
 Gaussian, Inc.
 340 Quinnipiac St., Bldg. 40, Wallingford CT 06492
  
  
 ---------------------------------------------------------------
 Warning -- This program may not be used in any manner that
 competes with the business of Gaussian, Inc. or will provide
 assistance to any competitor of Gaussian, Inc.  The licensee
 of this program is prohibited from giving any competitor of
 Gaussian, Inc. access to this program.  By using this program,
 the user acknowledges that Gaussian, Inc. is engaged in the
 business of creating and licensing software in the field of
 computational chemistry and represents and warrants to the
 licensee that it is not a competitor of Gaussian, Inc. and that
 it will not use this program in any manner prohibited above.
 ---------------------------------------------------------------
  

 Cite this work as:
 Gaussian 16, Revision C.01,
 M. J. Frisch, G. W. Trucks, H. B. Schlegel, G. E. Scuseria, 
 M. A. Robb, J. R. Cheeseman, G. Scalmani, V. Barone, 
 G. A. Petersson, H. Nakatsuji, X. Li, M. Caricato, A. V. Marenich, 
 J. Bloino, B. G. Janesko, R. Gomperts, B. Mennucci, H. P. Hratchian, 
 J. V. Ortiz, A. F. Izmaylov, J. L. Sonnenberg, D. Williams-Young, 
 F. Ding, F. Lipparini, F. Egidi, J. Goings, B. Peng, A. Petrone, 
 T. Henderson, D. Ranasinghe, V. G. Zakrzewski, J. Gao, N. Rega, 
 G. Zheng, W. Liang, M. Hada, M. Ehara, K. Toyota, R. Fukuda, 
 J. Hasegawa, M. Ishida, T. Nakajima, Y. Honda, O. Kitao, H. Nakai, 
 T. Vreven, K. Throssell, J. A. Montgomery, Jr., J. E. Peralta, 
 F. Ogliaro, M. J. Bearpark, J. J. Heyd, E. N. Brothers, K. N. Kudin, 
 V. N. Staroverov, T. A. Keith, R. Kobayashi, J. Normand, 
 K. Raghavachari, A. P. Rendell, J. C. Burant, S. S. Iyengar, 
 J. Tomasi, M. Cossi, J. M. Millam, M. Klene, C. Adamo, R. Cammi, 
 J. W. Ochterski, R. L. Martin, K. Morokuma, O. Farkas, 
 J. B. Foresman, and D. J. Fox, Gaussian, Inc., Wallingford CT, 2019.
 
 ******************************************
 Gaussian 16:  ES64L-G16RevC.01  3-Jul-2019
                26-May-2022 
 ******************************************
 %mem=8gb
 %nproc=4
 Will use up to    4 processors via shared memory.
 %chk=conf-472.chk
 -------------------------------------------------------------------
 # B3LYP/6-31G* guess=read geom=check nosymm integral(ultrafinegrid)
 -------------------------------------------------------------------
 1/29=2,38=1,172=1/1;
 2/12=2,15=1,40=1/2;
 3/5=1,6=6,7=1,11=2,14=-4,25=1,30=1,74=-5,75=-5,116=-2/1,2,3;
 4/5=1/1;
 5/5=2,38=6/2;
 6/7=2,8=2,9=2,10=2,28=1/1;
 99/5=1,9=1/99;
 ------------------------------------------------------
 Candidate Structure: Conf:472 Charge calc in gas phase
 ------------------------------------------------------
 Structure from the checkpoint file:  "conf-472.chk"
 Charge =  1 Multiplicity = 1
 Redundant internal coordinates found in file.  (old form).
 N,0,0.7977855399,-1.9196332517,-1.8399122114
 H,0,0.4741191173,-2.8055478469,-2.2297057521
 H,0,0.2679604499,-1.1623036385,-2.2770970413
 H,0,2.1238880345,-1.6637709881,-2.1374823803
 C,0,0.5277922431,-1.8805098987,-0.375915229
 H,0,-0.5075447129,-2.1970243835,-0.1887083982
 C,0,0.6319844448,-0.3877216971,0.0202061743
 C,0,1.4807704588,-2.8647380777,0.3556451766
 H,0,1.5192636273,-3.7762780906,-0.2565950512
 H,0,2.4981542064,-2.4558097175,0.3478616225
 O,0,0.6561999402,0.4775187533,-0.8597451903
 C,0,1.0956050837,-3.2427461219,1.7623070287
 C,0,0.1479664749,-4.1796891242,2.1124362831
 H,0,-0.494540325,-4.7812195105,1.4828072979
 C,0,1.6879304787,-2.7798349766,3.0007943226
 C,0,1.0424575179,-3.482558903,4.0562878748
 C,0,2.6972813294,-1.8489112264,3.3259593764
 H,0,3.1901166873,-1.2575788453,2.5600298669
 N,0,0.113442305,-4.3249458301,3.4790305691
 H,0,-0.5035938604,-4.9451219924,3.9816626752
 C,0,2.3771230169,-2.373319685,5.6876959401
 H,0,2.6632113428,-2.2016587298,6.7211415053
 C,0,1.3758592554,-3.2918832281,5.4016936124
 H,0,0.8733876006,-3.8428301547,6.1916146356
 C,0,3.0273616057,-1.6570605352,4.6607711363
 H,0,3.8005788563,-0.9395932572,4.9195620908
 N,0,0.6607093066,-0.1238697532,1.3380517522
 H,0,0.7181161805,-0.8961071485,1.9913310785
 C,0,0.758928309,1.2347140315,1.8900388261
 H,0,0.9121620341,1.0765955605,2.9630471711
 C,0,2.108365449,1.8685995531,1.4403461207
 C,0,-0.5168570226,2.0953384903,1.7193003365
 H,0,-0.6150767406,2.3780785545,0.6630527547
 O,0,3.1605748603,1.4054341063,1.8804061058
 C,0,-0.3976725357,3.3773032674,2.5877489772
 H,0,-0.7051070076,3.1312046302,3.6126521423
 H,0,0.6477637097,3.7007904945,2.6570699994
 C,0,-1.7835124792,1.3062067834,2.0914819468
 H,0,-1.7241569364,0.9276827586,3.1204112478
 H,0,-2.6640819159,1.9534791154,2.0276939337
 H,0,-1.9519932304,0.4545137248,1.4262328063
 C,0,-1.2331684739,4.5534320385,2.066065722
 H,0,-1.1697297372,5.4100673102,2.7454204748
 H,0,-2.2924138896,4.2891290683,1.9695822977
 H,0,-0.8779342523,4.8874132254,1.0825283183
 N,0,2.0628256153,2.9108934776,0.5787558969
 H,0,1.1825951923,3.2134952514,0.1785899506
 C,0,3.2290263697,3.6849919719,0.1900594528
 H,0,3.7077654032,4.0988828924,1.0878585249
 C,0,2.7172339325,4.8637125008,-0.6317331694
 C,0,4.3165342426,2.8735162181,-0.5541382827
 H,0,5.1381235765,3.5572889883,-0.7960936309
 H,0,4.6909747768,2.147269955,0.1728716879
 O,0,1.5589813283,5.0367491526,-0.9433803269
 C,0,3.8381566283,2.1420638347,-1.8108792934
 H,0,3.6206064317,2.8527058637,-2.6181217983
 H,0,2.9097338388,1.5983180413,-1.5995374112
 C,0,4.9252533646,1.1628862191,-2.2825781208
 H,0,5.824419596,1.7010708211,-2.5957444768
 H,0,5.2407422646,0.5015329629,-1.4657650322
 N,0,4.5142142982,0.3538000891,-3.4426567439
 H,0,4.9016067056,0.5954966828,-4.3439783862
 N,0,3.123450576,-1.1349363357,-4.5696891658
 H,0,2.9056849663,-2.1198021168,-4.6272590472
 H,0,3.372605947,-0.6877663269,-5.4407450123
 N,0,3.2507997365,-1.2471315011,-2.2738418523
 H,0,3.7188054812,-0.9214799174,-1.4359802491
 C,0,3.6476655918,-0.6739842334,-3.3958000348
 O,0,3.7146706287,5.6985400498,-0.9787527589
 H,0,3.3120816112,6.4338832948,-1.4799531065
 Recover connectivity data from disk.
                           ----------------------------
                           !    Current Parameters    !
                           ! (Angstroms and Degrees)  !
 --------------------------                            --------------------------
 ! Name  Definition              Value                                          !
 --------------------------------------------------------------------------------
 ! R1    R(1,2)                  1.0206                                         !
 ! R2    R(1,3)                  1.0224                                         !
 ! R3    R(1,4)                  1.383                                          !
 ! R4    R(1,5)                  1.4892                                         !
 ! R5    R(5,6)                  1.0987                                         !
 ! R6    R(5,7)                  1.548                                          !
 ! R7    R(5,8)                  1.5531                                         !
 ! R8    R(7,11)                 1.2343                                         !
 ! R9    R(7,27)                 1.3443                                         !
 ! R10   R(8,9)                  1.0987                                         !
 ! R11   R(8,10)                 1.0965                                         !
 ! R12   R(8,12)                 1.5066                                         !
 ! R13   R(12,13)                1.3779                                         !
 ! R14   R(12,15)                1.4488                                         !
 ! R15   R(13,14)                1.0822                                         !
 ! R16   R(13,19)                1.3747                                         !
 ! R17   R(15,16)                1.4229                                         !
 ! R18   R(15,17)                1.4111                                         !
 ! R19   R(16,19)                1.3805                                         !
 ! R20   R(16,23)                1.3992                                         !
 ! R21   R(17,18)                1.0859                                         !
 ! R22   R(17,25)                1.3883                                         !
 ! R23   R(19,20)                1.009                                          !
 ! R24   R(21,22)                1.086                                          !
 ! R25   R(21,23)                1.3886                                         !
 ! R26   R(21,25)                1.4108                                         !
 ! R27   R(23,24)                1.0863                                         !
 ! R28   R(25,26)                1.0861                                         !
 ! R29   R(27,28)                1.0131                                         !
 ! R30   R(27,29)                1.4697                                         !
 ! R31   R(29,30)                1.0954                                         !
 ! R32   R(29,31)                1.5572                                         !
 ! R33   R(29,32)                1.5484                                         !
 ! R34   R(31,34)                1.231                                          !
 ! R35   R(31,46)                1.3531                                         !
 ! R36   R(32,33)                1.0978                                         !
 ! R37   R(32,35)                1.553                                          !
 ! R38   R(32,38)                1.5381                                         !
 ! R39   R(35,36)                1.098                                          !
 ! R40   R(35,37)                1.0965                                         !
 ! R41   R(35,42)                1.5341                                         !
 ! R42   R(38,39)                1.098                                          !
 ! R43   R(38,40)                1.0947                                         !
 ! R44   R(38,41)                1.0938                                         !
 ! R45   R(42,43)                1.0952                                         !
 ! R46   R(42,44)                1.096                                          !
 ! R47   R(42,45)                1.0978                                         !
 ! R48   R(46,47)                1.0132                                         !
 ! R49   R(46,48)                1.4527                                         !
 ! R50   R(48,49)                1.0984                                         !
 ! R51   R(48,50)                1.5253                                         !
 ! R52   R(48,51)                1.5476                                         !
 ! R53   R(50,54)                1.2119                                         !
 ! R54   R(50,69)                1.3462                                         !
 ! R55   R(51,52)                1.0959                                         !
 ! R56   R(51,53)                1.0937                                         !
 ! R57   R(51,55)                1.5308                                         !
 ! R58   R(55,56)                1.0973                                         !
 ! R59   R(55,57)                1.0965                                         !
 ! R60   R(55,58)                1.5372                                         !
 ! R61   R(58,59)                1.0937                                         !
 ! R62   R(58,60)                1.0973                                         !
 ! R63   R(58,61)                1.4729                                         !
 ! R64   R(61,62)                1.0104                                         !
 ! R65   R(61,68)                1.3452                                         !
 ! R66   R(63,64)                1.0103                                         !
 ! R67   R(63,65)                1.0103                                         !
 ! R68   R(63,68)                1.3658                                         !
 ! R69   R(66,67)                1.0135                                         !
 ! R70   R(66,68)                1.3209                                         !
 ! R71   R(69,70)                0.9767                                         !
 ! A1    A(2,1,3)              108.3804                                         !
 ! A2    A(2,1,4)              112.4904                                         !
 ! A3    A(2,1,5)              109.9246                                         !
 ! A4    A(3,1,4)              105.5363                                         !
 ! A5    A(3,1,5)              107.8751                                         !
 ! A6    A(4,1,5)              112.3657                                         !
 ! A7    A(1,5,6)              109.3162                                         !
 ! A8    A(1,5,7)              105.3491                                         !
 ! A9    A(1,5,8)              109.5829                                         !
 ! A10   A(6,5,7)              107.3157                                         !
 ! A11   A(6,5,8)              108.3845                                         !
 ! A12   A(7,5,8)              116.6988                                         !
 ! A13   A(5,7,11)             119.6625                                         !
 ! A14   A(5,7,27)             116.2046                                         !
 ! A15   A(11,7,27)            124.1158                                         !
 ! A16   A(5,8,9)              106.5457                                         !
 ! A17   A(5,8,10)             109.247                                          !
 ! A18   A(5,8,12)             116.2263                                         !
 ! A19   A(9,8,10)             105.8389                                         !
 ! A20   A(9,8,12)             108.7267                                         !
 ! A21   A(10,8,12)            109.718                                          !
 ! A22   A(8,12,13)            125.7103                                         !
 ! A23   A(8,12,15)            127.8385                                         !
 ! A24   A(13,12,15)           106.3338                                         !
 ! A25   A(12,13,14)           129.6784                                         !
 ! A26   A(12,13,19)           109.9825                                         !
 ! A27   A(14,13,19)           120.3139                                         !
 ! A28   A(12,15,16)           106.9095                                         !
 ! A29   A(12,15,17)           134.4453                                         !
 ! A30   A(16,15,17)           118.6449                                         !
 ! A31   A(15,16,19)           107.2447                                         !
 ! A32   A(15,16,23)           122.5416                                         !
 ! A33   A(19,16,23)           130.2093                                         !
 ! A34   A(15,17,18)           121.4231                                         !
 ! A35   A(15,17,25)           118.8674                                         !
 ! A36   A(18,17,25)           119.6689                                         !
 ! A37   A(13,19,16)           109.5294                                         !
 ! A38   A(13,19,20)           125.1368                                         !
 ! A39   A(16,19,20)           125.3309                                         !
 ! A40   A(22,21,23)           119.3762                                         !
 ! A41   A(22,21,25)           119.4076                                         !
 ! A42   A(23,21,25)           121.2161                                         !
 ! A43   A(16,23,21)           117.3895                                         !
 ! A44   A(16,23,24)           121.3259                                         !
 ! A45   A(21,23,24)           121.2844                                         !
 ! A46   A(17,25,21)           121.3386                                         !
 ! A47   A(17,25,26)           119.3168                                         !
 ! A48   A(21,25,26)           119.3445                                         !
 ! A49   A(7,27,28)            118.9292                                         !
 ! A50   A(7,27,29)            123.4383                                         !
 ! A51   A(28,27,29)           117.2989                                         !
 ! A52   A(27,29,30)           104.112                                          !
 ! A53   A(27,29,31)           109.0097                                         !
 ! A54   A(27,29,32)           114.6653                                         !
 ! A55   A(30,29,31)           102.7334                                         !
 ! A56   A(30,29,32)           107.669                                          !
 ! A57   A(31,29,32)           117.1231                                         !
 ! A58   A(29,31,34)           118.9676                                         !
 ! A59   A(29,31,46)           117.9227                                         !
 ! A60   A(34,31,46)           123.1096                                         !
 ! A61   A(29,32,33)           108.8419                                         !
 ! A62   A(29,32,35)           109.5069                                         !
 ! A63   A(29,32,38)           111.512                                          !
 ! A64   A(33,32,35)           109.4079                                         !
 ! A65   A(33,32,38)           106.934                                          !
 ! A66   A(35,32,38)           110.5734                                         !
 ! A67   A(32,35,36)           108.3901                                         !
 ! A68   A(32,35,37)           110.6122                                         !
 ! A69   A(32,35,42)           113.634                                          !
 ! A70   A(36,35,37)           105.9066                                         !
 ! A71   A(36,35,42)           109.6805                                         !
 ! A72   A(37,35,42)           108.3345                                         !
 ! A73   A(32,38,39)           111.0467                                         !
 ! A74   A(32,38,40)           110.1801                                         !
 ! A75   A(32,38,41)           112.2837                                         !
 ! A76   A(39,38,40)           107.5736                                         !
 ! A77   A(39,38,41)           108.0506                                         !
 ! A78   A(40,38,41)           107.5213                                         !
 ! A79   A(35,42,43)           110.9274                                         !
 ! A80   A(35,42,44)           111.8028                                         !
 ! A81   A(35,42,45)           111.2035                                         !
 ! A82   A(43,42,44)           107.4113                                         !
 ! A83   A(43,42,45)           107.4011                                         !
 ! A84   A(44,42,45)           107.8935                                         !
 ! A85   A(31,46,47)           120.718                                          !
 ! A86   A(31,46,48)           123.6308                                         !
 ! A87   A(47,46,48)           115.6338                                         !
 ! A88   A(46,48,49)           109.3887                                         !
 ! A89   A(46,48,50)           106.6533                                         !
 ! A90   A(46,48,51)           114.4176                                         !
 ! A91   A(49,48,50)           107.1824                                         !
 ! A92   A(49,48,51)           106.5201                                         !
 ! A93   A(50,48,51)           112.4514                                         !
 ! A94   A(48,50,54)           124.7204                                         !
 ! A95   A(48,50,69)           111.6846                                         !
 ! A96   A(54,50,69)           123.5947                                         !
 ! A97   A(48,51,52)           107.8073                                         !
 ! A98   A(48,51,53)           105.6116                                         !
 ! A99   A(48,51,55)           115.1977                                         !
 ! A100  A(52,51,53)           107.7216                                         !
 ! A101  A(52,51,55)           110.5576                                         !
 ! A102  A(53,51,55)           109.5984                                         !
 ! A103  A(51,55,56)           110.8842                                         !
 ! A104  A(51,55,57)           110.0794                                         !
 ! A105  A(51,55,58)           109.5901                                         !
 ! A106  A(56,55,57)           107.163                                          !
 ! A107  A(56,55,58)           109.0869                                         !
 ! A108  A(57,55,58)           110.0021                                         !
 ! A109  A(55,58,59)           110.8432                                         !
 ! A110  A(55,58,60)           111.0275                                         !
 ! A111  A(55,58,61)           113.2184                                         !
 ! A112  A(59,58,60)           105.8632                                         !
 ! A113  A(59,58,61)           105.9152                                         !
 ! A114  A(60,58,61)           109.5998                                         !
 ! A115  A(58,61,62)           117.659                                          !
 ! A116  A(58,61,68)           124.8941                                         !
 ! A117  A(62,61,68)           117.4414                                         !
 ! A118  A(64,63,65)           115.816                                          !
 ! A119  A(64,63,68)           117.4337                                         !
 ! A120  A(65,63,68)           119.8013                                         !
 ! A121  A(67,66,68)           115.0904                                         !
 ! A122  A(61,68,63)           118.3722                                         !
 ! A123  A(61,68,66)           123.6879                                         !
 ! A124  A(63,68,66)           117.9236                                         !
 ! A125  A(50,69,70)           107.083                                          !
 ! D1    D(2,1,5,6)            -47.7468                                         !
 ! D2    D(2,1,5,7)           -162.7879                                         !
 ! D3    D(2,1,5,8)             70.9007                                         !
 ! D4    D(3,1,5,6)             70.2432                                         !
 ! D5    D(3,1,5,7)            -44.7979                                         !
 ! D6    D(3,1,5,8)           -171.1093                                         !
 ! D7    D(4,1,5,6)           -173.8421                                         !
 ! D8    D(4,1,5,7)             71.1167                                         !
 ! D9    D(4,1,5,8)            -55.1947                                         !
 ! D10   D(1,5,7,11)            12.8487                                         !
 ! D11   D(1,5,7,27)          -168.5909                                         !
 ! D12   D(6,5,7,11)          -103.5668                                         !
 ! D13   D(6,5,7,27)            74.9936                                         !
 ! D14   D(8,5,7,11)           134.6581                                         !
 ! D15   D(8,5,7,27)           -46.7815                                         !
 ! D16   D(1,5,8,9)            -41.9791                                         !
 ! D17   D(1,5,8,10)            71.9313                                         !
 ! D18   D(1,5,8,12)          -163.2918                                         !
 ! D19   D(6,5,8,9)             77.2438                                         !
 ! D20   D(6,5,8,10)          -168.8458                                         !
 ! D21   D(6,5,8,12)           -44.069                                          !
 ! D22   D(7,5,8,9)           -161.543                                          !
 ! D23   D(7,5,8,10)           -47.6326                                         !
 ! D24   D(7,5,8,12)            77.1443                                         !
 ! D25   D(5,7,27,28)            6.7341                                         !
 ! D26   D(5,7,27,29)          179.9155                                         !
 ! D27   D(11,7,27,28)        -174.777                                          !
 ! D28   D(11,7,27,29)          -1.5955                                         !
 ! D29   D(5,8,12,13)           79.773                                          !
 ! D30   D(5,8,12,15)         -104.7154                                         !
 ! D31   D(9,8,12,13)          -40.3732                                         !
 ! D32   D(9,8,12,15)          135.1384                                         !
 ! D33   D(10,8,12,13)        -155.6912                                         !
 ! D34   D(10,8,12,15)          19.8204                                         !
 ! D35   D(8,12,13,14)          -1.7436                                         !
 ! D36   D(8,12,13,19)         176.3999                                         !
 ! D37   D(15,12,13,14)       -178.051                                          !
 ! D38   D(15,12,13,19)          0.0924                                         !
 ! D39   D(8,12,15,16)        -176.3328                                         !
 ! D40   D(8,12,15,17)           3.4586                                         !
 ! D41   D(13,12,15,16)         -0.1295                                         !
 ! D42   D(13,12,15,17)        179.6619                                         !
 ! D43   D(12,13,19,16)         -0.0187                                         !
 ! D44   D(12,13,19,20)        179.3775                                         !
 ! D45   D(14,13,19,16)        178.3262                                         !
 ! D46   D(14,13,19,20)         -2.2777                                         !
 ! D47   D(12,15,16,19)          0.1193                                         !
 ! D48   D(12,15,16,23)        179.4233                                         !
 ! D49   D(17,15,16,19)       -179.7111                                         !
 ! D50   D(17,15,16,23)         -0.4071                                         !
 ! D51   D(12,15,17,18)          2.8319                                         !
 ! D52   D(12,15,17,25)       -179.4947                                         !
 ! D53   D(16,15,17,18)       -177.3955                                         !
 ! D54   D(16,15,17,25)          0.2779                                         !
 ! D55   D(15,16,19,13)         -0.065                                          !
 ! D56   D(15,16,19,20)       -179.4597                                         !
 ! D57   D(23,16,19,13)       -179.2967                                         !
 ! D58   D(23,16,19,20)          1.3086                                         !
 ! D59   D(15,16,23,21)          0.1274                                         !
 ! D60   D(15,16,23,24)       -179.6947                                         !
 ! D61   D(19,16,23,21)        179.257                                          !
 ! D62   D(19,16,23,24)         -0.5651                                         !
 ! D63   D(15,17,25,21)          0.1112                                         !
 ! D64   D(15,17,25,26)       -179.7718                                         !
 ! D65   D(18,17,25,21)        177.8263                                         !
 ! D66   D(18,17,25,26)         -2.0567                                         !
 ! D67   D(22,21,23,16)       -179.8635                                         !
 ! D68   D(22,21,23,24)         -0.0413                                         !
 ! D69   D(25,21,23,16)          0.2755                                         !
 ! D70   D(25,21,23,24)       -179.9023                                         !
 ! D71   D(22,21,25,17)        179.7359                                         !
 ! D72   D(22,21,25,26)         -0.3811                                         !
 ! D73   D(23,21,25,17)         -0.4032                                         !
 ! D74   D(23,21,25,26)        179.4798                                         !
 ! D75   D(7,27,29,30)        -171.5978                                         !
 ! D76   D(7,27,29,31)         -62.5112                                         !
 ! D77   D(7,27,29,32)          71.0258                                         !
 ! D78   D(28,27,29,30)          1.687                                          !
 ! D79   D(28,27,29,31)        110.7736                                         !
 ! D80   D(28,27,29,32)       -115.6894                                         !
 ! D81   D(27,29,31,34)        -67.6778                                         !
 ! D82   D(27,29,31,46)        112.3845                                         !
 ! D83   D(30,29,31,34)         42.3354                                         !
 ! D84   D(30,29,31,46)       -137.6023                                         !
 ! D85   D(32,29,31,34)        160.0696                                         !
 ! D86   D(32,29,31,46)        -19.8681                                         !
 ! D87   D(27,29,32,33)        -72.1221                                         !
 ! D88   D(27,29,32,35)        168.3154                                         !
 ! D89   D(27,29,32,38)         45.608                                          !
 ! D90   D(30,29,32,33)        172.546                                          !
 ! D91   D(30,29,32,35)         52.9835                                         !
 ! D92   D(30,29,32,38)        -69.7239                                         !
 ! D93   D(31,29,32,33)         57.5167                                         !
 ! D94   D(31,29,32,35)        -62.0457                                         !
 ! D95   D(31,29,32,38)        175.2468                                         !
 ! D96   D(29,31,46,47)         -5.2438                                         !
 ! D97   D(29,31,46,48)        173.1743                                         !
 ! D98   D(34,31,46,47)        174.8213                                         !
 ! D99   D(34,31,46,48)         -6.7605                                         !
 ! D100  D(29,32,35,36)        -83.4422                                         !
 ! D101  D(29,32,35,37)         32.2552                                         !
 ! D102  D(29,32,35,42)        154.3577                                         !
 ! D103  D(33,32,35,36)        157.3438                                         !
 ! D104  D(33,32,35,37)        -86.9588                                         !
 ! D105  D(33,32,35,42)         35.1437                                         !
 ! D106  D(38,32,35,36)         39.8216                                         !
 ! D107  D(38,32,35,37)        155.519                                          !
 ! D108  D(38,32,35,42)        -82.3785                                         !
 ! D109  D(29,32,38,39)         57.1338                                         !
 ! D110  D(29,32,38,40)        176.2182                                         !
 ! D111  D(29,32,38,41)        -63.9634                                         !
 ! D112  D(33,32,38,39)        176.0075                                         !
 ! D113  D(33,32,38,40)        -64.9081                                         !
 ! D114  D(33,32,38,41)         54.9103                                         !
 ! D115  D(35,32,38,39)        -64.9607                                         !
 ! D116  D(35,32,38,40)         54.1237                                         !
 ! D117  D(35,32,38,41)        173.9421                                         !
 ! D118  D(32,35,42,43)        176.2159                                         !
 ! D119  D(32,35,42,44)         56.3469                                         !
 ! D120  D(32,35,42,45)        -64.3261                                         !
 ! D121  D(36,35,42,43)         54.7328                                         !
 ! D122  D(36,35,42,44)        -65.1362                                         !
 ! D123  D(36,35,42,45)        174.1907                                         !
 ! D124  D(37,35,42,43)        -60.4283                                         !
 ! D125  D(37,35,42,44)        179.7027                                         !
 ! D126  D(37,35,42,45)         59.0296                                         !
 ! D127  D(31,46,48,49)        -56.9154                                         !
 ! D128  D(31,46,48,50)       -172.52                                           !
 ! D129  D(31,46,48,51)         62.48                                           !
 ! D130  D(47,46,48,49)        121.5763                                         !
 ! D131  D(47,46,48,50)          5.9717                                         !
 ! D132  D(47,46,48,51)       -119.0284                                         !
 ! D133  D(46,48,50,54)         -3.9444                                         !
 ! D134  D(46,48,50,69)        176.2406                                         !
 ! D135  D(49,48,50,54)       -121.0216                                         !
 ! D136  D(49,48,50,69)         59.1634                                         !
 ! D137  D(51,48,50,54)        122.2463                                         !
 ! D138  D(51,48,50,69)        -57.5687                                         !
 ! D139  D(46,48,51,52)        179.8763                                         !
 ! D140  D(46,48,51,53)        -65.1813                                         !
 ! D141  D(46,48,51,55)         55.9079                                         !
 ! D142  D(49,48,51,52)        -59.1306                                         !
 ! D143  D(49,48,51,53)         55.8118                                         !
 ! D144  D(49,48,51,55)        176.901                                          !
 ! D145  D(50,48,51,52)         57.9964                                         !
 ! D146  D(50,48,51,53)        172.9388                                         !
 ! D147  D(50,48,51,55)        -65.972                                          !
 ! D148  D(48,50,69,70)       -178.6661                                         !
 ! D149  D(54,50,69,70)          1.5164                                         !
 ! D150  D(48,51,55,56)         70.8796                                         !
 ! D151  D(48,51,55,57)        -47.5287                                         !
 ! D152  D(48,51,55,58)       -168.637                                          !
 ! D153  D(52,51,55,56)        -51.6286                                         !
 ! D154  D(52,51,55,57)       -170.0368                                         !
 ! D155  D(52,51,55,58)         68.8548                                         !
 ! D156  D(53,51,55,56)       -170.2237                                         !
 ! D157  D(53,51,55,57)         71.3681                                         !
 ! D158  D(53,51,55,58)        -49.7403                                         !
 ! D159  D(51,55,58,59)        -64.7001                                         !
 ! D160  D(51,55,58,60)         52.6679                                         !
 ! D161  D(51,55,58,61)        176.4446                                         !
 ! D162  D(56,55,58,59)         56.87                                           !
 ! D163  D(56,55,58,60)        174.2381                                         !
 ! D164  D(56,55,58,61)        -61.9852                                         !
 ! D165  D(57,55,58,59)        174.1448                                         !
 ! D166  D(57,55,58,60)        -68.4871                                         !
 ! D167  D(57,55,58,61)         55.2896                                         !
 ! D168  D(55,58,61,62)        104.9136                                         !
 ! D169  D(55,58,61,68)        -74.2117                                         !
 ! D170  D(59,58,61,62)        -16.7494                                         !
 ! D171  D(59,58,61,68)        164.1253                                         !
 ! D172  D(60,58,61,62)       -130.5311                                         !
 ! D173  D(60,58,61,68)         50.3437                                         !
 ! D174  D(58,61,68,63)        165.1722                                         !
 ! D175  D(58,61,68,66)        -13.3239                                         !
 ! D176  D(62,61,68,63)        -13.9548                                         !
 ! D177  D(62,61,68,66)        167.5491                                         !
 ! D178  D(64,63,68,61)        148.0693                                         !
 ! D179  D(64,63,68,66)        -33.3469                                         !
 ! D180  D(65,63,68,61)         -1.5565                                         !
 ! D181  D(65,63,68,66)        177.0273                                         !
 ! D182  D(67,66,68,61)         -6.0142                                         !
 ! D183  D(67,66,68,63)        175.4833                                         !
 --------------------------------------------------------------------------------
 Symmetry turned off by external request.
 Stoichiometry    C23H36N7O4(1+)
 Framework group  C1[X(C23H36N7O4)]
 Deg. of freedom   204
 Full point group                 C1      NOp   1
                          Input orientation:                          
 ---------------------------------------------------------------------
 Center     Atomic      Atomic             Coordinates (Angstroms)
 Number     Number       Type             X           Y           Z
 ---------------------------------------------------------------------
      1          7           0        0.797786   -1.919633   -1.839912
      2          1           0        0.474119   -2.805548   -2.229706
      3          1           0        0.267960   -1.162304   -2.277097
      4          1           0        2.123888   -1.663771   -2.137482
      5          6           0        0.527792   -1.880510   -0.375915
      6          1           0       -0.507545   -2.197024   -0.188708
      7          6           0        0.631984   -0.387722    0.020206
      8          6           0        1.480770   -2.864738    0.355645
      9          1           0        1.519264   -3.776278   -0.256595
     10          1           0        2.498154   -2.455810    0.347862
     11          8           0        0.656200    0.477519   -0.859745
     12          6           0        1.095605   -3.242746    1.762307
     13          6           0        0.147966   -4.179689    2.112436
     14          1           0       -0.494540   -4.781220    1.482807
     15          6           0        1.687930   -2.779835    3.000794
     16          6           0        1.042458   -3.482559    4.056288
     17          6           0        2.697281   -1.848911    3.325959
     18          1           0        3.190117   -1.257579    2.560030
     19          7           0        0.113442   -4.324946    3.479031
     20          1           0       -0.503594   -4.945122    3.981663
     21          6           0        2.377123   -2.373320    5.687696
     22          1           0        2.663211   -2.201659    6.721142
     23          6           0        1.375859   -3.291883    5.401694
     24          1           0        0.873388   -3.842830    6.191615
     25          6           0        3.027362   -1.657061    4.660771
     26          1           0        3.800579   -0.939593    4.919562
     27          7           0        0.660709   -0.123870    1.338052
     28          1           0        0.718116   -0.896107    1.991331
     29          6           0        0.758928    1.234714    1.890039
     30          1           0        0.912162    1.076596    2.963047
     31          6           0        2.108365    1.868600    1.440346
     32          6           0       -0.516857    2.095338    1.719300
     33          1           0       -0.615077    2.378079    0.663053
     34          8           0        3.160575    1.405434    1.880406
     35          6           0       -0.397673    3.377303    2.587749
     36          1           0       -0.705107    3.131205    3.612652
     37          1           0        0.647764    3.700790    2.657070
     38          6           0       -1.783512    1.306207    2.091482
     39          1           0       -1.724157    0.927683    3.120411
     40          1           0       -2.664082    1.953479    2.027694
     41          1           0       -1.951993    0.454514    1.426233
     42          6           0       -1.233168    4.553432    2.066066
     43          1           0       -1.169730    5.410067    2.745420
     44          1           0       -2.292414    4.289129    1.969582
     45          1           0       -0.877934    4.887413    1.082528
     46          7           0        2.062826    2.910893    0.578756
     47          1           0        1.182595    3.213495    0.178590
     48          6           0        3.229026    3.684992    0.190059
     49          1           0        3.707765    4.098883    1.087859
     50          6           0        2.717234    4.863713   -0.631733
     51          6           0        4.316534    2.873516   -0.554138
     52          1           0        5.138124    3.557289   -0.796094
     53          1           0        4.690975    2.147270    0.172872
     54          8           0        1.558981    5.036749   -0.943380
     55          6           0        3.838157    2.142064   -1.810879
     56          1           0        3.620606    2.852706   -2.618122
     57          1           0        2.909734    1.598318   -1.599537
     58          6           0        4.925253    1.162886   -2.282578
     59          1           0        5.824420    1.701071   -2.595744
     60          1           0        5.240742    0.501533   -1.465765
     61          7           0        4.514214    0.353800   -3.442657
     62          1           0        4.901607    0.595497   -4.343978
     63          7           0        3.123451   -1.134936   -4.569689
     64          1           0        2.905685   -2.119802   -4.627259
     65          1           0        3.372606   -0.687766   -5.440745
     66          7           0        3.250800   -1.247132   -2.273842
     67          1           0        3.718805   -0.921480   -1.435980
     68          6           0        3.647666   -0.673984   -3.395800
     69          8           0        3.714671    5.698540   -0.978753
     70          1           0        3.312082    6.433883   -1.479953
 ---------------------------------------------------------------------
 Rotational constants (GHZ):           0.1431217           0.0887650           0.0692235
 Standard basis: 6-31G(d) (6D, 7F)
   582 basis functions,  1096 primitive gaussians,   582 cartesian basis functions
   127 alpha electrons      127 beta electrons
       nuclear repulsion energy      3880.1084607847 Hartrees.
 NAtoms=   70 NActive=   70 NUniq=   70 SFac= 1.00D+00 NAtFMM=   60 NAOKFM=T Big=T
 Integral buffers will be    131072 words long.
 Raffenetti 2 integral format.
 Two-electron integral symmetry is turned off.
 One-electron integrals computed using PRISM.
 NBasis=   582 RedAO= T EigKep=  3.73D-04  NBF=   582
 NBsUse=   582 1.00D-06 EigRej= -1.00D+00 NBFU=   582
 Initial guess from the checkpoint file:  "conf-472.chk"
 B after Tr=     0.000000    0.000000    0.000000
         Rot=    1.000000    0.000000    0.000000    0.000000 Ang=   0.00 deg.
 Requested convergence on RMS density matrix=1.00D-08 within 128 cycles.
 Requested convergence on MAX density matrix=1.00D-06.
 Requested convergence on             energy=1.00D-06.
 No special actions if energy rises.
 SCF Done:  E(RB3LYP) =  -1582.16136898     A.U. after    1 cycles
            NFock=  1  Conv=0.25D-08     -V/T= 2.0095

 **********************************************************************

            Population analysis using the SCF Density.

 **********************************************************************

 Alpha  occ. eigenvalues --  -19.29167 -19.23800 -19.22231 -19.19694 -14.50021
 Alpha  occ. eigenvalues --  -14.49370 -14.48209 -14.46598 -14.45883 -14.45459
 Alpha  occ. eigenvalues --  -14.44414 -10.44714 -10.41699 -10.39304 -10.37223
 Alpha  occ. eigenvalues --  -10.34985 -10.34640 -10.33326 -10.32049 -10.30895
 Alpha  occ. eigenvalues --  -10.30624 -10.30002 -10.28789 -10.28191 -10.27567
 Alpha  occ. eigenvalues --  -10.27410 -10.26904 -10.26490 -10.26161 -10.25865
 Alpha  occ. eigenvalues --  -10.25510 -10.25465 -10.25175 -10.24016  -1.20237
 Alpha  occ. eigenvalues --   -1.14187  -1.13345  -1.11768  -1.11196  -1.06490
 Alpha  occ. eigenvalues --   -1.04142  -1.03315  -1.02324  -1.01173  -1.00026
 Alpha  occ. eigenvalues --   -0.91723  -0.90541  -0.89922  -0.88697  -0.85411
 Alpha  occ. eigenvalues --   -0.84697  -0.81483  -0.81259  -0.79691  -0.79349
 Alpha  occ. eigenvalues --   -0.78340  -0.75714  -0.74590  -0.71878  -0.71192
 Alpha  occ. eigenvalues --   -0.70734  -0.70470  -0.70194  -0.68082  -0.67395
 Alpha  occ. eigenvalues --   -0.67213  -0.66106  -0.65930  -0.64799  -0.64371
 Alpha  occ. eigenvalues --   -0.62223  -0.61890  -0.61478  -0.61347  -0.59719
 Alpha  occ. eigenvalues --   -0.59309  -0.58468  -0.58171  -0.57265  -0.57046
 Alpha  occ. eigenvalues --   -0.56557  -0.55555  -0.55058  -0.54785  -0.54245
 Alpha  occ. eigenvalues --   -0.53736  -0.53266  -0.52690  -0.51890  -0.51553
 Alpha  occ. eigenvalues --   -0.51101  -0.50760  -0.50446  -0.50205  -0.49679
 Alpha  occ. eigenvalues --   -0.49297  -0.48794  -0.48544  -0.48204  -0.47772
 Alpha  occ. eigenvalues --   -0.47214  -0.47069  -0.46149  -0.45608  -0.45125
 Alpha  occ. eigenvalues --   -0.44995  -0.44228  -0.43948  -0.43276  -0.42996
 Alpha  occ. eigenvalues --   -0.41406  -0.41372  -0.41145  -0.41010  -0.40901
 Alpha  occ. eigenvalues --   -0.40359  -0.39804  -0.39749  -0.37778  -0.37295
 Alpha  occ. eigenvalues --   -0.36240  -0.36036  -0.35623  -0.33768  -0.32711
 Alpha  occ. eigenvalues --   -0.30255  -0.28601
 Alpha virt. eigenvalues --   -0.09989  -0.09308  -0.08827  -0.08699  -0.06795
 Alpha virt. eigenvalues --   -0.06415  -0.05285  -0.04370  -0.03525  -0.03008
 Alpha virt. eigenvalues --   -0.02241  -0.01312  -0.00001   0.00456   0.00729
 Alpha virt. eigenvalues --    0.01599   0.01944   0.02614   0.02681   0.03221
 Alpha virt. eigenvalues --    0.03459   0.03625   0.04145   0.04555   0.05596
 Alpha virt. eigenvalues --    0.05816   0.06126   0.06746   0.07202   0.07498
 Alpha virt. eigenvalues --    0.07716   0.08346   0.08763   0.08972   0.09187
 Alpha virt. eigenvalues --    0.09773   0.09878   0.10151   0.10378   0.11021
 Alpha virt. eigenvalues --    0.11158   0.11260   0.11649   0.12514   0.12644
 Alpha virt. eigenvalues --    0.12897   0.13315   0.13877   0.14352   0.15197
 Alpha virt. eigenvalues --    0.15286   0.15477   0.15748   0.16070   0.16384
 Alpha virt. eigenvalues --    0.17291   0.17667   0.17773   0.18839   0.19452
 Alpha virt. eigenvalues --    0.19865   0.20068   0.20604   0.22613   0.23384
 Alpha virt. eigenvalues --    0.24131   0.25996   0.26570   0.26956   0.27529
 Alpha virt. eigenvalues --    0.28351   0.29470   0.30074   0.32093   0.32314
 Alpha virt. eigenvalues --    0.34959   0.35462   0.38135   0.39045   0.39483
 Alpha virt. eigenvalues --    0.40020   0.41392   0.41807   0.42062   0.42998
 Alpha virt. eigenvalues --    0.44052   0.44084   0.44609   0.44940   0.45313
 Alpha virt. eigenvalues --    0.45519   0.45613   0.46375   0.46517   0.46779
 Alpha virt. eigenvalues --    0.47153   0.47639   0.47864   0.48817   0.49128
 Alpha virt. eigenvalues --    0.49766   0.50078   0.50679   0.51357   0.51737
 Alpha virt. eigenvalues --    0.52412   0.52892   0.53031   0.53697   0.53913
 Alpha virt. eigenvalues --    0.54141   0.54230   0.54987   0.55134   0.55279
 Alpha virt. eigenvalues --    0.55874   0.56303   0.56663   0.57052   0.57519
 Alpha virt. eigenvalues --    0.57718   0.58161   0.58727   0.59139   0.59704
 Alpha virt. eigenvalues --    0.60802   0.61312   0.62322   0.63573   0.64057
 Alpha virt. eigenvalues --    0.64812   0.65620   0.66050   0.66565   0.67373
 Alpha virt. eigenvalues --    0.67543   0.68152   0.68755   0.69340   0.69594
 Alpha virt. eigenvalues --    0.69813   0.70952   0.71429   0.71911   0.72402
 Alpha virt. eigenvalues --    0.72757   0.73148   0.73518   0.74105   0.74804
 Alpha virt. eigenvalues --    0.75020   0.75485   0.75860   0.76121   0.76254
 Alpha virt. eigenvalues --    0.76878   0.77618   0.78035   0.78407   0.78787
 Alpha virt. eigenvalues --    0.78835   0.79549   0.79726   0.80094   0.80523
 Alpha virt. eigenvalues --    0.80695   0.81180   0.81402   0.81834   0.82177
 Alpha virt. eigenvalues --    0.82574   0.82813   0.83156   0.83464   0.83835
 Alpha virt. eigenvalues --    0.84952   0.85304   0.85584   0.86114   0.86214
 Alpha virt. eigenvalues --    0.86768   0.87007   0.88080   0.88569   0.89313
 Alpha virt. eigenvalues --    0.89509   0.90040   0.90590   0.91069   0.91434
 Alpha virt. eigenvalues --    0.92356   0.92626   0.92699   0.93434   0.94260
 Alpha virt. eigenvalues --    0.95092   0.95752   0.96663   0.97239   0.98861
 Alpha virt. eigenvalues --    0.99320   0.99760   1.01076   1.01780   1.02528
 Alpha virt. eigenvalues --    1.03262   1.04465   1.05957   1.06732   1.07272
 Alpha virt. eigenvalues --    1.07919   1.08818   1.09821   1.11000   1.11585
 Alpha virt. eigenvalues --    1.12572   1.13387   1.14181   1.15164   1.15740
 Alpha virt. eigenvalues --    1.16225   1.16733   1.19012   1.19314   1.20202
 Alpha virt. eigenvalues --    1.21196   1.22505   1.23087   1.24497   1.25301
 Alpha virt. eigenvalues --    1.25793   1.26955   1.27609   1.28542   1.29440
 Alpha virt. eigenvalues --    1.30375   1.31272   1.32190   1.32796   1.33879
 Alpha virt. eigenvalues --    1.34387   1.34962   1.35940   1.36612   1.38412
 Alpha virt. eigenvalues --    1.39630   1.39682   1.41191   1.42137   1.42513
 Alpha virt. eigenvalues --    1.42919   1.43737   1.44037   1.45241   1.46245
 Alpha virt. eigenvalues --    1.47493   1.48057   1.50535   1.51231   1.52844
 Alpha virt. eigenvalues --    1.53864   1.54501   1.55472   1.56163   1.59227
 Alpha virt. eigenvalues --    1.59722   1.60096   1.60678   1.61800   1.62504
 Alpha virt. eigenvalues --    1.63594   1.64692   1.65310   1.65749   1.66935
 Alpha virt. eigenvalues --    1.67545   1.68066   1.68922   1.69158   1.69611
 Alpha virt. eigenvalues --    1.70320   1.70702   1.71420   1.72029   1.73159
 Alpha virt. eigenvalues --    1.73344   1.74373   1.74893   1.76464   1.77011
 Alpha virt. eigenvalues --    1.77256   1.78293   1.79048   1.79727   1.80357
 Alpha virt. eigenvalues --    1.81612   1.82161   1.82235   1.82531   1.83620
 Alpha virt. eigenvalues --    1.83807   1.84498   1.84915   1.85447   1.86324
 Alpha virt. eigenvalues --    1.87331   1.87452   1.88507   1.89133   1.89609
 Alpha virt. eigenvalues --    1.90218   1.90356   1.91272   1.91767   1.92579
 Alpha virt. eigenvalues --    1.93213   1.93666   1.94867   1.95717   1.96431
 Alpha virt. eigenvalues --    1.96614   1.97465   1.97857   1.98281   1.99379
 Alpha virt. eigenvalues --    2.00095   2.00504   2.01799   2.02042   2.04457
 Alpha virt. eigenvalues --    2.05139   2.05563   2.06396   2.06986   2.07313
 Alpha virt. eigenvalues --    2.08459   2.09573   2.10239   2.11100   2.13249
 Alpha virt. eigenvalues --    2.14286   2.16544   2.17611   2.17834   2.18058
 Alpha virt. eigenvalues --    2.18276   2.20015   2.21309   2.21814   2.22717
 Alpha virt. eigenvalues --    2.23338   2.24522   2.25031   2.26043   2.27063
 Alpha virt. eigenvalues --    2.27411   2.28472   2.29473   2.29980   2.30821
 Alpha virt. eigenvalues --    2.31577   2.31966   2.32764   2.32872   2.34993
 Alpha virt. eigenvalues --    2.35813   2.36827   2.37118   2.39541   2.40463
 Alpha virt. eigenvalues --    2.41023   2.42610   2.42934   2.44050   2.44946
 Alpha virt. eigenvalues --    2.46181   2.46423   2.47575   2.48174   2.49379
 Alpha virt. eigenvalues --    2.50361   2.51194   2.51633   2.52091   2.54243
 Alpha virt. eigenvalues --    2.56039   2.56367   2.57413   2.58005   2.59192
 Alpha virt. eigenvalues --    2.59391   2.60060   2.61110   2.62576   2.63687
 Alpha virt. eigenvalues --    2.65184   2.66417   2.69120   2.69338   2.69992
 Alpha virt. eigenvalues --    2.72120   2.73355   2.74310   2.76967   2.78524
 Alpha virt. eigenvalues --    2.79586   2.84433   2.85194   2.88871   2.89890
 Alpha virt. eigenvalues --    2.90124   2.91698   2.93994   2.96351   2.96725
 Alpha virt. eigenvalues --    3.02116   3.04202   3.07581   3.12689   3.16287
 Alpha virt. eigenvalues --    3.36077   3.67936   3.78813   3.79854   3.85078
 Alpha virt. eigenvalues --    3.90791   3.92996   3.95994   3.98260   4.00399
 Alpha virt. eigenvalues --    4.02233   4.05309   4.07620   4.08857   4.09854
 Alpha virt. eigenvalues --    4.10315   4.14950   4.17042   4.17421   4.18966
 Alpha virt. eigenvalues --    4.23363   4.24302   4.27583   4.30752   4.31392
 Alpha virt. eigenvalues --    4.34017   4.36694   4.37973   4.47160   4.48501
 Alpha virt. eigenvalues --    4.49677   4.52654   4.55610   4.67159   4.73093
          Condensed to atoms (all electrons):
 Mulliken charges:
               1
     1  N   -0.791338
     2  H    0.345373
     3  H    0.371952
     4  H    0.457379
     5  C   -0.088047
     6  H    0.187902
     7  C    0.625706
     8  C   -0.358711
     9  H    0.162728
    10  H    0.166647
    11  O   -0.546641
    12  C    0.028702
    13  C    0.013337
    14  H    0.158720
    15  C    0.038786
    16  C    0.320252
    17  C   -0.224336
    18  H    0.150045
    19  N   -0.680015
    20  H    0.343799
    21  C   -0.149087
    22  H    0.146486
    23  C   -0.157659
    24  H    0.143427
    25  C   -0.140379
    26  H    0.146156
    27  N   -0.618060
    28  H    0.375638
    29  C   -0.037491
    30  H    0.181413
    31  C    0.604133
    32  C   -0.106694
    33  H    0.150958
    34  O   -0.531027
    35  C   -0.269599
    36  H    0.147204
    37  H    0.141700
    38  C   -0.457265
    39  H    0.147847
    40  H    0.165644
    41  H    0.141672
    42  C   -0.459379
    43  H    0.158732
    44  H    0.153538
    45  H    0.156377
    46  N   -0.616864
    47  H    0.376512
    48  C   -0.019119
    49  H    0.202203
    50  C    0.581657
    51  C   -0.293040
    52  H    0.169417
    53  H    0.189313
    54  O   -0.460049
    55  C   -0.289364
    56  H    0.153504
    57  H    0.193471
    58  C   -0.170499
    59  H    0.183361
    60  H    0.176651
    61  N   -0.597329
    62  H    0.350811
    63  N   -0.759277
    64  H    0.366743
    65  H    0.359731
    66  N   -0.800672
    67  H    0.346526
    68  C    0.774523
    69  O   -0.562958
    70  H    0.428220
 Sum of Mulliken charges =   1.00000
 Mulliken charges with hydrogens summed into heavy atoms:
               1
     1  N   -0.074014
     5  C    0.099855
     7  C    0.625706
     8  C   -0.029336
    11  O   -0.546641
    12  C    0.028702
    13  C    0.172056
    15  C    0.038786
    16  C    0.320252
    17  C   -0.074292
    19  N   -0.336216
    21  C   -0.002601
    23  C   -0.014232
    25  C    0.005777
    27  N   -0.242421
    29  C    0.143922
    31  C    0.604133
    32  C    0.044264
    34  O   -0.531027
    35  C    0.019306
    38  C   -0.002101
    42  C    0.009268
    46  N   -0.240353
    48  C    0.183084
    50  C    0.581657
    51  C    0.065690
    54  O   -0.460049
    55  C    0.057611
    58  C    0.189513
    61  N   -0.246518
    63  N   -0.032803
    66  N    0.003233
    68  C    0.774523
    69  O   -0.134738
 Electronic spatial extent (au):  <R**2>=          19887.8548
 Charge=              1.0000 electrons
 Dipole moment (field-independent basis, Debye):
    X=             10.0431    Y=             -3.9683    Z=             -7.8854  Tot=             13.3713
 Quadrupole moment (field-independent basis, Debye-Ang):
   XX=           -149.5260   YY=           -139.5264   ZZ=           -122.0570
   XY=             20.9700   XZ=            -51.2557   YZ=             -6.2148
 Traceless Quadrupole moment (field-independent basis, Debye-Ang):
   XX=            -12.4895   YY=             -2.4899   ZZ=             14.9794
   XY=             20.9700   XZ=            -51.2557   YZ=             -6.2148
 Octapole moment (field-independent basis, Debye-Ang**2):
  XXX=           -840.6267  YYY=           -119.8013  ZZZ=           -565.1175  XYY=           -286.7484
  XXY=             23.1662  XXZ=           -348.9315  XZZ=           -150.6576  YZZ=           -160.5930
  YYZ=           -125.9437  XYZ=             -3.3949
 Hexadecapole moment (field-independent basis, Debye-Ang**3):
 XXXX=          -6586.9495 YYYY=          -7971.2564 ZZZZ=          -6305.5802 XXXY=           -324.7174
 XXXZ=           -464.8246 YYYX=            199.7961 YYYZ=            576.5398 ZZZX=           -460.6917
 ZZZY=            803.5563 XXYY=          -2629.7212 XXZZ=          -1847.6012 YYZZ=          -2414.9094
 XXYZ=            261.9027 YYXZ=           -239.3898 ZZXY=           -148.8618
 N-N= 3.880108460785D+03 E-N=-1.141662931467D+04  KE= 1.567226449786D+03
 Unable to Open any file for archive entry.
 1\1\GINC-LAC-304\SP\RB3LYP\6-31G(d)\C23H36N7O4(1+)\KENGMITH\26-May-202
 2\0\\# B3LYP/6-31G* guess=read geom=check nosymm integral(ultrafinegri
 d)\\Candidate Structure: Conf:472 Charge calc in gas phase\\1,1\N,0,0.
 7977855399,-1.9196332517,-1.8399122114\H,0,0.4741191173,-2.8055478469,
 -2.2297057521\H,0,0.2679604499,-1.1623036385,-2.2770970413\H,0,2.12388
 80345,-1.6637709881,-2.1374823803\C,0,0.5277922431,-1.8805098987,-0.37
 5915229\H,0,-0.5075447129,-2.1970243835,-0.1887083982\C,0,0.6319844448
 ,-0.3877216971,0.0202061743\C,0,1.4807704588,-2.8647380777,0.355645176
 6\H,0,1.5192636273,-3.7762780906,-0.2565950512\H,0,2.4981542064,-2.455
 8097175,0.3478616225\O,0,0.6561999402,0.4775187533,-0.8597451903\C,0,1
 .0956050837,-3.2427461219,1.7623070287\C,0,0.1479664749,-4.1796891242,
 2.1124362831\H,0,-0.494540325,-4.7812195105,1.4828072979\C,0,1.6879304
 787,-2.7798349766,3.0007943226\C,0,1.0424575179,-3.482558903,4.0562878
 748\C,0,2.6972813294,-1.8489112264,3.3259593764\H,0,3.1901166873,-1.25
 75788453,2.5600298669\N,0,0.113442305,-4.3249458301,3.4790305691\H,0,-
 0.5035938604,-4.9451219924,3.9816626752\C,0,2.3771230169,-2.373319685,
 5.6876959401\H,0,2.6632113428,-2.2016587298,6.7211415053\C,0,1.3758592
 554,-3.2918832281,5.4016936124\H,0,0.8733876006,-3.8428301547,6.191614
 6356\C,0,3.0273616057,-1.6570605352,4.6607711363\H,0,3.8005788563,-0.9
 395932572,4.9195620908\N,0,0.6607093066,-0.1238697532,1.3380517522\H,0
 ,0.7181161805,-0.8961071485,1.9913310785\C,0,0.758928309,1.2347140315,
 1.8900388261\H,0,0.9121620341,1.0765955605,2.9630471711\C,0,2.10836544
 9,1.8685995531,1.4403461207\C,0,-0.5168570226,2.0953384903,1.719300336
 5\H,0,-0.6150767406,2.3780785545,0.6630527547\O,0,3.1605748603,1.40543
 41063,1.8804061058\C,0,-0.3976725357,3.3773032674,2.5877489772\H,0,-0.
 7051070076,3.1312046302,3.6126521423\H,0,0.6477637097,3.7007904945,2.6
 570699994\C,0,-1.7835124792,1.3062067834,2.0914819468\H,0,-1.724156936
 4,0.9276827586,3.1204112478\H,0,-2.6640819159,1.9534791154,2.027693933
 7\H,0,-1.9519932304,0.4545137248,1.4262328063\C,0,-1.2331684739,4.5534
 320385,2.066065722\H,0,-1.1697297372,5.4100673102,2.7454204748\H,0,-2.
 2924138896,4.2891290683,1.9695822977\H,0,-0.8779342523,4.8874132254,1.
 0825283183\N,0,2.0628256153,2.9108934776,0.5787558969\H,0,1.1825951923
 ,3.2134952514,0.1785899506\C,0,3.2290263697,3.6849919719,0.1900594528\
 H,0,3.7077654032,4.0988828924,1.0878585249\C,0,2.7172339325,4.86371250
 08,-0.6317331694\C,0,4.3165342426,2.8735162181,-0.5541382827\H,0,5.138
 1235765,3.5572889883,-0.7960936309\H,0,4.6909747768,2.147269955,0.1728
 716879\O,0,1.5589813283,5.0367491526,-0.9433803269\C,0,3.8381566283,2.
 1420638347,-1.8108792934\H,0,3.6206064317,2.8527058637,-2.6181217983\H
 ,0,2.9097338388,1.5983180413,-1.5995374112\C,0,4.9252533646,1.16288621
 91,-2.2825781208\H,0,5.824419596,1.7010708211,-2.5957444768\H,0,5.2407
 422646,0.5015329629,-1.4657650322\N,0,4.5142142982,0.3538000891,-3.442
 6567439\H,0,4.9016067056,0.5954966828,-4.3439783862\N,0,3.123450576,-1
 .1349363357,-4.5696891658\H,0,2.9056849663,-2.1198021168,-4.6272590472
 \H,0,3.372605947,-0.6877663269,-5.4407450123\N,0,3.2507997365,-1.24713
 15011,-2.2738418523\H,0,3.7188054812,-0.9214799174,-1.4359802491\C,0,3
 .6476655918,-0.6739842334,-3.3958000348\O,0,3.7146706287,5.6985400498,
 -0.9787527589\H,0,3.3120816112,6.4338832948,-1.4799531065\\Version=ES6
 4L-G16RevC.01\HF=-1582.161369\RMSD=2.458e-09\Dipole=0.5623076,-2.18224
 51,-4.3176789\Quadrupole=-9.2856464,-1.8512057,11.1368522,15.5906612,-
 38.1073426,-4.6205694\PG=C01 [X(C23H36N7O4)]\\@
 The archive entry for this job was punched.


 IT PROBABLY IS NOT POSSIBLE FOR A SCIENTIST TO INTERROGATE NATURE 
 FROM A WHOLLY DISINTERESTED VIEWPOINT.
 EVEN IF HE HAS NO PARTICULAR AXE TO GRIND, HE IS LIKELY TO HAVE 
 A DISTINCTIVE WAY OF VIEWING NATURE.

                                                   -- JOHN LOSEE
 Job cpu time:       0 days  0 hours  1 minutes 50.8 seconds.
 Elapsed time:       0 days  0 hours  0 minutes 28.4 seconds.
 File lengths (MBytes):  RWF=    296 Int=      0 D2E=      0 Chk=     40 Scr=     16
 Normal termination of Gaussian 16 at Thu May 26 00:32:19 2022.
