 Entering Gaussian System, Link 0=/opt/software/Gaussian/g16-AVX2-C.01/g16/g16
 Input=charge-conf-474.com
 Output=charge-conf-474.log
 Initial command:
 /opt/software/Gaussian/g16-AVX2-C.01/g16/l1.exe "/mnt/gs18/scratch/users/kengmith/Gau-35025.inp" -scrdir="/mnt/gs18/scratch/users/kengmith/"
 Entering Link 1 = /opt/software/Gaussian/g16-AVX2-C.01/g16/l1.exe PID=     35035.
  
 Copyright (c) 1988-2019, Gaussian, Inc.  All Rights Reserved.
  
 This is part of the Gaussian(R) 16 program.  It is based on
 the Gaussian(R) 09 system (copyright 2009, Gaussian, Inc.),
 the Gaussian(R) 03 system (copyright 2003, Gaussian, Inc.),
 the Gaussian(R) 98 system (copyright 1998, Gaussian, Inc.),
 the Gaussian(R) 94 system (copyright 1995, Gaussian, Inc.),
 the Gaussian 92(TM) system (copyright 1992, Gaussian, Inc.),
 the Gaussian 90(TM) system (copyright 1990, Gaussian, Inc.),
 the Gaussian 88(TM) system (copyright 1988, Gaussian, Inc.),
 the Gaussian 86(TM) system (copyright 1986, Carnegie Mellon
 University), and the Gaussian 82(TM) system (copyright 1983,
 Carnegie Mellon University). Gaussian is a federally registered
 trademark of Gaussian, Inc.
  
 This software contains proprietary and confidential information,
 including trade secrets, belonging to Gaussian, Inc.
  
 This software is provided under written license and may be
 used, copied, transmitted, or stored only in accord with that
 written license.
  
 The following legend is applicable only to US Government
 contracts under FAR:
  
                    RESTRICTED RIGHTS LEGEND
  
 Use, reproduction and disclosure by the US Government is
 subject to restrictions as set forth in subparagraphs (a)
 and (c) of the Commercial Computer Software - Restricted
 Rights clause in FAR 52.227-19.
  
 Gaussian, Inc.
 340 Quinnipiac St., Bldg. 40, Wallingford CT 06492
  
  
 ---------------------------------------------------------------
 Warning -- This program may not be used in any manner that
 competes with the business of Gaussian, Inc. or will provide
 assistance to any competitor of Gaussian, Inc.  The licensee
 of this program is prohibited from giving any competitor of
 Gaussian, Inc. access to this program.  By using this program,
 the user acknowledges that Gaussian, Inc. is engaged in the
 business of creating and licensing software in the field of
 computational chemistry and represents and warrants to the
 licensee that it is not a competitor of Gaussian, Inc. and that
 it will not use this program in any manner prohibited above.
 ---------------------------------------------------------------
  

 Cite this work as:
 Gaussian 16, Revision C.01,
 M. J. Frisch, G. W. Trucks, H. B. Schlegel, G. E. Scuseria, 
 M. A. Robb, J. R. Cheeseman, G. Scalmani, V. Barone, 
 G. A. Petersson, H. Nakatsuji, X. Li, M. Caricato, A. V. Marenich, 
 J. Bloino, B. G. Janesko, R. Gomperts, B. Mennucci, H. P. Hratchian, 
 J. V. Ortiz, A. F. Izmaylov, J. L. Sonnenberg, D. Williams-Young, 
 F. Ding, F. Lipparini, F. Egidi, J. Goings, B. Peng, A. Petrone, 
 T. Henderson, D. Ranasinghe, V. G. Zakrzewski, J. Gao, N. Rega, 
 G. Zheng, W. Liang, M. Hada, M. Ehara, K. Toyota, R. Fukuda, 
 J. Hasegawa, M. Ishida, T. Nakajima, Y. Honda, O. Kitao, H. Nakai, 
 T. Vreven, K. Throssell, J. A. Montgomery, Jr., J. E. Peralta, 
 F. Ogliaro, M. J. Bearpark, J. J. Heyd, E. N. Brothers, K. N. Kudin, 
 V. N. Staroverov, T. A. Keith, R. Kobayashi, J. Normand, 
 K. Raghavachari, A. P. Rendell, J. C. Burant, S. S. Iyengar, 
 J. Tomasi, M. Cossi, J. M. Millam, M. Klene, C. Adamo, R. Cammi, 
 J. W. Ochterski, R. L. Martin, K. Morokuma, O. Farkas, 
 J. B. Foresman, and D. J. Fox, Gaussian, Inc., Wallingford CT, 2019.
 
 ******************************************
 Gaussian 16:  ES64L-G16RevC.01  3-Jul-2019
                 4-Jul-2022 
 ******************************************
 %mem=8gb
 %nproc=4
 Will use up to    4 processors via shared memory.
 %chk=conf-474.chk
 ----------------------------------------------------------------------
 # B3LYP/6-31G* empiricaldispersion=gd3bj guess=read geom=check nosymm 
 integral(ultrafinegrid)
 ----------------------------------------------------------------------
 1/29=2,38=1,172=1/1;
 2/12=2,15=1,40=1/2;
 3/5=1,6=6,7=1,11=2,14=-4,25=1,30=1,74=-5,75=-5,116=-2,124=41/1,2,3;
 4/5=1/1;
 5/5=2,38=6/2;
 6/7=2,8=2,9=2,10=2,28=1/1;
 99/5=1,9=1/99;
 ------------------------------------------------------
 Candidate Structure: Conf:474 Charge calc in gas phase
 ------------------------------------------------------
 Structure from the checkpoint file:  "conf-474.chk"
 Charge =  1 Multiplicity = 1
 Redundant internal coordinates found in file.  (old form).
 N,0,-8.0510220205,2.1548561082,3.3582175776
 H,0,-7.4996996294,2.1175938256,4.2403151778
 H,0,-9.0355751143,1.97447624,3.5690837974
 H,0,-7.9245654009,3.1037018363,2.9374348748
 C,0,-7.4858718662,1.2236384208,2.3132449331
 H,0,-7.0322958596,0.3833173445,2.8406258237
 C,0,-6.4277112567,2.1134486192,1.6216752622
 C,0,-8.5755868849,0.778481196,1.3429657857
 H,0,-8.1396199637,0.127335386,0.5803690474
 H,0,-9.3605029639,0.2127984231,1.8560678959
 H,0,-9.0186113104,1.6417922953,0.8363045771
 O,0,-6.659305238,3.3249752548,1.5608665338
 N,0,-5.3458074437,1.4884952621,1.1613820255
 H,0,-5.2538153778,0.4746590587,1.183302505
 C,0,-4.1625614754,2.1571966289,0.6439343784
 H,0,-4.4684196984,3.0568380381,0.1045416658
 C,0,-3.461061306,1.1358072263,-0.2568021549
 C,0,-3.1748787566,2.5338804871,1.7989648956
 H,0,-2.3198983501,3.0610404154,1.3630313937
 H,0,-2.7778465228,1.6004407034,2.215066334
 O,0,-3.675674773,-0.0623063867,-0.1008639013
 C,0,-3.8324857601,3.3447717897,2.869646186
 C,0,-3.9426142032,4.7126699927,2.9183334582
 H,0,-3.5027488807,5.4615172535,2.2745504521
 C,0,-4.6209717022,2.8363811851,3.9636693412
 C,0,-5.2091871717,3.9609571742,4.6193221894
 C,0,-4.9059364233,1.5477452279,4.4449150391
 H,0,-4.4466669812,0.675760864,3.9879643127
 N,0,-4.7689314038,5.085104278,3.9595311883
 H,0,-4.9644161323,6.0370809684,4.230676233
 C,0,-6.3625976126,2.5288719551,6.1457214737
 H,0,-7.0166333436,2.3880095585,7.0009549268
 C,0,-6.0805718533,3.8218282743,5.7033414434
 H,0,-6.5164464097,4.6871710277,6.1939887189
 C,0,-5.7730458819,1.4003098572,5.5264452348
 H,0,-5.979085604,0.4097863958,5.921398105
 N,0,-2.5673426916,1.659081996,-1.1404702153
 H,0,-2.3137428146,2.6329156978,-0.9818340851
 C,0,-1.3864809238,0.8854385371,-1.5317375515
 H,0,-1.5969530446,-0.1644054535,-1.3183508644
 C,0,-0.2242298341,1.4230355628,-0.6820054217
 C,0,-1.1149618525,1.0543295171,-3.034565794
 H,0,-0.224854902,0.4809593341,-3.3103143221
 H,0,-0.9060972741,2.1160235627,-3.2430604202
 O,0,-0.2368237389,2.5972410233,-0.2987811252
 O,0,-2.1789978587,0.5547145252,-3.8110888258
 H,0,-2.9779465964,1.0340999307,-3.5371444025
 N,0,0.7502034415,0.540841465,-0.4115948045
 H,0,0.7384740778,-0.3883498063,-0.81584338
 C,0,1.9511563164,0.8616519544,0.3443343227
 H,0,2.1042042132,1.9434276693,0.2604486944
 C,0,3.0877991573,0.1084795467,-0.3683131443
 C,0,1.8145802398,0.4850350187,1.8523578221
 H,0,1.836335712,-0.6067890501,1.9370724784
 O,0,2.8442055489,-0.8641006295,-1.0918443822
 C,0,2.9917868555,1.0234768926,2.674453105
 H,0,3.105936127,2.110802218,2.5553073862
 H,0,2.8205168581,0.8223399757,3.735640627
 H,0,3.9308354505,0.529633315,2.4173996444
 C,0,0.4910219477,1.0088725717,2.4257925988
 H,0,0.4134727899,2.0982120127,2.3364285871
 H,0,0.4265993369,0.7416961172,3.4855887918
 H,0,-0.3709323979,0.5631598246,1.9196925105
 N,0,4.3409944563,0.5681363388,-0.1573712808
 H,0,4.4603589154,1.3827719642,0.4288338604
 C,0,5.538511256,-0.0306638505,-0.7583978084
 H,0,5.5342635043,0.1532223949,-1.8372617933
 C,0,5.5115865761,-1.5600148324,-0.6146467597
 C,0,6.7880234232,0.5813107361,-0.1242079773
 H,0,7.681302034,0.1482125023,-0.5814447237
 H,0,6.8219686366,0.3785069354,0.9513239913
 H,0,6.8171621506,1.6653508632,-0.2819302028
 O,0,5.7479708503,-2.2722871933,-1.5994862448
 N,0,5.2037727389,-2.0430396119,0.6078846014
 H,0,4.8449096512,-1.4140366575,1.3260557937
 C,0,4.494781609,-3.3177657581,0.6509237924
 H,0,4.1012934145,-3.4177532342,-0.3437019977
 C,0,3.2410037607,-3.180346068,1.549387339
 C,0,5.388947854,-4.5374759966,0.9321792062
 H,0,6.3280079365,-4.4060029282,0.3791103519
 H,0,5.6506630257,-4.5637037413,1.996104165
 O,0,2.3399708989,-4.0532716203,1.3454300925
 C,0,4.7086602049,-5.8597351137,0.5364169163
 H,0,5.2548989125,-6.7012256487,0.9787840965
 H,0,3.706691772,-5.8701280162,0.9707923188
 C,0,4.6379041854,-6.1436364342,-0.9829802119
 H,0,3.8525125248,-6.8748203764,-1.1926852264
 H,0,5.5845506448,-6.5691027812,-1.3276059247
 N,0,4.4093811709,-4.9865057418,-1.8649353586
 H,0,5.219787919,-4.3908677114,-2.0294586715
 N,0,2.1733815452,-4.6775698644,-1.2605814616
 H,0,1.3240825507,-4.2010269957,-1.5428816964
 H,0,2.2838784206,-4.6648811249,-0.1955272389
 N,0,3.1676537662,-3.306682305,-2.8763496235
 H,0,2.7145216129,-2.475630051,-2.5006135207
 H,0,4.0445315658,-3.0638220699,-3.3251286579
 C,0,3.2479311182,-4.3323583414,-1.9861194944
 O,0,3.2145138566,-2.2116596908,2.336892119
 Recover connectivity data from disk.
                           ----------------------------
                           !    Current Parameters    !
                           ! (Angstroms and Degrees)  !
 --------------------------                            --------------------------
 ! Name  Definition              Value                                          !
 --------------------------------------------------------------------------------
 ! R1    R(1,2)                  1.0409                                         !
 ! R2    R(1,3)                  1.0229                                         !
 ! R3    R(1,4)                  1.0456                                         !
 ! R4    R(1,5)                  1.5095                                         !
 ! R5    R(5,6)                  1.0909                                         !
 ! R6    R(5,7)                  1.5459                                         !
 ! R7    R(5,8)                  1.5255                                         !
 ! R8    R(7,12)                 1.235                                          !
 ! R9    R(7,13)                 1.3315                                         !
 ! R10   R(8,9)                  1.0934                                         !
 ! R11   R(8,10)                 1.0952                                         !
 ! R12   R(8,11)                 1.0947                                         !
 ! R13   R(13,14)                1.0182                                         !
 ! R14   R(13,15)                1.4543                                         !
 ! R15   R(15,16)                1.0926                                         !
 ! R16   R(15,17)                1.5319                                         !
 ! R17   R(15,18)                1.5657                                         !
 ! R18   R(17,21)                1.2271                                         !
 ! R19   R(17,37)                1.3614                                         !
 ! R20   R(18,19)                1.095                                          !
 ! R21   R(18,20)                1.0964                                         !
 ! R22   R(18,22)                1.4954                                         !
 ! R23   R(22,23)                1.3732                                         !
 ! R24   R(22,25)                1.4412                                         !
 ! R25   R(23,24)                1.0811                                         !
 ! R26   R(23,29)                1.3804                                         !
 ! R27   R(25,26)                1.4285                                         !
 ! R28   R(25,27)                1.4048                                         !
 ! R29   R(26,29)                1.3758                                         !
 ! R30   R(26,33)                1.3978                                         !
 ! R31   R(27,28)                1.0863                                         !
 ! R32   R(27,35)                1.394                                          !
 ! R33   R(29,30)                1.009                                          !
 ! R34   R(31,32)                1.0858                                         !
 ! R35   R(31,33)                1.3953                                         !
 ! R36   R(31,35)                1.4159                                         !
 ! R37   R(33,34)                1.0861                                         !
 ! R38   R(35,36)                1.0861                                         !
 ! R39   R(37,38)                1.0187                                         !
 ! R40   R(37,39)                1.4649                                         !
 ! R41   R(39,40)                1.0918                                         !
 ! R42   R(39,41)                1.5368                                         !
 ! R43   R(39,42)                1.5365                                         !
 ! R44   R(41,45)                1.2352                                         !
 ! R45   R(41,48)                1.342                                          !
 ! R46   R(42,43)                1.0941                                         !
 ! R47   R(42,44)                1.1019                                         !
 ! R48   R(42,46)                1.4088                                         !
 ! R49   R(46,47)                0.9712                                         !
 ! R50   R(48,49)                1.0134                                         !
 ! R51   R(48,50)                1.4549                                         !
 ! R52   R(50,51)                1.0958                                         !
 ! R53   R(50,52)                1.5385                                         !
 ! R54   R(50,53)                1.5603                                         !
 ! R55   R(52,55)                1.2364                                         !
 ! R56   R(52,64)                1.3514                                         !
 ! R57   R(53,54)                1.0953                                         !
 ! R58   R(53,56)                1.5335                                         !
 ! R59   R(53,60)                1.5346                                         !
 ! R60   R(56,57)                1.0998                                         !
 ! R61   R(56,58)                1.0936                                         !
 ! R62   R(56,59)                1.0917                                         !
 ! R63   R(60,61)                1.0957                                         !
 ! R64   R(60,62)                1.0949                                         !
 ! R65   R(60,63)                1.0944                                         !
 ! R66   R(64,65)                1.0107                                         !
 ! R67   R(64,66)                1.4676                                         !
 ! R68   R(66,67)                1.0944                                         !
 ! R69   R(66,68)                1.5363                                         !
 ! R70   R(66,69)                1.529                                          !
 ! R71   R(68,73)                1.2382                                         !
 ! R72   R(68,74)                1.3501                                         !
 ! R73   R(69,70)                1.093                                          !
 ! R74   R(69,71)                1.095                                          !
 ! R75   R(69,72)                1.0958                                         !
 ! R76   R(74,75)                1.0199                                         !
 ! R77   R(74,76)                1.4593                                         !
 ! R78   R(76,77)                1.0743                                         !
 ! R79   R(76,78)                1.5486                                         !
 ! R80   R(76,79)                1.5383                                         !
 ! R81   R(78,82)                1.271                                          !
 ! R82   R(78,98)                1.2487                                         !
 ! R83   R(79,80)                1.0977                                         !
 ! R84   R(79,81)                1.096                                          !
 ! R85   R(79,83)                1.5388                                         !
 ! R86   R(83,84)                1.0964                                         !
 ! R87   R(83,85)                1.0921                                         !
 ! R88   R(83,86)                1.5473                                         !
 ! R89   R(86,87)                1.0934                                         !
 ! R90   R(86,88)                1.0936                                         !
 ! R91   R(86,89)                1.4728                                         !
 ! R92   R(89,90)                1.0191                                         !
 ! R93   R(89,97)                1.3385                                         !
 ! R94   R(91,92)                1.014                                          !
 ! R95   R(91,93)                1.0708                                         !
 ! R96   R(91,97)                1.3417                                         !
 ! R97   R(94,95)                1.0184                                         !
 ! R98   R(94,96)                1.0145                                         !
 ! R99   R(94,97)                1.3605                                         !
 ! A1    A(2,1,3)              109.1957                                         !
 ! A2    A(2,1,4)              108.0265                                         !
 ! A3    A(2,1,5)              111.486                                          !
 ! A4    A(3,1,4)              111.0618                                         !
 ! A5    A(3,1,5)              113.2212                                         !
 ! A6    A(4,1,5)              103.6473                                         !
 ! A7    A(1,5,6)              107.2304                                         !
 ! A8    A(1,5,7)              102.174                                          !
 ! A9    A(1,5,8)              110.6644                                         !
 ! A10   A(6,5,7)              112.0283                                         !
 ! A11   A(6,5,8)              112.3166                                         !
 ! A12   A(7,5,8)              111.8634                                         !
 ! A13   A(5,7,12)             117.2801                                         !
 ! A14   A(5,7,13)             116.1467                                         !
 ! A15   A(12,7,13)            126.5696                                         !
 ! A16   A(5,8,9)              109.4241                                         !
 ! A17   A(5,8,10)             111.3898                                         !
 ! A18   A(5,8,11)             110.6928                                         !
 ! A19   A(9,8,10)             107.7537                                         !
 ! A20   A(9,8,11)             107.9512                                         !
 ! A21   A(10,8,11)            109.5211                                         !
 ! A22   A(7,13,14)            122.228                                          !
 ! A23   A(7,13,15)            124.6301                                         !
 ! A24   A(14,13,15)           113.0775                                         !
 ! A25   A(13,15,16)           109.0557                                         !
 ! A26   A(13,15,17)           105.9748                                         !
 ! A27   A(13,15,18)           111.1854                                         !
 ! A28   A(16,15,17)           112.7619                                         !
 ! A29   A(16,15,18)           110.0395                                         !
 ! A30   A(17,15,18)           107.7761                                         !
 ! A31   A(15,17,21)           119.7476                                         !
 ! A32   A(15,17,37)           115.214                                          !
 ! A33   A(21,17,37)           124.9295                                         !
 ! A34   A(15,18,19)           108.3421                                         !
 ! A35   A(15,18,20)           107.6726                                         !
 ! A36   A(15,18,22)           112.4093                                         !
 ! A37   A(19,18,20)           106.1543                                         !
 ! A38   A(19,18,22)           111.5524                                         !
 ! A39   A(20,18,22)           110.4365                                         !
 ! A40   A(18,22,23)           126.9275                                         !
 ! A41   A(18,22,25)           126.3557                                         !
 ! A42   A(23,22,25)           106.2963                                         !
 ! A43   A(22,23,24)           129.5148                                         !
 ! A44   A(22,23,29)           110.0905                                         !
 ! A45   A(24,23,29)           120.3867                                         !
 ! A46   A(22,25,26)           107.2173                                         !
 ! A47   A(22,25,27)           133.9976                                         !
 ! A48   A(26,25,27)           118.7769                                         !
 ! A49   A(25,26,29)           106.9399                                         !
 ! A50   A(25,26,33)           122.2969                                         !
 ! A51   A(29,26,33)           130.7483                                         !
 ! A52   A(25,27,28)           120.429                                          !
 ! A53   A(25,27,35)           119.2736                                         !
 ! A54   A(28,27,35)           120.2931                                         !
 ! A55   A(23,29,26)           109.4399                                         !
 ! A56   A(23,29,30)           124.9759                                         !
 ! A57   A(26,29,30)           125.4547                                         !
 ! A58   A(32,31,33)           119.45                                           !
 ! A59   A(32,31,35)           119.4651                                         !
 ! A60   A(33,31,35)           121.0483                                         !
 ! A61   A(26,33,31)           117.6528                                         !
 ! A62   A(26,33,34)           121.416                                          !
 ! A63   A(31,33,34)           120.9279                                         !
 ! A64   A(27,35,31)           120.9325                                         !
 ! A65   A(27,35,36)           119.7745                                         !
 ! A66   A(31,35,36)           119.2682                                         !
 ! A67   A(17,37,38)           115.4527                                         !
 ! A68   A(17,37,39)           119.9699                                         !
 ! A69   A(38,37,39)           110.2279                                         !
 ! A70   A(37,39,40)           107.4709                                         !
 ! A71   A(37,39,41)           106.093                                          !
 ! A72   A(37,39,42)           110.2207                                         !
 ! A73   A(40,39,41)           111.9682                                         !
 ! A74   A(40,39,42)           109.3254                                         !
 ! A75   A(41,39,42)           111.6359                                         !
 ! A76   A(39,41,45)           119.7591                                         !
 ! A77   A(39,41,48)           115.5048                                         !
 ! A78   A(45,41,48)           124.7361                                         !
 ! A79   A(39,42,43)           109.4311                                         !
 ! A80   A(39,42,44)           108.9331                                         !
 ! A81   A(39,42,46)           111.5103                                         !
 ! A82   A(43,42,44)           107.6392                                         !
 ! A83   A(43,42,46)           106.8389                                         !
 ! A84   A(44,42,46)           112.3675                                         !
 ! A85   A(42,46,47)           106.906                                          !
 ! A86   A(41,48,49)           120.9294                                         !
 ! A87   A(41,48,50)           123.9955                                         !
 ! A88   A(49,48,50)           114.7721                                         !
 ! A89   A(48,50,51)           107.0504                                         !
 ! A90   A(48,50,52)           105.1428                                         !
 ! A91   A(48,50,53)           112.1289                                         !
 ! A92   A(51,50,52)           110.1599                                         !
 ! A93   A(51,50,53)           108.9354                                         !
 ! A94   A(52,50,53)           113.2146                                         !
 ! A95   A(50,52,55)           120.7023                                         !
 ! A96   A(50,52,64)           116.5057                                         !
 ! A97   A(55,52,64)           122.792                                          !
 ! A98   A(50,53,54)           108.2769                                         !
 ! A99   A(50,53,56)           111.4802                                         !
 ! A100  A(50,53,60)           110.747                                          !
 ! A101  A(54,53,56)           107.0551                                         !
 ! A102  A(54,53,60)           109.1771                                         !
 ! A103  A(56,53,60)           109.9935                                         !
 ! A104  A(53,56,57)           111.6385                                         !
 ! A105  A(53,56,58)           109.5975                                         !
 ! A106  A(53,56,59)           112.0408                                         !
 ! A107  A(57,56,58)           107.6516                                         !
 ! A108  A(57,56,59)           109.418                                          !
 ! A109  A(58,56,59)           106.2606                                         !
 ! A110  A(53,60,61)           111.7105                                         !
 ! A111  A(53,60,62)           109.2173                                         !
 ! A112  A(53,60,63)           111.5589                                         !
 ! A113  A(61,60,62)           108.5047                                         !
 ! A114  A(61,60,63)           108.145                                          !
 ! A115  A(62,60,63)           107.5719                                         !
 ! A116  A(52,64,65)           118.3075                                         !
 ! A117  A(52,64,66)           123.64                                           !
 ! A118  A(65,64,66)           118.0359                                         !
 ! A119  A(64,66,67)           109.3893                                         !
 ! A120  A(64,66,68)           110.7041                                         !
 ! A121  A(64,66,69)           109.4898                                         !
 ! A122  A(67,66,68)           105.036                                          !
 ! A123  A(67,66,69)           110.1687                                         !
 ! A124  A(68,66,69)           111.9581                                         !
 ! A125  A(66,68,73)           119.6613                                         !
 ! A126  A(66,68,74)           116.4158                                         !
 ! A127  A(73,68,74)           123.9154                                         !
 ! A128  A(66,69,70)           109.6194                                         !
 ! A129  A(66,69,71)           111.0136                                         !
 ! A130  A(66,69,72)           110.9747                                         !
 ! A131  A(70,69,71)           108.1904                                         !
 ! A132  A(70,69,72)           108.0621                                         !
 ! A133  A(71,69,72)           108.8902                                         !
 ! A134  A(68,74,75)           119.8159                                         !
 ! A135  A(68,74,76)           116.745                                          !
 ! A136  A(75,74,76)           110.305                                          !
 ! A137  A(74,76,77)           103.4121                                         !
 ! A138  A(74,76,78)           109.4485                                         !
 ! A139  A(74,76,79)           114.5577                                         !
 ! A140  A(77,76,78)           104.4107                                         !
 ! A141  A(77,76,79)           107.962                                          !
 ! A142  A(78,76,79)           115.779                                          !
 ! A143  A(76,78,82)           114.829                                          !
 ! A144  A(76,78,98)           116.867                                          !
 ! A145  A(82,78,98)           128.24                                           !
 ! A146  A(76,79,80)           108.0696                                         !
 ! A147  A(76,79,81)           109.5894                                         !
 ! A148  A(76,79,83)           112.1687                                         !
 ! A149  A(80,79,81)           106.7196                                         !
 ! A150  A(80,79,83)           110.5811                                         !
 ! A151  A(81,79,83)           109.5536                                         !
 ! A152  A(79,83,84)           109.6014                                         !
 ! A153  A(79,83,85)           108.1489                                         !
 ! A154  A(79,83,86)           115.4953                                         !
 ! A155  A(84,83,85)           106.8158                                         !
 ! A156  A(84,83,86)           106.1495                                         !
 ! A157  A(85,83,86)           110.2954                                         !
 ! A158  A(83,86,87)           110.1139                                         !
 ! A159  A(83,86,88)           109.953                                          !
 ! A160  A(83,86,89)           116.8065                                         !
 ! A161  A(87,86,88)           107.5289                                         !
 ! A162  A(87,86,89)           107.4041                                         !
 ! A163  A(88,86,89)           104.5532                                         !
 ! A164  A(86,89,90)           115.6258                                         !
 ! A165  A(86,89,97)           124.9487                                         !
 ! A166  A(90,89,97)           112.9399                                         !
 ! A167  A(92,91,93)           110.9634                                         !
 ! A168  A(92,91,97)           113.5372                                         !
 ! A169  A(93,91,97)           116.8809                                         !
 ! A170  A(95,94,96)           110.6358                                         !
 ! A171  A(95,94,97)           113.5807                                         !
 ! A172  A(96,94,97)           114.7659                                         !
 ! A173  A(89,97,91)           121.3483                                         !
 ! A174  A(89,97,94)           118.6127                                         !
 ! A175  A(91,97,94)           120.0362                                         !
 ! D1    D(2,1,5,6)             30.4705                                         !
 ! D2    D(2,1,5,7)            -87.4748                                         !
 ! D3    D(2,1,5,8)            153.2817                                         !
 ! D4    D(3,1,5,6)            -93.129                                          !
 ! D5    D(3,1,5,7)            148.9258                                         !
 ! D6    D(3,1,5,8)             29.6823                                         !
 ! D7    D(4,1,5,6)            146.4343                                         !
 ! D8    D(4,1,5,7)             28.4891                                         !
 ! D9    D(4,1,5,8)            -90.7545                                         !
 ! D10   D(1,5,7,12)           -31.8489                                         !
 ! D11   D(1,5,7,13)           147.5102                                         !
 ! D12   D(6,5,7,12)          -146.3165                                         !
 ! D13   D(6,5,7,13)            33.0426                                         !
 ! D14   D(8,5,7,12)            86.5465                                         !
 ! D15   D(8,5,7,13)           -94.0944                                         !
 ! D16   D(1,5,8,9)            178.4967                                         !
 ! D17   D(1,5,8,10)           -62.4666                                         !
 ! D18   D(1,5,8,11)            59.6451                                         !
 ! D19   D(6,5,8,9)            -61.6999                                         !
 ! D20   D(6,5,8,10)            57.3368                                         !
 ! D21   D(6,5,8,11)           179.4486                                         !
 ! D22   D(7,5,8,9)             65.2815                                         !
 ! D23   D(7,5,8,10)          -175.6818                                         !
 ! D24   D(7,5,8,11)           -53.57                                           !
 ! D25   D(5,7,13,14)            5.4704                                         !
 ! D26   D(5,7,13,15)         -171.4082                                         !
 ! D27   D(12,7,13,14)        -175.2389                                         !
 ! D28   D(12,7,13,15)           7.8826                                         !
 ! D29   D(7,13,15,16)         -36.0538                                         !
 ! D30   D(7,13,15,17)        -157.699                                          !
 ! D31   D(7,13,15,18)          85.459                                          !
 ! D32   D(14,13,15,16)        146.8162                                         !
 ! D33   D(14,13,15,17)         25.171                                          !
 ! D34   D(14,13,15,18)        -91.671                                          !
 ! D35   D(13,15,17,21)        -22.1664                                         !
 ! D36   D(13,15,17,37)        161.4419                                         !
 ! D37   D(16,15,17,21)       -141.4016                                         !
 ! D38   D(16,15,17,37)         42.2067                                         !
 ! D39   D(18,15,17,21)         96.9464                                         !
 ! D40   D(18,15,17,37)        -79.4454                                         !
 ! D41   D(13,15,18,19)       -178.2016                                         !
 ! D42   D(13,15,18,20)         67.3882                                         !
 ! D43   D(13,15,18,22)        -54.4675                                         !
 ! D44   D(16,15,18,19)        -57.265                                          !
 ! D45   D(16,15,18,20)       -171.6752                                         !
 ! D46   D(16,15,18,22)         66.469                                          !
 ! D47   D(17,15,18,19)         66.0626                                         !
 ! D48   D(17,15,18,20)        -48.3476                                         !
 ! D49   D(17,15,18,22)       -170.2033                                         !
 ! D50   D(15,17,37,38)         12.3492                                         !
 ! D51   D(15,17,37,39)        148.1147                                         !
 ! D52   D(21,17,37,38)       -163.8293                                         !
 ! D53   D(21,17,37,39)        -28.0639                                         !
 ! D54   D(15,18,22,23)        -88.9285                                         !
 ! D55   D(15,18,22,25)         82.5929                                         !
 ! D56   D(19,18,22,23)         32.9995                                         !
 ! D57   D(19,18,22,25)       -155.4791                                         !
 ! D58   D(20,18,22,23)        150.8008                                         !
 ! D59   D(20,18,22,25)        -37.6778                                         !
 ! D60   D(18,22,23,24)         -7.1143                                         !
 ! D61   D(18,22,23,29)        171.8425                                         !
 ! D62   D(25,22,23,24)        179.9921                                         !
 ! D63   D(25,22,23,29)         -1.0511                                         !
 ! D64   D(18,22,25,26)       -171.6501                                         !
 ! D65   D(18,22,25,27)          7.2537                                         !
 ! D66   D(23,22,25,26)          1.2963                                         !
 ! D67   D(23,22,25,27)       -179.7999                                         !
 ! D68   D(22,23,29,26)          0.3965                                         !
 ! D69   D(22,23,29,30)        176.4418                                         !
 ! D70   D(24,23,29,26)        179.4636                                         !
 ! D71   D(24,23,29,30)         -4.4912                                         !
 ! D72   D(22,25,26,29)         -1.0695                                         !
 ! D73   D(22,25,26,33)        177.6627                                         !
 ! D74   D(27,25,26,29)        179.8301                                         !
 ! D75   D(27,25,26,33)         -1.4377                                         !
 ! D76   D(22,25,27,28)          3.2772                                         !
 ! D77   D(22,25,27,35)       -177.4739                                         !
 ! D78   D(26,25,27,28)       -177.9174                                         !
 ! D79   D(26,25,27,35)          1.3315                                         !
 ! D80   D(25,26,29,23)          0.4417                                         !
 ! D81   D(25,26,29,30)       -175.5802                                         !
 ! D82   D(33,26,29,23)       -178.1437                                         !
 ! D83   D(33,26,29,30)          5.8344                                         !
 ! D84   D(25,26,33,31)          0.3966                                         !
 ! D85   D(25,26,33,34)        179.7355                                         !
 ! D86   D(29,26,33,31)        178.7956                                         !
 ! D87   D(29,26,33,34)         -1.8654                                         !
 ! D88   D(25,27,35,31)         -0.2554                                         !
 ! D89   D(25,27,35,36)       -178.4299                                         !
 ! D90   D(28,27,35,31)        178.9946                                         !
 ! D91   D(28,27,35,36)          0.82                                           !
 ! D92   D(32,31,33,26)        178.515                                          !
 ! D93   D(32,31,33,34)         -0.8273                                         !
 ! D94   D(35,31,33,26)          0.7271                                         !
 ! D95   D(35,31,33,34)       -178.6153                                         !
 ! D96   D(32,31,35,27)       -178.6014                                         !
 ! D97   D(32,31,35,36)         -0.4177                                         !
 ! D98   D(33,31,35,27)         -0.8137                                         !
 ! D99   D(33,31,35,36)        177.3699                                         !
 ! D100  D(17,37,39,40)         20.6992                                         !
 ! D101  D(17,37,39,41)        -99.2335                                         !
 ! D102  D(17,37,39,42)        139.7546                                         !
 ! D103  D(38,37,39,40)        158.5324                                         !
 ! D104  D(38,37,39,41)         38.5997                                         !
 ! D105  D(38,37,39,42)        -82.4122                                         !
 ! D106  D(37,39,41,45)        -28.8343                                         !
 ! D107  D(37,39,41,48)        151.1157                                         !
 ! D108  D(40,39,41,45)       -145.7903                                         !
 ! D109  D(40,39,41,48)         34.1597                                         !
 ! D110  D(42,39,41,45)         91.2607                                         !
 ! D111  D(42,39,41,48)        -88.7892                                         !
 ! D112  D(37,39,42,43)        179.3643                                         !
 ! D113  D(37,39,42,44)         61.9314                                         !
 ! D114  D(37,39,42,46)        -62.653                                          !
 ! D115  D(40,39,42,43)        -62.7171                                         !
 ! D116  D(40,39,42,44)        179.85                                           !
 ! D117  D(40,39,42,46)         55.2655                                         !
 ! D118  D(41,39,42,43)         61.7255                                         !
 ! D119  D(41,39,42,44)        -55.7074                                         !
 ! D120  D(41,39,42,46)        179.7081                                         !
 ! D121  D(39,41,48,49)          4.907                                          !
 ! D122  D(39,41,48,50)        178.2495                                         !
 ! D123  D(45,41,48,49)       -175.1458                                         !
 ! D124  D(45,41,48,50)         -1.8033                                         !
 ! D125  D(39,42,46,47)         57.8525                                         !
 ! D126  D(43,42,46,47)        177.3825                                         !
 ! D127  D(44,42,46,47)        -64.7843                                         !
 ! D128  D(41,48,50,51)        -23.4923                                         !
 ! D129  D(41,48,50,52)       -140.6506                                         !
 ! D130  D(41,48,50,53)         95.9223                                         !
 ! D131  D(49,48,50,51)        150.2196                                         !
 ! D132  D(49,48,50,52)         33.0613                                         !
 ! D133  D(49,48,50,53)        -90.3658                                         !
 ! D134  D(48,50,52,55)        -21.2563                                         !
 ! D135  D(48,50,52,64)        158.7366                                         !
 ! D136  D(51,50,52,55)       -136.2766                                         !
 ! D137  D(51,50,52,64)         43.7163                                         !
 ! D138  D(53,50,52,55)        101.4744                                         !
 ! D139  D(53,50,52,64)        -78.5327                                         !
 ! D140  D(48,50,53,54)         71.3451                                         !
 ! D141  D(48,50,53,56)       -171.1455                                         !
 ! D142  D(48,50,53,60)        -48.3271                                         !
 ! D143  D(51,50,53,54)       -170.3512                                         !
 ! D144  D(51,50,53,56)        -52.8418                                         !
 ! D145  D(51,50,53,60)         69.9765                                         !
 ! D146  D(52,50,53,54)        -47.4221                                         !
 ! D147  D(52,50,53,56)         70.0873                                         !
 ! D148  D(52,50,53,60)       -167.0944                                         !
 ! D149  D(50,52,64,65)         -1.4934                                         !
 ! D150  D(50,52,64,66)       -179.9764                                         !
 ! D151  D(55,52,64,65)        178.4993                                         !
 ! D152  D(55,52,64,66)          0.0164                                         !
 ! D153  D(50,53,56,57)         55.698                                          !
 ! D154  D(50,53,56,58)        174.8755                                         !
 ! D155  D(50,53,56,59)        -67.4272                                         !
 ! D156  D(54,53,56,57)        173.9431                                         !
 ! D157  D(54,53,56,58)        -66.8795                                         !
 ! D158  D(54,53,56,59)         50.8179                                         !
 ! D159  D(60,53,56,57)        -67.5506                                         !
 ! D160  D(60,53,56,58)         51.6268                                         !
 ! D161  D(60,53,56,59)        169.3242                                         !
 ! D162  D(50,53,60,61)        -59.2957                                         !
 ! D163  D(50,53,60,62)       -179.333                                          !
 ! D164  D(50,53,60,63)         61.8843                                         !
 ! D165  D(54,53,60,61)       -178.4264                                         !
 ! D166  D(54,53,60,62)         61.5363                                         !
 ! D167  D(54,53,60,63)        -57.2465                                         !
 ! D168  D(56,53,60,61)         64.3813                                         !
 ! D169  D(56,53,60,62)        -55.656                                          !
 ! D170  D(56,53,60,63)       -174.4387                                         !
 ! D171  D(52,64,66,67)         68.7811                                         !
 ! D172  D(52,64,66,68)        -46.498                                          !
 ! D173  D(52,64,66,69)       -170.4022                                         !
 ! D174  D(65,64,66,67)       -109.7056                                         !
 ! D175  D(65,64,66,68)        135.0152                                         !
 ! D176  D(65,64,66,69)         11.1111                                         !
 ! D177  D(64,66,68,73)        131.7506                                         !
 ! D178  D(64,66,68,74)        -47.2938                                         !
 ! D179  D(67,66,68,73)         13.7804                                         !
 ! D180  D(67,66,68,74)       -165.264                                          !
 ! D181  D(69,66,68,73)       -105.7731                                         !
 ! D182  D(69,66,68,74)         75.1825                                         !
 ! D183  D(64,66,69,70)       -179.1137                                         !
 ! D184  D(64,66,69,71)         61.417                                          !
 ! D185  D(64,66,69,72)        -59.8277                                         !
 ! D186  D(67,66,69,70)        -58.7713                                         !
 ! D187  D(67,66,69,71)       -178.2407                                         !
 ! D188  D(67,66,69,72)         60.5146                                         !
 ! D189  D(68,66,69,70)         57.7211                                         !
 ! D190  D(68,66,69,71)        -61.7483                                         !
 ! D191  D(68,66,69,72)        177.007                                          !
 ! D192  D(66,68,74,75)         10.8768                                         !
 ! D193  D(66,68,74,76)        148.325                                          !
 ! D194  D(73,68,74,75)       -168.1226                                         !
 ! D195  D(73,68,74,76)        -30.6744                                         !
 ! D196  D(68,74,76,77)        -18.0398                                         !
 ! D197  D(68,74,76,78)       -128.8659                                         !
 ! D198  D(68,74,76,79)         99.1876                                         !
 ! D199  D(75,74,76,77)        123.2328                                         !
 ! D200  D(75,74,76,78)         12.4068                                         !
 ! D201  D(75,74,76,79)       -119.5397                                         !
 ! D202  D(74,76,78,82)        159.1669                                         !
 ! D203  D(74,76,78,98)        -18.1674                                         !
 ! D204  D(77,76,78,82)         49.0026                                         !
 ! D205  D(77,76,78,98)       -128.3317                                         !
 ! D206  D(79,76,78,82)        -69.5324                                         !
 ! D207  D(79,76,78,98)        113.1333                                         !
 ! D208  D(74,76,79,80)        -39.8311                                         !
 ! D209  D(74,76,79,81)         76.1015                                         !
 ! D210  D(74,76,79,83)       -161.9869                                         !
 ! D211  D(77,76,79,80)         74.7652                                         !
 ! D212  D(77,76,79,81)       -169.3022                                         !
 ! D213  D(77,76,79,83)        -47.3906                                         !
 ! D214  D(78,76,79,80)       -168.6764                                         !
 ! D215  D(78,76,79,81)        -52.7439                                         !
 ! D216  D(78,76,79,83)         69.1677                                         !
 ! D217  D(76,79,83,84)       -165.6796                                         !
 ! D218  D(76,79,83,85)        -49.5821                                         !
 ! D219  D(76,79,83,86)         74.5233                                         !
 ! D220  D(80,79,83,84)         73.6056                                         !
 ! D221  D(80,79,83,85)       -170.2968                                         !
 ! D222  D(80,79,83,86)        -46.1914                                         !
 ! D223  D(81,79,83,84)        -43.7476                                         !
 ! D224  D(81,79,83,85)         72.35                                           !
 ! D225  D(81,79,83,86)       -163.5446                                         !
 ! D226  D(79,83,86,87)       -159.4303                                         !
 ! D227  D(79,83,86,88)         82.2634                                         !
 ! D228  D(79,83,86,89)        -36.6149                                         !
 ! D229  D(84,83,86,87)         78.8998                                         !
 ! D230  D(84,83,86,88)        -39.4066                                         !
 ! D231  D(84,83,86,89)       -158.2848                                         !
 ! D232  D(85,83,86,87)        -36.454                                          !
 ! D233  D(85,83,86,88)       -154.7603                                         !
 ! D234  D(85,83,86,89)         86.3614                                         !
 ! D235  D(83,86,89,90)         77.0662                                         !
 ! D236  D(83,86,89,97)        -72.5463                                         !
 ! D237  D(87,86,89,90)       -158.7282                                         !
 ! D238  D(87,86,89,97)         51.6592                                         !
 ! D239  D(88,86,89,90)        -44.6818                                         !
 ! D240  D(88,86,89,97)        165.7056                                         !
 ! D241  D(86,89,97,91)          1.65                                           !
 ! D242  D(86,89,97,94)       -177.7383                                         !
 ! D243  D(90,89,97,91)       -148.6633                                         !
 ! D244  D(90,89,97,94)         31.9484                                         !
 ! D245  D(92,91,97,89)       -171.3045                                         !
 ! D246  D(92,91,97,94)          8.0752                                         !
 ! D247  D(93,91,97,89)         57.524                                          !
 ! D248  D(93,91,97,94)       -123.0963                                         !
 ! D249  D(95,94,97,89)       -134.101                                          !
 ! D250  D(95,94,97,91)         46.5024                                         !
 ! D251  D(96,94,97,89)         -5.4293                                         !
 ! D252  D(96,94,97,91)        175.1741                                         !
 --------------------------------------------------------------------------------
 Symmetry turned off by external request.
 Stoichiometry    C31H49N10O8(1+)
 Framework group  C1[X(C31H49N10O8)]
 Deg. of freedom   288
 Full point group                 C1      NOp   1
                          Input orientation:                          
 ---------------------------------------------------------------------
 Center     Atomic      Atomic             Coordinates (Angstroms)
 Number     Number       Type             X           Y           Z
 ---------------------------------------------------------------------
      1          7           0       -8.051022    2.154856    3.358218
      2          1           0       -7.499700    2.117594    4.240315
      3          1           0       -9.035575    1.974476    3.569084
      4          1           0       -7.924565    3.103702    2.937435
      5          6           0       -7.485872    1.223638    2.313245
      6          1           0       -7.032296    0.383317    2.840626
      7          6           0       -6.427711    2.113449    1.621675
      8          6           0       -8.575587    0.778481    1.342966
      9          1           0       -8.139620    0.127335    0.580369
     10          1           0       -9.360503    0.212798    1.856068
     11          1           0       -9.018611    1.641792    0.836305
     12          8           0       -6.659305    3.324975    1.560867
     13          7           0       -5.345807    1.488495    1.161382
     14          1           0       -5.253815    0.474659    1.183303
     15          6           0       -4.162561    2.157197    0.643934
     16          1           0       -4.468420    3.056838    0.104542
     17          6           0       -3.461061    1.135807   -0.256802
     18          6           0       -3.174879    2.533880    1.798965
     19          1           0       -2.319898    3.061040    1.363031
     20          1           0       -2.777847    1.600441    2.215066
     21          8           0       -3.675675   -0.062306   -0.100864
     22          6           0       -3.832486    3.344772    2.869646
     23          6           0       -3.942614    4.712670    2.918333
     24          1           0       -3.502749    5.461517    2.274550
     25          6           0       -4.620972    2.836381    3.963669
     26          6           0       -5.209187    3.960957    4.619322
     27          6           0       -4.905936    1.547745    4.444915
     28          1           0       -4.446667    0.675761    3.987964
     29          7           0       -4.768931    5.085104    3.959531
     30          1           0       -4.964416    6.037081    4.230676
     31          6           0       -6.362598    2.528872    6.145721
     32          1           0       -7.016633    2.388010    7.000955
     33          6           0       -6.080572    3.821828    5.703341
     34          1           0       -6.516446    4.687171    6.193989
     35          6           0       -5.773046    1.400310    5.526445
     36          1           0       -5.979086    0.409786    5.921398
     37          7           0       -2.567343    1.659082   -1.140470
     38          1           0       -2.313743    2.632916   -0.981834
     39          6           0       -1.386481    0.885439   -1.531738
     40          1           0       -1.596953   -0.164405   -1.318351
     41          6           0       -0.224230    1.423036   -0.682005
     42          6           0       -1.114962    1.054330   -3.034566
     43          1           0       -0.224855    0.480959   -3.310314
     44          1           0       -0.906097    2.116024   -3.243060
     45          8           0       -0.236824    2.597241   -0.298781
     46          8           0       -2.178998    0.554715   -3.811089
     47          1           0       -2.977947    1.034100   -3.537144
     48          7           0        0.750203    0.540841   -0.411595
     49          1           0        0.738474   -0.388350   -0.815843
     50          6           0        1.951156    0.861652    0.344334
     51          1           0        2.104204    1.943428    0.260449
     52          6           0        3.087799    0.108480   -0.368313
     53          6           0        1.814580    0.485035    1.852358
     54          1           0        1.836336   -0.606789    1.937072
     55          8           0        2.844206   -0.864101   -1.091844
     56          6           0        2.991787    1.023477    2.674453
     57          1           0        3.105936    2.110802    2.555307
     58          1           0        2.820517    0.822340    3.735641
     59          1           0        3.930835    0.529633    2.417400
     60          6           0        0.491022    1.008873    2.425793
     61          1           0        0.413473    2.098212    2.336429
     62          1           0        0.426599    0.741696    3.485589
     63          1           0       -0.370932    0.563160    1.919693
     64          7           0        4.340994    0.568136   -0.157371
     65          1           0        4.460359    1.382772    0.428834
     66          6           0        5.538511   -0.030664   -0.758398
     67          1           0        5.534264    0.153222   -1.837262
     68          6           0        5.511587   -1.560015   -0.614647
     69          6           0        6.788023    0.581311   -0.124208
     70          1           0        7.681302    0.148213   -0.581445
     71          1           0        6.821969    0.378507    0.951324
     72          1           0        6.817162    1.665351   -0.281930
     73          8           0        5.747971   -2.272287   -1.599486
     74          7           0        5.203773   -2.043040    0.607885
     75          1           0        4.844910   -1.414037    1.326056
     76          6           0        4.494782   -3.317766    0.650924
     77          1           0        4.101293   -3.417753   -0.343702
     78          6           0        3.241004   -3.180346    1.549387
     79          6           0        5.388948   -4.537476    0.932179
     80          1           0        6.328008   -4.406003    0.379110
     81          1           0        5.650663   -4.563704    1.996104
     82          8           0        2.339971   -4.053272    1.345430
     83          6           0        4.708660   -5.859735    0.536417
     84          1           0        5.254899   -6.701226    0.978784
     85          1           0        3.706692   -5.870128    0.970792
     86          6           0        4.637904   -6.143636   -0.982980
     87          1           0        3.852513   -6.874820   -1.192685
     88          1           0        5.584551   -6.569103   -1.327606
     89          7           0        4.409381   -4.986506   -1.864935
     90          1           0        5.219788   -4.390868   -2.029459
     91          7           0        2.173382   -4.677570   -1.260581
     92          1           0        1.324083   -4.201027   -1.542882
     93          1           0        2.283878   -4.664881   -0.195527
     94          7           0        3.167654   -3.306682   -2.876350
     95          1           0        2.714522   -2.475630   -2.500614
     96          1           0        4.044532   -3.063822   -3.325129
     97          6           0        3.247931   -4.332358   -1.986119
     98          8           0        3.214514   -2.211660    2.336892
 ---------------------------------------------------------------------
 Rotational constants (GHZ):           0.1112107           0.0244547           0.0239926
 Standard basis: 6-31G(d) (6D, 7F)
   833 basis functions,  1568 primitive gaussians,   833 cartesian basis functions
   184 alpha electrons      184 beta electrons
       nuclear repulsion energy      6766.5775929036 Hartrees.
 NAtoms=   98 NActive=   98 NUniq=   98 SFac= 1.00D+00 NAtFMM=   60 NAOKFM=T Big=T
 Integral buffers will be    131072 words long.
 Raffenetti 2 integral format.
 Two-electron integral symmetry is turned off.
 Nuclear repulsion after empirical dispersion term =     6766.3449556232 Hartrees.
 One-electron integrals computed using PRISM.
 NBasis=   833 RedAO= T EigKep=  3.75D-04  NBF=   833
 NBsUse=   833 1.00D-06 EigRej= -1.00D+00 NBFU=   833
 Initial guess from the checkpoint file:  "conf-474.chk"
 B after Tr=     0.000000    0.000000    0.000000
         Rot=    1.000000    0.000000    0.000000    0.000000 Ang=   0.00 deg.
 Requested convergence on RMS density matrix=1.00D-08 within 128 cycles.
 Requested convergence on MAX density matrix=1.00D-06.
 Requested convergence on             energy=1.00D-06.
 No special actions if energy rises.
 SCF Done:  E(RB3LYP) =  -2360.23967490     A.U. after    1 cycles
            NFock=  1  Conv=0.94D-08     -V/T= 2.0093

 **********************************************************************

            Population analysis using the SCF Density.

 **********************************************************************

 Alpha  occ. eigenvalues --  -19.25431 -19.22743 -19.21905 -19.20618 -19.20081
 Alpha  occ. eigenvalues --  -19.17807 -19.12529 -19.12211 -14.58361 -14.48975
 Alpha  occ. eigenvalues --  -14.48608 -14.45810 -14.44630 -14.44299 -14.44250
 Alpha  occ. eigenvalues --  -14.43427 -14.41889 -14.39949 -10.42629 -10.39740
 Alpha  occ. eigenvalues --  -10.39624 -10.39488 -10.37380 -10.37135 -10.34797
 Alpha  occ. eigenvalues --  -10.34519 -10.33113 -10.32823 -10.32344 -10.31654
 Alpha  occ. eigenvalues --  -10.31520 -10.30684 -10.30590 -10.30463 -10.30338
 Alpha  occ. eigenvalues --  -10.30085 -10.30079 -10.29935 -10.29810 -10.29556
 Alpha  occ. eigenvalues --  -10.28769 -10.28572 -10.25827 -10.25271 -10.24829
 Alpha  occ. eigenvalues --  -10.23265 -10.23210 -10.23183 -10.23146  -1.18088
 Alpha  occ. eigenvalues --   -1.14739  -1.12669  -1.12566  -1.11720  -1.09634
 Alpha  occ. eigenvalues --   -1.09204  -1.08578  -1.08518  -1.05755  -1.05523
 Alpha  occ. eigenvalues --   -1.02463  -1.01122  -1.00775  -0.98230  -0.97607
 Alpha  occ. eigenvalues --   -0.96526  -0.95673  -0.95364  -0.92725  -0.90948
 Alpha  occ. eigenvalues --   -0.88046  -0.87144  -0.84967  -0.84790  -0.84125
 Alpha  occ. eigenvalues --   -0.83839  -0.82771  -0.80448  -0.78841  -0.78440
 Alpha  occ. eigenvalues --   -0.77200  -0.74278  -0.73467  -0.73360  -0.73072
 Alpha  occ. eigenvalues --   -0.72691  -0.71585  -0.71192  -0.70903  -0.70240
 Alpha  occ. eigenvalues --   -0.69364  -0.68868  -0.67526  -0.67374  -0.66578
 Alpha  occ. eigenvalues --   -0.65630  -0.65156  -0.64511  -0.64360  -0.63859
 Alpha  occ. eigenvalues --   -0.62908  -0.62468  -0.61932  -0.61082  -0.60021
 Alpha  occ. eigenvalues --   -0.59875  -0.59066  -0.58742  -0.58595  -0.57867
 Alpha  occ. eigenvalues --   -0.57511  -0.57145  -0.56985  -0.56354  -0.56297
 Alpha  occ. eigenvalues --   -0.55629  -0.55320  -0.54526  -0.54208  -0.54025
 Alpha  occ. eigenvalues --   -0.53625  -0.53310  -0.53248  -0.52979  -0.52646
 Alpha  occ. eigenvalues --   -0.52523  -0.51811  -0.51502  -0.51362  -0.51149
 Alpha  occ. eigenvalues --   -0.50892  -0.50780  -0.50627  -0.49723  -0.49363
 Alpha  occ. eigenvalues --   -0.48954  -0.48653  -0.48509  -0.48319  -0.48025
 Alpha  occ. eigenvalues --   -0.47728  -0.47227  -0.46962  -0.46313  -0.46241
 Alpha  occ. eigenvalues --   -0.45869  -0.45816  -0.45360  -0.45280  -0.45050
 Alpha  occ. eigenvalues --   -0.44883  -0.44307  -0.44284  -0.43849  -0.43533
 Alpha  occ. eigenvalues --   -0.43171  -0.42267  -0.41243  -0.41044  -0.40756
 Alpha  occ. eigenvalues --   -0.40195  -0.39713  -0.39602  -0.39093  -0.39043
 Alpha  occ. eigenvalues --   -0.38587  -0.38302  -0.37731  -0.37073  -0.36415
 Alpha  occ. eigenvalues --   -0.35550  -0.35364  -0.34870  -0.34460  -0.33776
 Alpha  occ. eigenvalues --   -0.33484  -0.33312  -0.32784  -0.31667  -0.31021
 Alpha  occ. eigenvalues --   -0.30921  -0.27751  -0.26710  -0.26426
 Alpha virt. eigenvalues --   -0.12630  -0.11939  -0.09254  -0.09082  -0.08178
 Alpha virt. eigenvalues --   -0.07325  -0.06657  -0.05836  -0.04502  -0.04321
 Alpha virt. eigenvalues --   -0.03335  -0.02559  -0.01536  -0.00897  -0.00613
 Alpha virt. eigenvalues --   -0.00495   0.00304   0.00539   0.01103   0.01631
 Alpha virt. eigenvalues --    0.01972   0.02152   0.02569   0.02662   0.03084
 Alpha virt. eigenvalues --    0.03869   0.04327   0.04428   0.04718   0.04922
 Alpha virt. eigenvalues --    0.05016   0.05159   0.05434   0.05831   0.06145
 Alpha virt. eigenvalues --    0.06603   0.06766   0.07072   0.07121   0.07375
 Alpha virt. eigenvalues --    0.07674   0.07801   0.07996   0.08224   0.08736
 Alpha virt. eigenvalues --    0.09022   0.09208   0.09473   0.09578   0.09826
 Alpha virt. eigenvalues --    0.09981   0.10425   0.10697   0.11156   0.11453
 Alpha virt. eigenvalues --    0.11614   0.11910   0.12406   0.12598   0.12976
 Alpha virt. eigenvalues --    0.13144   0.13305   0.14004   0.14137   0.14423
 Alpha virt. eigenvalues --    0.14791   0.14937   0.15460   0.15757   0.16156
 Alpha virt. eigenvalues --    0.16438   0.16776   0.16851   0.17190   0.17225
 Alpha virt. eigenvalues --    0.18104   0.18387   0.18460   0.18917   0.19838
 Alpha virt. eigenvalues --    0.20353   0.20798   0.21382   0.21472   0.21917
 Alpha virt. eigenvalues --    0.22527   0.23197   0.23254   0.23802   0.24284
 Alpha virt. eigenvalues --    0.24645   0.25612   0.26000   0.27272   0.27882
 Alpha virt. eigenvalues --    0.28554   0.28726   0.30092   0.30266   0.30715
 Alpha virt. eigenvalues --    0.32159   0.32947   0.33013   0.33521   0.34326
 Alpha virt. eigenvalues --    0.34825   0.36071   0.36231   0.37358   0.37493
 Alpha virt. eigenvalues --    0.37967   0.38794   0.39887   0.40677   0.40788
 Alpha virt. eigenvalues --    0.41468   0.42387   0.42584   0.43194   0.43699
 Alpha virt. eigenvalues --    0.43959   0.44273   0.44795   0.45144   0.45401
 Alpha virt. eigenvalues --    0.45519   0.46386   0.46512   0.46726   0.46787
 Alpha virt. eigenvalues --    0.47162   0.47406   0.47860   0.48197   0.48555
 Alpha virt. eigenvalues --    0.49039   0.49146   0.49404   0.49996   0.50089
 Alpha virt. eigenvalues --    0.50290   0.50629   0.51040   0.51152   0.51462
 Alpha virt. eigenvalues --    0.51606   0.52139   0.52401   0.52801   0.53395
 Alpha virt. eigenvalues --    0.53871   0.54632   0.54838   0.54866   0.55691
 Alpha virt. eigenvalues --    0.55918   0.56167   0.56936   0.57237   0.57609
 Alpha virt. eigenvalues --    0.57901   0.58602   0.58775   0.59053   0.59569
 Alpha virt. eigenvalues --    0.59657   0.59792   0.60115   0.60740   0.61002
 Alpha virt. eigenvalues --    0.61066   0.61684   0.61986   0.62735   0.62822
 Alpha virt. eigenvalues --    0.63308   0.64318   0.64455   0.64810   0.65145
 Alpha virt. eigenvalues --    0.65420   0.65798   0.66047   0.66439   0.67103
 Alpha virt. eigenvalues --    0.67583   0.67715   0.68194   0.68609   0.69167
 Alpha virt. eigenvalues --    0.70207   0.70579   0.70651   0.70874   0.71105
 Alpha virt. eigenvalues --    0.71777   0.72166   0.72367   0.72607   0.72939
 Alpha virt. eigenvalues --    0.73057   0.73606   0.73721   0.74028   0.74607
 Alpha virt. eigenvalues --    0.74846   0.75049   0.75067   0.75405   0.76054
 Alpha virt. eigenvalues --    0.76248   0.76353   0.76409   0.76588   0.76843
 Alpha virt. eigenvalues --    0.76954   0.77280   0.77578   0.77857   0.78412
 Alpha virt. eigenvalues --    0.78579   0.79123   0.79468   0.79605   0.80005
 Alpha virt. eigenvalues --    0.80626   0.80657   0.80930   0.81330   0.81501
 Alpha virt. eigenvalues --    0.81971   0.82040   0.82337   0.82622   0.82913
 Alpha virt. eigenvalues --    0.83157   0.83701   0.83886   0.84185   0.84263
 Alpha virt. eigenvalues --    0.84846   0.85158   0.85405   0.85768   0.85968
 Alpha virt. eigenvalues --    0.86532   0.86920   0.87158   0.87544   0.88199
 Alpha virt. eigenvalues --    0.88335   0.88436   0.88714   0.89125   0.89746
 Alpha virt. eigenvalues --    0.90457   0.90640   0.90830   0.91016   0.91158
 Alpha virt. eigenvalues --    0.91973   0.92385   0.92642   0.93206   0.93765
 Alpha virt. eigenvalues --    0.94452   0.95025   0.95756   0.96084   0.96202
 Alpha virt. eigenvalues --    0.96669   0.97236   0.97715   0.98185   0.98370
 Alpha virt. eigenvalues --    0.99318   0.99828   1.00049   1.00634   1.00976
 Alpha virt. eigenvalues --    1.01360   1.02139   1.02496   1.02850   1.03701
 Alpha virt. eigenvalues --    1.04042   1.04874   1.05381   1.06078   1.07017
 Alpha virt. eigenvalues --    1.07224   1.07462   1.07764   1.08502   1.08792
 Alpha virt. eigenvalues --    1.09399   1.10776   1.11405   1.12449   1.12601
 Alpha virt. eigenvalues --    1.13147   1.13749   1.14158   1.14749   1.15849
 Alpha virt. eigenvalues --    1.16503   1.16794   1.17552   1.18064   1.18780
 Alpha virt. eigenvalues --    1.19394   1.19874   1.20084   1.21393   1.22433
 Alpha virt. eigenvalues --    1.22592   1.23192   1.23529   1.23626   1.24752
 Alpha virt. eigenvalues --    1.26047   1.26885   1.27108   1.27667   1.28453
 Alpha virt. eigenvalues --    1.28933   1.29168   1.29872   1.30583   1.31283
 Alpha virt. eigenvalues --    1.31585   1.31905   1.33157   1.33802   1.34798
 Alpha virt. eigenvalues --    1.35614   1.35701   1.36902   1.37164   1.37600
 Alpha virt. eigenvalues --    1.37934   1.38127   1.38913   1.39270   1.39691
 Alpha virt. eigenvalues --    1.40077   1.40592   1.41266   1.41510   1.41674
 Alpha virt. eigenvalues --    1.42527   1.43285   1.43974   1.45274   1.45970
 Alpha virt. eigenvalues --    1.47240   1.48155   1.48880   1.49579   1.50254
 Alpha virt. eigenvalues --    1.51411   1.51987   1.52889   1.53537   1.55727
 Alpha virt. eigenvalues --    1.56479   1.56592   1.57029   1.57914   1.58343
 Alpha virt. eigenvalues --    1.58617   1.58903   1.59478   1.60058   1.60575
 Alpha virt. eigenvalues --    1.61583   1.62038   1.62870   1.63709   1.64091
 Alpha virt. eigenvalues --    1.64786   1.65639   1.66451   1.66687   1.67504
 Alpha virt. eigenvalues --    1.68352   1.68399   1.69257   1.69708   1.70350
 Alpha virt. eigenvalues --    1.70866   1.71474   1.71882   1.72317   1.72493
 Alpha virt. eigenvalues --    1.72717   1.72976   1.73462   1.73826   1.74363
 Alpha virt. eigenvalues --    1.74550   1.75332   1.75645   1.76574   1.77377
 Alpha virt. eigenvalues --    1.77585   1.77704   1.78149   1.78677   1.79003
 Alpha virt. eigenvalues --    1.79850   1.80005   1.80613   1.81248   1.81411
 Alpha virt. eigenvalues --    1.81778   1.81972   1.82607   1.82759   1.83037
 Alpha virt. eigenvalues --    1.83702   1.83981   1.84179   1.84704   1.85278
 Alpha virt. eigenvalues --    1.85765   1.86108   1.86783   1.87303   1.87906
 Alpha virt. eigenvalues --    1.88354   1.88634   1.88980   1.89113   1.89199
 Alpha virt. eigenvalues --    1.89888   1.90406   1.90818   1.91171   1.91591
 Alpha virt. eigenvalues --    1.92726   1.93242   1.93441   1.93628   1.94052
 Alpha virt. eigenvalues --    1.94456   1.94730   1.95103   1.95726   1.96007
 Alpha virt. eigenvalues --    1.97501   1.97630   1.97958   1.98031   1.98617
 Alpha virt. eigenvalues --    1.99720   1.99812   2.00616   2.01036   2.01641
 Alpha virt. eigenvalues --    2.02174   2.02581   2.03147   2.03443   2.04337
 Alpha virt. eigenvalues --    2.04807   2.04871   2.04987   2.06047   2.06786
 Alpha virt. eigenvalues --    2.06854   2.07843   2.07998   2.09499   2.10269
 Alpha virt. eigenvalues --    2.11728   2.12070   2.13079   2.13414   2.13867
 Alpha virt. eigenvalues --    2.14120   2.14166   2.14472   2.15207   2.15632
 Alpha virt. eigenvalues --    2.15733   2.16555   2.17589   2.17669   2.18158
 Alpha virt. eigenvalues --    2.18452   2.20069   2.20143   2.20460   2.21133
 Alpha virt. eigenvalues --    2.22089   2.22309   2.23271   2.23970   2.24375
 Alpha virt. eigenvalues --    2.25250   2.26245   2.26623   2.26734   2.27484
 Alpha virt. eigenvalues --    2.28098   2.28778   2.30117   2.30884   2.31373
 Alpha virt. eigenvalues --    2.31956   2.32123   2.32620   2.33561   2.34357
 Alpha virt. eigenvalues --    2.34733   2.35156   2.36018   2.36759   2.37484
 Alpha virt. eigenvalues --    2.37739   2.38280   2.39088   2.40486   2.41363
 Alpha virt. eigenvalues --    2.41534   2.42646   2.43377   2.44518   2.44755
 Alpha virt. eigenvalues --    2.45023   2.46124   2.46845   2.47235   2.47598
 Alpha virt. eigenvalues --    2.48174   2.49744   2.50193   2.50916   2.52157
 Alpha virt. eigenvalues --    2.52598   2.54207   2.54430   2.54740   2.55709
 Alpha virt. eigenvalues --    2.56213   2.56890   2.57186   2.57533   2.58344
 Alpha virt. eigenvalues --    2.58818   2.58989   2.59676   2.60881   2.61721
 Alpha virt. eigenvalues --    2.62025   2.62607   2.63643   2.64521   2.65026
 Alpha virt. eigenvalues --    2.66595   2.66978   2.67917   2.69436   2.69987
 Alpha virt. eigenvalues --    2.72075   2.72700   2.73436   2.74224   2.76510
 Alpha virt. eigenvalues --    2.77296   2.78282   2.79472   2.80075   2.80806
 Alpha virt. eigenvalues --    2.82895   2.83053   2.83893   2.85189   2.87069
 Alpha virt. eigenvalues --    2.88639   2.89249   2.89461   2.90757   2.92307
 Alpha virt. eigenvalues --    2.94971   2.95602   2.95950   2.99135   3.00187
 Alpha virt. eigenvalues --    3.01002   3.01249   3.03318   3.06477   3.08121
 Alpha virt. eigenvalues --    3.10269   3.13890   3.14154   3.16320   3.32383
 Alpha virt. eigenvalues --    3.73283   3.74082   3.77939   3.88164   3.91087
 Alpha virt. eigenvalues --    3.91680   3.93129   3.94043   3.95025   3.96724
 Alpha virt. eigenvalues --    4.01474   4.02100   4.02779   4.05335   4.07154
 Alpha virt. eigenvalues --    4.09078   4.10132   4.11190   4.13625   4.14232
 Alpha virt. eigenvalues --    4.15226   4.15870   4.17361   4.20198   4.21574
 Alpha virt. eigenvalues --    4.23052   4.23569   4.24954   4.26631   4.27162
 Alpha virt. eigenvalues --    4.31929   4.32842   4.34993   4.37180   4.39205
 Alpha virt. eigenvalues --    4.39386   4.40689   4.44882   4.45342   4.48528
 Alpha virt. eigenvalues --    4.49448   4.49484   4.52779   4.56270   4.58276
 Alpha virt. eigenvalues --    4.60886   4.68046   4.70691   4.74158
          Condensed to atoms (all electrons):
 Mulliken charges:
               1
     1  N   -0.761645
     2  H    0.421814
     3  H    0.401493
     4  H    0.420677
     5  C   -0.102807
     6  H    0.204634
     7  C    0.668619
     8  C   -0.475956
     9  H    0.212134
    10  H    0.186712
    11  H    0.197805
    12  O   -0.539329
    13  N   -0.604982
    14  H    0.364975
    15  C   -0.065701
    16  H    0.193241
    17  C    0.618197
    18  C   -0.388684
    19  H    0.200654
    20  H    0.180611
    21  O   -0.514128
    22  C    0.084773
    23  C    0.035295
    24  H    0.180010
    25  C    0.062645
    26  C    0.326615
    27  C   -0.226436
    28  H    0.150629
    29  N   -0.683019
    30  H    0.348202
    31  C   -0.205284
    32  H    0.159638
    33  C   -0.171422
    34  H    0.158083
    35  C   -0.194763
    36  H    0.156056
    37  N   -0.604512
    38  H    0.351343
    39  C   -0.126133
    40  H    0.197389
    41  C    0.635564
    42  C   -0.020036
    43  H    0.161429
    44  H    0.141678
    45  O   -0.554475
    46  O   -0.599861
    47  H    0.400017
    48  N   -0.598531
    49  H    0.348842
    50  C   -0.072503
    51  H    0.173200
    52  C    0.656705
    53  C   -0.085741
    54  H    0.213069
    55  O   -0.569955
    56  C   -0.467926
    57  H    0.124781
    58  H    0.171133
    59  H    0.152697
    60  C   -0.455927
    61  H    0.150152
    62  H    0.155069
    63  H    0.133682
    64  N   -0.623365
    65  H    0.345969
    66  C   -0.014112
    67  H    0.179267
    68  C    0.617431
    69  C   -0.493365
    70  H    0.192172
    71  H    0.173408
    72  H    0.163841
    73  O   -0.576404
    74  N   -0.594069
    75  H    0.358248
    76  C   -0.062973
    77  H    0.128735
    78  C    0.607395
    79  C   -0.264746
    80  H    0.141695
    81  H    0.159318
    82  O   -0.603215
    83  C   -0.303406
    84  H    0.150343
    85  H    0.193488
    86  C   -0.152672
    87  H    0.185740
    88  H    0.168134
    89  N   -0.553534
    90  H    0.377321
    91  N   -0.741447
    92  H    0.337675
    93  H    0.423015
    94  N   -0.722587
    95  H    0.379131
    96  H    0.359014
    97  C    0.631256
    98  O   -0.577201
 Sum of Mulliken charges =   1.00000
 Mulliken charges with hydrogens summed into heavy atoms:
               1
     1  N    0.482338
     5  C    0.101827
     7  C    0.668619
     8  C    0.120694
    12  O   -0.539329
    13  N   -0.240008
    15  C    0.127539
    17  C    0.618197
    18  C   -0.007419
    21  O   -0.514128
    22  C    0.084773
    23  C    0.215304
    25  C    0.062645
    26  C    0.326615
    27  C   -0.075807
    29  N   -0.334817
    31  C   -0.045646
    33  C   -0.013339
    35  C   -0.038707
    37  N   -0.253169
    39  C    0.071256
    41  C    0.635564
    42  C    0.283070
    45  O   -0.554475
    46  O   -0.199844
    48  N   -0.249689
    50  C    0.100697
    52  C    0.656705
    53  C    0.127327
    55  O   -0.569955
    56  C   -0.019315
    60  C   -0.017025
    64  N   -0.277396
    66  C    0.165155
    68  C    0.617431
    69  C    0.036056
    73  O   -0.576404
    74  N   -0.235820
    76  C    0.065762
    78  C    0.607395
    79  C    0.036267
    82  O   -0.603215
    83  C    0.040424
    86  C    0.201202
    89  N   -0.176213
    91  N    0.019243
    94  N    0.015557
    97  C    0.631256
    98  O   -0.577201
 Electronic spatial extent (au):  <R**2>=          46391.7804
 Charge=              1.0000 electrons
 Dipole moment (field-independent basis, Debye):
    X=            -22.7668    Y=             10.6959    Z=              8.6465  Tot=             26.5988
 Quadrupole moment (field-independent basis, Debye-Ang):
   XX=            -13.0537   YY=           -224.9485   ZZ=           -242.0898
   XY=            -73.6336   XZ=           -115.4856   YZ=             53.3704
 Traceless Quadrupole moment (field-independent basis, Debye-Ang):
   XX=            146.9770   YY=            -64.9179   ZZ=            -82.0591
   XY=            -73.6336   XZ=           -115.4856   YZ=             53.3704
 Octapole moment (field-independent basis, Debye-Ang**2):
  XXX=          -1304.8175  YYY=             39.6201  ZZZ=           -528.6359  XYY=             16.7529
  XXY=            355.4513  XXZ=            512.0213  XZZ=           -303.5721  YZZ=            172.5951
  YYZ=           -142.7241  XYZ=           -195.9984
 Hexadecapole moment (field-independent basis, Debye-Ang**3):
 XXXX=         -18653.8347 YYYY=         -11575.0158 ZZZZ=          -9914.9699 XXXY=           4217.5241
 XXXZ=          -1388.4868 YYYX=           5625.0626 YYYZ=          -1507.5004 ZZZX=           3011.8163
 ZZZY=          -2057.0104 XXYY=          -6129.0946 XXZZ=          -4511.2601 YYZZ=          -3345.9623
 XXYZ=           1035.0113 YYXZ=            413.8505 ZZXY=           1401.4836
 N-N= 6.766344955623D+03 E-N=-1.900119344522D+04  KE= 2.338506698497D+03
 Unable to Open any file for archive entry.
 1\1\GINC-SKL-132\SP\RB3LYP\6-31G(d)\C31H49N10O8(1+)\KENGMITH\04-Jul-20
 22\0\\# B3LYP/6-31G* empiricaldispersion=gd3bj guess=read geom=check n
 osymm integral(ultrafinegrid)\\Candidate Structure: Conf:474 Charge ca
 lc in gas phase\\1,1\N,0,-8.0510220205,2.1548561082,3.3582175776\H,0,-
 7.4996996294,2.1175938256,4.2403151778\H,0,-9.0355751143,1.97447624,3.
 5690837974\H,0,-7.9245654009,3.1037018363,2.9374348748\C,0,-7.48587186
 62,1.2236384208,2.3132449331\H,0,-7.0322958596,0.3833173445,2.84062582
 37\C,0,-6.4277112567,2.1134486192,1.6216752622\C,0,-8.5755868849,0.778
 481196,1.3429657857\H,0,-8.1396199637,0.127335386,0.5803690474\H,0,-9.
 3605029639,0.2127984231,1.8560678959\H,0,-9.0186113104,1.6417922953,0.
 8363045771\O,0,-6.659305238,3.3249752548,1.5608665338\N,0,-5.345807443
 7,1.4884952621,1.1613820255\H,0,-5.2538153778,0.4746590587,1.183302505
 \C,0,-4.1625614754,2.1571966289,0.6439343784\H,0,-4.4684196984,3.05683
 80381,0.1045416658\C,0,-3.461061306,1.1358072263,-0.2568021549\C,0,-3.
 1748787566,2.5338804871,1.7989648956\H,0,-2.3198983501,3.0610404154,1.
 3630313937\H,0,-2.7778465228,1.6004407034,2.215066334\O,0,-3.675674773
 ,-0.0623063867,-0.1008639013\C,0,-3.8324857601,3.3447717897,2.86964618
 6\C,0,-3.9426142032,4.7126699927,2.9183334582\H,0,-3.5027488807,5.4615
 172535,2.2745504521\C,0,-4.6209717022,2.8363811851,3.9636693412\C,0,-5
 .2091871717,3.9609571742,4.6193221894\C,0,-4.9059364233,1.5477452279,4
 .4449150391\H,0,-4.4466669812,0.675760864,3.9879643127\N,0,-4.76893140
 38,5.085104278,3.9595311883\H,0,-4.9644161323,6.0370809684,4.230676233
 \C,0,-6.3625976126,2.5288719551,6.1457214737\H,0,-7.0166333436,2.38800
 95585,7.0009549268\C,0,-6.0805718533,3.8218282743,5.7033414434\H,0,-6.
 5164464097,4.6871710277,6.1939887189\C,0,-5.7730458819,1.4003098572,5.
 5264452348\H,0,-5.979085604,0.4097863958,5.921398105\N,0,-2.5673426916
 ,1.659081996,-1.1404702153\H,0,-2.3137428146,2.6329156978,-0.981834085
 1\C,0,-1.3864809238,0.8854385371,-1.5317375515\H,0,-1.5969530446,-0.16
 44054535,-1.3183508644\C,0,-0.2242298341,1.4230355628,-0.6820054217\C,
 0,-1.1149618525,1.0543295171,-3.034565794\H,0,-0.224854902,0.480959334
 1,-3.3103143221\H,0,-0.9060972741,2.1160235627,-3.2430604202\O,0,-0.23
 68237389,2.5972410233,-0.2987811252\O,0,-2.1789978587,0.5547145252,-3.
 8110888258\H,0,-2.9779465964,1.0340999307,-3.5371444025\N,0,0.75020344
 15,0.540841465,-0.4115948045\H,0,0.7384740778,-0.3883498063,-0.8158433
 8\C,0,1.9511563164,0.8616519544,0.3443343227\H,0,2.1042042132,1.943427
 6693,0.2604486944\C,0,3.0877991573,0.1084795467,-0.3683131443\C,0,1.81
 45802398,0.4850350187,1.8523578221\H,0,1.836335712,-0.6067890501,1.937
 0724784\O,0,2.8442055489,-0.8641006295,-1.0918443822\C,0,2.9917868555,
 1.0234768926,2.674453105\H,0,3.105936127,2.110802218,2.5553073862\H,0,
 2.8205168581,0.8223399757,3.735640627\H,0,3.9308354505,0.529633315,2.4
 173996444\C,0,0.4910219477,1.0088725717,2.4257925988\H,0,0.4134727899,
 2.0982120127,2.3364285871\H,0,0.4265993369,0.7416961172,3.4855887918\H
 ,0,-0.3709323979,0.5631598246,1.9196925105\N,0,4.3409944563,0.56813633
 88,-0.1573712808\H,0,4.4603589154,1.3827719642,0.4288338604\C,0,5.5385
 11256,-0.0306638505,-0.7583978084\H,0,5.5342635043,0.1532223949,-1.837
 2617933\C,0,5.5115865761,-1.5600148324,-0.6146467597\C,0,6.7880234232,
 0.5813107361,-0.1242079773\H,0,7.681302034,0.1482125023,-0.5814447237\
 H,0,6.8219686366,0.3785069354,0.9513239913\H,0,6.8171621506,1.66535086
 32,-0.2819302028\O,0,5.7479708503,-2.2722871933,-1.5994862448\N,0,5.20
 37727389,-2.0430396119,0.6078846014\H,0,4.8449096512,-1.4140366575,1.3
 260557937\C,0,4.494781609,-3.3177657581,0.6509237924\H,0,4.1012934145,
 -3.4177532342,-0.3437019977\C,0,3.2410037607,-3.180346068,1.549387339\
 C,0,5.388947854,-4.5374759966,0.9321792062\H,0,6.3280079365,-4.4060029
 282,0.3791103519\H,0,5.6506630257,-4.5637037413,1.996104165\O,0,2.3399
 708989,-4.0532716203,1.3454300925\C,0,4.7086602049,-5.8597351137,0.536
 4169163\H,0,5.2548989125,-6.7012256487,0.9787840965\H,0,3.706691772,-5
 .8701280162,0.9707923188\C,0,4.6379041854,-6.1436364342,-0.9829802119\
 H,0,3.8525125248,-6.8748203764,-1.1926852264\H,0,5.5845506448,-6.56910
 27812,-1.3276059247\N,0,4.4093811709,-4.9865057418,-1.8649353586\H,0,5
 .219787919,-4.3908677114,-2.0294586715\N,0,2.1733815452,-4.6775698644,
 -1.2605814616\H,0,1.3240825507,-4.2010269957,-1.5428816964\H,0,2.28387
 84206,-4.6648811249,-0.1955272389\N,0,3.1676537662,-3.306682305,-2.876
 3496235\H,0,2.7145216129,-2.475630051,-2.5006135207\H,0,4.0445315658,-
 3.0638220699,-3.3251286579\C,0,3.2479311182,-4.3323583414,-1.986119494
 4\O,0,3.2145138566,-2.2116596908,2.336892119\\Version=ES64L-G16RevC.01
 \HF=-2360.2396749\RMSD=9.444e-09\Dipole=-8.2259833,4.0886519,1.802772\
 Quadrupole=109.2737906,-48.264857,-61.0089337,-54.7447561,-85.8607021,
 39.6795949\PG=C01 [X(C31H49N10O8)]\\@
 The archive entry for this job was punched.


 WE ARE PERHAPS NOT FAR REMOVED FROM THE TIME WHEN WE SHALL BE ABLE TO SUBMIT
 THE BULK OF CHEMICAL PHENOMENA TO CALCULATION.

            -- JOSEPH LOUIS GAY-LUSSAC
               MEMOIRES DE LA SOCIETE D'ARCUEIL, 2, 207 (1808)
 Job cpu time:       0 days  0 hours  2 minutes 33.3 seconds.
 Elapsed time:       0 days  0 hours  0 minutes 39.2 seconds.
 File lengths (MBytes):  RWF=    472 Int=      0 D2E=      0 Chk=     72 Scr=     16
 Normal termination of Gaussian 16 at Mon Jul  4 16:58:34 2022.
