 Entering Gaussian System, Link 0=/opt/software/Gaussian/g16-AVX2-C.01/g16/g16
 Input=charge-conf-549.com
 Output=charge-conf-549.log
 Initial command:
 /opt/software/Gaussian/g16-AVX2-C.01/g16/l1.exe "/mnt/gs21/scratch/kengmith/Gau-3903.inp" -scrdir="/mnt/gs21/scratch/kengmith/"
 Entering Link 1 = /opt/software/Gaussian/g16-AVX2-C.01/g16/l1.exe PID=      3939.
  
 Copyright (c) 1988-2019, Gaussian, Inc.  All Rights Reserved.
  
 This is part of the Gaussian(R) 16 program.  It is based on
 the Gaussian(R) 09 system (copyright 2009, Gaussian, Inc.),
 the Gaussian(R) 03 system (copyright 2003, Gaussian, Inc.),
 the Gaussian(R) 98 system (copyright 1998, Gaussian, Inc.),
 the Gaussian(R) 94 system (copyright 1995, Gaussian, Inc.),
 the Gaussian 92(TM) system (copyright 1992, Gaussian, Inc.),
 the Gaussian 90(TM) system (copyright 1990, Gaussian, Inc.),
 the Gaussian 88(TM) system (copyright 1988, Gaussian, Inc.),
 the Gaussian 86(TM) system (copyright 1986, Carnegie Mellon
 University), and the Gaussian 82(TM) system (copyright 1983,
 Carnegie Mellon University). Gaussian is a federally registered
 trademark of Gaussian, Inc.
  
 This software contains proprietary and confidential information,
 including trade secrets, belonging to Gaussian, Inc.
  
 This software is provided under written license and may be
 used, copied, transmitted, or stored only in accord with that
 written license.
  
 The following legend is applicable only to US Government
 contracts under FAR:
  
                    RESTRICTED RIGHTS LEGEND
  
 Use, reproduction and disclosure by the US Government is
 subject to restrictions as set forth in subparagraphs (a)
 and (c) of the Commercial Computer Software - Restricted
 Rights clause in FAR 52.227-19.
  
 Gaussian, Inc.
 340 Quinnipiac St., Bldg. 40, Wallingford CT 06492
  
  
 ---------------------------------------------------------------
 Warning -- This program may not be used in any manner that
 competes with the business of Gaussian, Inc. or will provide
 assistance to any competitor of Gaussian, Inc.  The licensee
 of this program is prohibited from giving any competitor of
 Gaussian, Inc. access to this program.  By using this program,
 the user acknowledges that Gaussian, Inc. is engaged in the
 business of creating and licensing software in the field of
 computational chemistry and represents and warrants to the
 licensee that it is not a competitor of Gaussian, Inc. and that
 it will not use this program in any manner prohibited above.
 ---------------------------------------------------------------
  

 Cite this work as:
 Gaussian 16, Revision C.01,
 M. J. Frisch, G. W. Trucks, H. B. Schlegel, G. E. Scuseria, 
 M. A. Robb, J. R. Cheeseman, G. Scalmani, V. Barone, 
 G. A. Petersson, H. Nakatsuji, X. Li, M. Caricato, A. V. Marenich, 
 J. Bloino, B. G. Janesko, R. Gomperts, B. Mennucci, H. P. Hratchian, 
 J. V. Ortiz, A. F. Izmaylov, J. L. Sonnenberg, D. Williams-Young, 
 F. Ding, F. Lipparini, F. Egidi, J. Goings, B. Peng, A. Petrone, 
 T. Henderson, D. Ranasinghe, V. G. Zakrzewski, J. Gao, N. Rega, 
 G. Zheng, W. Liang, M. Hada, M. Ehara, K. Toyota, R. Fukuda, 
 J. Hasegawa, M. Ishida, T. Nakajima, Y. Honda, O. Kitao, H. Nakai, 
 T. Vreven, K. Throssell, J. A. Montgomery, Jr., J. E. Peralta, 
 F. Ogliaro, M. J. Bearpark, J. J. Heyd, E. N. Brothers, K. N. Kudin, 
 V. N. Staroverov, T. A. Keith, R. Kobayashi, J. Normand, 
 K. Raghavachari, A. P. Rendell, J. C. Burant, S. S. Iyengar, 
 J. Tomasi, M. Cossi, J. M. Millam, M. Klene, C. Adamo, R. Cammi, 
 J. W. Ochterski, R. L. Martin, K. Morokuma, O. Farkas, 
 J. B. Foresman, and D. J. Fox, Gaussian, Inc., Wallingford CT, 2019.
 
 ******************************************
 Gaussian 16:  ES64L-G16RevC.01  3-Jul-2019
                 7-Aug-2022 
 ******************************************
 %mem=8gb
 %nproc=4
 Will use up to    4 processors via shared memory.
 %chk=conf-549.chk
 ----------------------------------------------------------------------
 # B3LYP/6-31G* empiricaldispersion=gd3bj guess=read geom=check nosymm 
 integral(ultrafinegrid)
 ----------------------------------------------------------------------
 1/29=2,38=1,172=1/1;
 2/12=2,15=1,40=1/2;
 3/5=1,6=6,7=1,11=2,14=-4,25=1,30=1,74=-5,75=-5,116=-2,124=41/1,2,3;
 4/5=1/1;
 5/5=2,38=6/2;
 6/7=2,8=2,9=2,10=2,28=1/1;
 99/5=1,9=1/99;
 ------------------------------------------------------
 Candidate Structure: Conf:549 Charge calc in gas phase
 ------------------------------------------------------
 Structure from the checkpoint file:  "conf-549.chk"
 Charge =  1 Multiplicity = 1
 Redundant internal coordinates found in file.  (old form).
 N,0,-9.2257173615,1.4898915282,2.6537442558
 H,0,-8.3026661229,0.6204074545,1.4197863505
 H,0,-9.8277588669,2.261274753,2.3640281697
 H,0,-9.8364898963,0.7534910974,3.0129497932
 C,0,-8.3591920412,1.9302257297,3.7621153014
 H,0,-7.6230673036,2.6269176503,3.3471470961
 C,0,-7.669126884,0.6680791828,4.2871110962
 C,0,-9.1149057388,2.6322651184,4.9136578477
 H,0,-8.3847069528,2.9190604652,5.6805776368
 H,0,-9.7890499471,1.8990625035,5.3682031845
 O,0,-8.3253689333,-0.2232839621,4.8227257031
 C,0,-9.8710260257,3.842939789,4.4261107084
 C,0,-9.2118291261,5.0643737209,4.2324164206
 H,0,-8.1592810885,5.14951818,4.4940470941
 C,0,-11.2284621498,3.7551358879,4.0910073
 H,0,-11.7573488022,2.8184351679,4.2508198462
 C,0,-9.8901182259,6.1691700976,3.7207716762
 H,0,-9.3651993203,7.1105211587,3.5849389817
 C,0,-11.91128365,4.8589596206,3.5762965755
 H,0,-12.9655351735,4.774062961,3.3288771463
 C,0,-11.2430155432,6.0685686696,3.3889461917
 H,0,-11.7731780582,6.9296258976,2.9928924656
 N,0,-6.3314842481,0.6164390969,4.1081366001
 H,0,-5.8380309073,1.3522894936,3.6171767877
 C,0,-5.5293709041,-0.5299193039,4.4849009394
 H,0,-5.700308071,-0.7398737927,5.5496187895
 C,0,-4.0673611095,-0.1087728187,4.3044161481
 C,0,-5.8810512356,-1.7897003241,3.6727258143
 H,0,-5.3825515903,-2.6783280066,4.0772789132
 H,0,-5.5983751495,-1.6641951295,2.6252994167
 H,0,-6.9573290887,-1.9540740436,3.7379673711
 O,0,-3.7529428666,1.043934285,3.9875173659
 N,0,-3.1395680878,-1.0704262194,4.5157534621
 H,0,-3.4356675929,-2.0207638297,4.6895912611
 C,0,-1.7030340969,-0.7948487398,4.4707962689
 H,0,-1.5708657324,0.2141248654,4.875602677
 C,0,-1.195947591,-0.7868876607,3.0130361255
 C,0,-0.9464483749,-1.8125947513,5.3138056713
 H,0,0.1211950932,-1.5799402213,5.3180949739
 H,0,-1.0574073728,-2.819170322,4.9000376496
 H,0,-1.3142306028,-1.7963621874,6.3437472039
 O,0,-0.4853917311,-1.6985607466,2.5709494322
 N,0,-1.5728312719,0.2876712868,2.2855659241
 H,0,-2.2682999052,0.9083873303,2.7029888892
 C,0,-1.3286642865,0.3746412462,0.844334228
 H,0,-1.4433732174,-0.6359719156,0.4338758842
 C,0,0.1255259283,0.814493675,0.5775842752
 C,0,-2.3149740837,1.3357763617,0.1745894657
 H,0,-2.121639973,2.3476097475,0.5448885838
 H,0,-2.0599486427,1.3609607827,-0.8924144705
 O,0,0.40916323,1.9295460584,0.1216160145
 C,0,-3.7680396494,0.9709016764,0.3738591853
 C,0,-4.2549759495,-0.3093361648,0.071395548
 H,0,-3.5756789394,-1.0726525389,-0.3023616365
 C,0,-4.6855813514,1.9228390724,0.8270313253
 H,0,-4.340363294,2.9286773696,1.0545161234
 C,0,-5.5950788632,-0.634149082,0.238473951
 H,0,-5.9661737262,-1.6283757219,0.0104927616
 C,0,-6.0376795978,1.6197498345,0.9835215751
 H,0,-6.7354298664,2.3879510518,1.3030815218
 O,0,-7.7818533543,-0.0606615484,0.8985660071
 C,0,-6.507219543,0.3236693067,0.7160537217
 N,0,1.0522479313,-0.1256901695,0.8697726936
 H,0,0.7099884489,-0.9699312009,1.3372861334
 C,0,2.4869654594,0.1620539144,0.8985999625
 H,0,2.5976583226,1.2035912288,1.2223644419
 C,0,3.0476750106,0.0540715224,-0.5373788635
 C,0,3.1643676276,-0.7905061422,1.8828266515
 H,0,2.6312454327,-0.7136047232,2.839463127
 H,0,3.0284213255,-1.8154199212,1.519287227
 O,0,3.7841834182,-0.8589406016,-0.9165914338
 C,0,4.6642759156,-0.5454458421,2.1070627129
 H,0,5.1526433657,-0.7183649467,1.1438143786
 C,0,4.9627359072,0.8869794528,2.569327852
 H,0,4.4196833233,1.1272848531,3.4910950569
 H,0,6.0301858139,1.0175437232,2.7938817527
 H,0,4.6788696356,1.6375137854,1.8219476391
 C,0,5.2137126027,-1.563795555,3.1126888209
 H,0,4.7474029737,-1.4383039803,4.0971961675
 H,0,5.0237462673,-2.5905717633,2.7817276606
 H,0,6.2964700659,-1.4463758125,3.2490448688
 N,0,2.6178275729,1.0476956588,-1.3496181878
 H,0,1.9131182222,1.6762359259,-0.9541029973
 C,0,2.6964513051,0.9308053836,-2.7920364872
 H,0,2.3428157338,-0.0621987181,-3.0899907328
 C,0,4.1415500365,1.0703579113,-3.2913438636
 C,0,1.7755519905,2.0135936931,-3.3938683464
 H,0,0.7895908561,1.8972359005,-2.9294934037
 H,0,2.1541466432,2.9969994875,-3.0938562759
 O,0,4.9967301931,1.7335909791,-2.6865766374
 C,0,1.6272464143,2.0056269485,-4.927892846
 H,0,2.5852452478,2.2215083121,-5.4073406974
 H,0,0.9156200233,2.7824056384,-5.2153131562
 C,0,1.1547018439,0.6735254754,-5.4607473264
 O,0,1.8291953793,-0.3457907484,-5.4966160313
 O,0,-0.1160706762,0.6984039737,-5.8844876831
 N,0,4.3986414059,0.4299911206,-4.4484685592
 H,0,3.6172031693,-0.0368671329,-4.9162777106
 C,0,5.6581699336,0.5955693255,-5.1597299438
 H,0,6.0984806882,1.5289220641,-4.7845574241
 C,0,5.4238579458,0.8146823269,-6.6559912139
 C,0,6.6703273429,-0.5411622181,-4.9433357434
 H,0,7.4389104211,-0.4259862318,-5.7112351449
 H,0,6.1812699512,-1.5041928353,-5.1379566433
 O,0,6.20647578,0.5067635712,-7.5217021972
 C,0,7.3410745182,-0.5380674916,-3.5614858847
 H,0,7.5571600391,0.494104637,-3.2615458901
 H,0,8.3092987988,-1.0475002323,-3.6411745505
 C,0,6.5324017109,-1.2328419079,-2.4601287775
 H,0,6.3924403516,-2.291159467,-2.6971397252
 H,0,5.5348539385,-0.8248427625,-2.3064965228
 N,0,7.2325306798,-1.1909674341,-1.1665927541
 H,0,7.9525054247,-1.8846336058,-1.0122580709
 N,0,6.5591495579,0.9600838147,-0.5592748755
 H,0,6.3873559508,1.6023147911,0.2013142665
 H,0,6.0095203557,1.133391199,-1.4159342931
 N,0,7.9526777752,-0.2765325608,0.8256370592
 H,0,7.9010228642,0.465345157,1.5092630306
 H,0,8.1073738117,-1.1978602677,1.2115591549
 C,0,7.2184381347,-0.1651504886,-0.3125799784
 O,0,4.2530194669,1.4447082763,-6.9129809854
 H,0,-0.3369944195,-0.2000650682,-6.1996891869
 H,0,4.215712528,1.5665540846,-7.8813791239
 Recover connectivity data from disk.
                           ----------------------------
                           !    Current Parameters    !
                           ! (Angstroms and Degrees)  !
 --------------------------                            --------------------------
 ! Name  Definition              Value                                          !
 --------------------------------------------------------------------------------
 ! R1    R(1,2)                  1.7694                                         !
 ! R2    R(1,3)                  1.0205                                         !
 ! R3    R(1,4)                  1.0219                                         !
 ! R4    R(1,5)                  1.4742                                         !
 ! R5    R(5,6)                  1.0952                                         !
 ! R6    R(5,7)                  1.5313                                         !
 ! R7    R(5,8)                  1.546                                          !
 ! R8    R(7,11)                 1.2297                                         !
 ! R9    R(7,23)                 1.3506                                         !
 ! R10   R(8,9)                  1.0971                                         !
 ! R11   R(8,10)                 1.0948                                         !
 ! R12   R(8,12)                 1.5084                                         !
 ! R13   R(12,13)                1.4014                                         !
 ! R14   R(12,15)                1.4009                                         !
 ! R15   R(13,14)                1.0879                                         !
 ! R16   R(13,17)                1.3937                                         !
 ! R17   R(15,16)                1.0875                                         !
 ! R18   R(15,19)                1.3963                                         !
 ! R19   R(17,18)                1.0863                                         !
 ! R20   R(17,21)                1.3966                                         !
 ! R21   R(19,20)                1.0862                                         !
 ! R22   R(19,21)                1.3946                                         !
 ! R23   R(21,22)                1.086                                          !
 ! R24   R(23,24)                1.0129                                         !
 ! R25   R(23,25)                1.449                                          !
 ! R26   R(25,26)                1.0986                                         !
 ! R27   R(25,27)                1.5321                                         !
 ! R28   R(25,28)                1.5396                                         !
 ! R29   R(27,32)                1.2361                                         !
 ! R30   R(27,33)                1.3529                                         !
 ! R31   R(28,29)                1.0963                                         !
 ! R32   R(28,30)                1.0921                                         !
 ! R33   R(28,31)                1.0907                                         !
 ! R34   R(33,34)                1.0105                                         !
 ! R35   R(33,35)                1.4634                                         !
 ! R36   R(35,36)                1.0952                                         !
 ! R37   R(35,37)                1.5435                                         !
 ! R38   R(35,38)                1.5228                                         !
 ! R39   R(37,42)                1.2375                                         !
 ! R40   R(37,43)                1.3513                                         !
 ! R41   R(38,39)                1.0927                                         !
 ! R42   R(38,40)                1.0939                                         !
 ! R43   R(38,41)                1.0938                                         !
 ! R44   R(43,44)                1.0214                                         !
 ! R45   R(43,45)                1.4644                                         !
 ! R46   R(45,46)                1.0968                                         !
 ! R47   R(45,47)                1.5425                                         !
 ! R48   R(45,48)                1.5314                                         !
 ! R49   R(47,51)                1.2376                                         !
 ! R50   R(47,63)                1.3521                                         !
 ! R51   R(48,49)                1.0947                                         !
 ! R52   R(48,50)                1.0973                                         !
 ! R53   R(48,52)                1.5114                                         !
 ! R54   R(52,53)                1.4027                                         !
 ! R55   R(52,55)                1.3977                                         !
 ! R56   R(53,54)                1.088                                          !
 ! R57   R(53,57)                1.389                                          !
 ! R58   R(55,56)                1.0875                                         !
 ! R59   R(55,59)                1.3945                                         !
 ! R60   R(57,58)                1.0854                                         !
 ! R61   R(57,62)                1.4062                                         !
 ! R62   R(59,60)                1.0859                                         !
 ! R63   R(59,62)                1.4042                                         !
 ! R64   R(61,62)                1.3438                                         !
 ! R65   R(63,64)                1.0239                                         !
 ! R66   R(63,65)                1.4636                                         !
 ! R67   R(65,66)                1.0963                                         !
 ! R68   R(65,67)                1.5453                                         !
 ! R69   R(65,68)                1.5281                                         !
 ! R70   R(67,71)                1.2328                                         !
 ! R71   R(67,82)                1.3534                                         !
 ! R72   R(68,69)                1.0979                                         !
 ! R73   R(68,70)                1.0959                                         !
 ! R74   R(68,72)                1.5362                                         !
 ! R75   R(72,73)                1.0937                                         !
 ! R76   R(72,74)                1.5345                                         !
 ! R77   R(72,78)                1.533                                          !
 ! R78   R(74,75)                1.0965                                         !
 ! R79   R(74,76)                1.0986                                         !
 ! R80   R(74,77)                1.0966                                         !
 ! R81   R(78,79)                1.0966                                         !
 ! R82   R(78,80)                1.0954                                         !
 ! R83   R(78,81)                1.0976                                         !
 ! R84   R(82,83)                1.0238                                         !
 ! R85   R(82,84)                1.4493                                         !
 ! R86   R(84,85)                1.0954                                         !
 ! R87   R(84,86)                1.5353                                         !
 ! R88   R(84,87)                1.5436                                         !
 ! R89   R(86,90)                1.2397                                         !
 ! R90   R(86,97)                1.3473                                         !
 ! R91   R(87,88)                1.096                                          !
 ! R92   R(87,89)                1.0956                                         !
 ! R93   R(87,91)                1.5412                                         !
 ! R94   R(91,92)                1.0928                                         !
 ! R95   R(91,93)                1.092                                          !
 ! R96   R(91,94)                1.5105                                         !
 ! R97   R(94,95)                1.2228                                         !
 ! R98   R(94,96)                1.3398                                         !
 ! R99   R(96,122)               0.9774                                         !
 ! R100  R(97,98)                1.0234                                         !
 ! R101  R(97,99)                1.4559                                         !
 ! R102  R(99,100)               1.0981                                         !
 ! R103  R(99,101)               1.5303                                         !
 ! R104  R(99,102)               1.5374                                         !
 ! R105  R(101,105)              1.207                                          !
 ! R106  R(101,121)              1.3542                                         !
 ! R107  R(102,103)              1.0925                                         !
 ! R108  R(102,104)              1.0975                                         !
 ! R109  R(102,106)              1.536                                          !
 ! R110  R(106,107)              1.0964                                         !
 ! R111  R(106,108)              1.097                                          !
 ! R112  R(106,109)              1.5329                                         !
 ! R113  R(109,110)              1.0935                                         !
 ! R114  R(109,111)              1.0887                                         !
 ! R115  R(109,112)              1.4715                                         !
 ! R116  R(112,113)              1.0116                                         !
 ! R117  R(112,120)              1.3349                                         !
 ! R118  R(114,115)              1.0102                                         !
 ! R119  R(114,116)              1.0325                                         !
 ! R120  R(114,120)              1.3273                                         !
 ! R121  R(117,118)              1.0101                                         !
 ! R122  R(117,119)              1.0108                                         !
 ! R123  R(117,120)              1.3591                                         !
 ! R124  R(121,123)              0.9767                                         !
 ! A1    A(2,1,3)              118.7655                                         !
 ! A2    A(2,1,4)              101.7017                                         !
 ! A3    A(2,1,5)              111.3754                                         !
 ! A4    A(3,1,4)              106.9709                                         !
 ! A5    A(3,1,5)              109.5382                                         !
 ! A6    A(4,1,5)              107.594                                          !
 ! A7    A(1,5,6)              107.4706                                         !
 ! A8    A(1,5,7)              106.049                                          !
 ! A9    A(1,5,8)              114.1004                                         !
 ! A10   A(6,5,7)              110.569                                          !
 ! A11   A(6,5,8)              108.7788                                         !
 ! A12   A(7,5,8)              109.8287                                         !
 ! A13   A(5,7,11)             120.4189                                         !
 ! A14   A(5,7,23)             115.6213                                         !
 ! A15   A(11,7,23)            123.9578                                         !
 ! A16   A(5,8,9)              108.3039                                         !
 ! A17   A(5,8,10)             107.8262                                         !
 ! A18   A(5,8,12)             111.6396                                         !
 ! A19   A(9,8,10)             107.1378                                         !
 ! A20   A(9,8,12)             110.4736                                         !
 ! A21   A(10,8,12)            111.2878                                         !
 ! A22   A(8,12,13)            120.5601                                         !
 ! A23   A(8,12,15)            120.8458                                         !
 ! A24   A(13,12,15)           118.5117                                         !
 ! A25   A(12,13,14)           119.3447                                         !
 ! A26   A(12,13,17)           120.8447                                         !
 ! A27   A(14,13,17)           119.8085                                         !
 ! A28   A(12,15,16)           119.3445                                         !
 ! A29   A(12,15,19)           120.8286                                         !
 ! A30   A(16,15,19)           119.819                                          !
 ! A31   A(13,17,18)           119.8442                                         !
 ! A32   A(13,17,21)           120.1035                                         !
 ! A33   A(18,17,21)           120.0517                                         !
 ! A34   A(15,19,20)           119.7896                                         !
 ! A35   A(15,19,21)           120.0581                                         !
 ! A36   A(20,19,21)           120.151                                          !
 ! A37   A(17,21,19)           119.6531                                         !
 ! A38   A(17,21,22)           120.1615                                         !
 ! A39   A(19,21,22)           120.1842                                         !
 ! A40   A(7,23,24)            121.2623                                         !
 ! A41   A(7,23,25)            122.962                                          !
 ! A42   A(24,23,25)           115.5374                                         !
 ! A43   A(23,25,26)           108.4858                                         !
 ! A44   A(23,25,27)           106.2687                                         !
 ! A45   A(23,25,28)           112.5662                                         !
 ! A46   A(26,25,27)           108.3713                                         !
 ! A47   A(26,25,28)           108.6228                                         !
 ! A48   A(27,25,28)           112.38                                           !
 ! A49   A(25,27,32)           121.9543                                         !
 ! A50   A(25,27,33)           116.1436                                         !
 ! A51   A(32,27,33)           121.9019                                         !
 ! A52   A(25,28,29)           111.3908                                         !
 ! A53   A(25,28,30)           110.6572                                         !
 ! A54   A(25,28,31)           108.4913                                         !
 ! A55   A(29,28,30)           109.2307                                         !
 ! A56   A(29,28,31)           107.7264                                         !
 ! A57   A(30,28,31)           109.2742                                         !
 ! A58   A(27,33,34)           119.6331                                         !
 ! A59   A(27,33,35)           122.313                                          !
 ! A60   A(34,33,35)           118.0369                                         !
 ! A61   A(33,35,36)           106.2963                                         !
 ! A62   A(33,35,37)           110.6397                                         !
 ! A63   A(33,35,38)           110.1727                                         !
 ! A64   A(36,35,37)           107.7406                                         !
 ! A65   A(36,35,38)           110.5583                                         !
 ! A66   A(37,35,38)           111.289                                          !
 ! A67   A(35,37,42)           121.4824                                         !
 ! A68   A(35,37,43)           114.8938                                         !
 ! A69   A(42,37,43)           123.618                                          !
 ! A70   A(35,38,39)           110.2012                                         !
 ! A71   A(35,38,40)           110.8046                                         !
 ! A72   A(35,38,41)           110.1397                                         !
 ! A73   A(39,38,40)           107.2475                                         !
 ! A74   A(39,38,41)           108.7649                                         !
 ! A75   A(40,38,41)           109.6161                                         !
 ! A76   A(37,43,44)           116.9472                                         !
 ! A77   A(37,43,45)           122.0449                                         !
 ! A78   A(44,43,45)           118.6643                                         !
 ! A79   A(43,45,46)           107.2271                                         !
 ! A80   A(43,45,47)           110.1411                                         !
 ! A81   A(43,45,48)           111.1201                                         !
 ! A82   A(46,45,47)           107.2552                                         !
 ! A83   A(46,45,48)           110.3208                                         !
 ! A84   A(47,45,48)           110.6457                                         !
 ! A85   A(45,47,51)           122.4585                                         !
 ! A86   A(45,47,63)           114.2367                                         !
 ! A87   A(51,47,63)           123.3006                                         !
 ! A88   A(45,48,49)           108.5684                                         !
 ! A89   A(45,48,50)           106.8565                                         !
 ! A90   A(45,48,52)           114.2069                                         !
 ! A91   A(49,48,50)           105.4657                                         !
 ! A92   A(49,48,52)           110.3865                                         !
 ! A93   A(50,48,52)           110.927                                          !
 ! A94   A(48,52,53)           121.7126                                         !
 ! A95   A(48,52,55)           120.6293                                         !
 ! A96   A(53,52,55)           117.623                                          !
 ! A97   A(52,53,54)           119.8445                                         !
 ! A98   A(52,53,57)           121.4943                                         !
 ! A99   A(54,53,57)           118.6612                                         !
 ! A100  A(52,55,56)           119.3002                                         !
 ! A101  A(52,55,59)           121.661                                          !
 ! A102  A(56,55,59)           119.036                                          !
 ! A103  A(53,57,58)           121.2508                                         !
 ! A104  A(53,57,62)           120.4896                                         !
 ! A105  A(58,57,62)           118.259                                          !
 ! A106  A(55,59,60)           120.1531                                         !
 ! A107  A(55,59,62)           120.2291                                         !
 ! A108  A(60,59,62)           119.6147                                         !
 ! A109  A(57,62,59)           118.4549                                         !
 ! A110  A(57,62,61)           117.8131                                         !
 ! A111  A(59,62,61)           123.7306                                         !
 ! A112  A(47,63,64)           116.2886                                         !
 ! A113  A(47,63,65)           122.6452                                         !
 ! A114  A(64,63,65)           118.736                                          !
 ! A115  A(63,65,66)           106.9525                                         !
 ! A116  A(63,65,67)           108.8834                                         !
 ! A117  A(63,65,68)           108.9473                                         !
 ! A118  A(66,65,67)           107.7085                                         !
 ! A119  A(66,65,68)           110.9321                                         !
 ! A120  A(67,65,68)           113.2106                                         !
 ! A121  A(65,67,71)           123.6656                                         !
 ! A122  A(65,67,82)           113.0244                                         !
 ! A123  A(71,67,82)           123.2877                                         !
 ! A124  A(65,68,69)           107.5966                                         !
 ! A125  A(65,68,70)           108.3204                                         !
 ! A126  A(65,68,72)           115.3026                                         !
 ! A127  A(69,68,70)           107.1165                                         !
 ! A128  A(69,68,72)           109.6184                                         !
 ! A129  A(70,68,72)           108.5849                                         !
 ! A130  A(68,72,73)           106.3905                                         !
 ! A131  A(68,72,74)           112.5062                                         !
 ! A132  A(68,72,78)           109.8588                                         !
 ! A133  A(73,72,74)           109.0292                                         !
 ! A134  A(73,72,78)           108.2197                                         !
 ! A135  A(74,72,78)           110.6569                                         !
 ! A136  A(72,74,75)           111.1923                                         !
 ! A137  A(72,74,76)           111.1928                                         !
 ! A138  A(72,74,77)           112.535                                          !
 ! A139  A(75,74,76)           106.4599                                         !
 ! A140  A(75,74,77)           107.1424                                         !
 ! A141  A(76,74,77)           108.0289                                         !
 ! A142  A(72,78,79)           111.1316                                         !
 ! A143  A(72,78,80)           111.2421                                         !
 ! A144  A(72,78,81)           111.3447                                         !
 ! A145  A(79,78,80)           107.7454                                         !
 ! A146  A(79,78,81)           107.2004                                         !
 ! A147  A(80,78,81)           107.9922                                         !
 ! A148  A(67,82,83)           115.9441                                         !
 ! A149  A(67,82,84)           121.3891                                         !
 ! A150  A(83,82,84)           118.1227                                         !
 ! A151  A(82,84,85)           109.0455                                         !
 ! A152  A(82,84,86)           111.5562                                         !
 ! A153  A(82,84,87)           107.4036                                         !
 ! A154  A(85,84,86)           107.3263                                         !
 ! A155  A(85,84,87)           109.7092                                         !
 ! A156  A(86,84,87)           111.7765                                         !
 ! A157  A(84,86,90)           122.6336                                         !
 ! A158  A(84,86,97)           114.5657                                         !
 ! A159  A(90,86,97)           122.7941                                         !
 ! A160  A(84,87,88)           107.2785                                         !
 ! A161  A(84,87,89)           108.4636                                         !
 ! A162  A(84,87,91)           116.2225                                         !
 ! A163  A(88,87,89)           106.8648                                         !
 ! A164  A(88,87,91)           109.5483                                         !
 ! A165  A(89,87,91)           108.0857                                         !
 ! A166  A(87,91,92)           110.5674                                         !
 ! A167  A(87,91,93)           108.7246                                         !
 ! A168  A(87,91,94)           112.692                                          !
 ! A169  A(92,91,93)           108.3783                                         !
 ! A170  A(92,91,94)           107.0788                                         !
 ! A171  A(93,91,94)           109.3054                                         !
 ! A172  A(91,94,95)           124.9536                                         !
 ! A173  A(91,94,96)           113.0734                                         !
 ! A174  A(95,94,96)           121.9639                                         !
 ! A175  A(94,96,122)          107.4155                                         !
 ! A176  A(86,97,98)           117.6261                                         !
 ! A177  A(86,97,99)           122.0469                                         !
 ! A178  A(98,97,99)           119.2823                                         !
 ! A179  A(97,99,100)          106.0602                                         !
 ! A180  A(97,99,101)          111.192                                          !
 ! A181  A(97,99,102)          114.6271                                         !
 ! A182  A(100,99,101)         105.8883                                         !
 ! A183  A(100,99,102)         108.4453                                         !
 ! A184  A(101,99,102)         110.1399                                         !
 ! A185  A(99,101,105)         124.4378                                         !
 ! A186  A(99,101,121)         112.6164                                         !
 ! A187  A(105,101,121)        122.9016                                         !
 ! A188  A(99,102,103)         106.635                                          !
 ! A189  A(99,102,104)         109.2977                                         !
 ! A190  A(99,102,106)         114.3704                                         !
 ! A191  A(103,102,104)        106.3406                                         !
 ! A192  A(103,102,106)        108.9593                                         !
 ! A193  A(104,102,106)        110.8479                                         !
 ! A194  A(102,106,107)        109.5162                                         !
 ! A195  A(102,106,108)        108.6107                                         !
 ! A196  A(102,106,109)        114.5251                                         !
 ! A197  A(107,106,108)        106.4466                                         !
 ! A198  A(107,106,109)        109.5194                                         !
 ! A199  A(108,106,109)        107.8995                                         !
 ! A200  A(106,109,110)        110.5152                                         !
 ! A201  A(106,109,111)        114.5153                                         !
 ! A202  A(106,109,112)        111.5744                                         !
 ! A203  A(110,109,111)        106.0225                                         !
 ! A204  A(110,109,112)        106.199                                          !
 ! A205  A(111,109,112)        107.5337                                         !
 ! A206  A(109,112,113)        116.9518                                         !
 ! A207  A(109,112,120)        125.3992                                         !
 ! A208  A(113,112,120)        115.9038                                         !
 ! A209  A(115,114,116)        115.3069                                         !
 ! A210  A(115,114,120)        118.9149                                         !
 ! A211  A(116,114,120)        124.1214                                         !
 ! A212  A(118,117,119)        114.7626                                         !
 ! A213  A(118,117,120)        118.6182                                         !
 ! A214  A(119,117,120)        118.4988                                         !
 ! A215  A(112,120,114)        122.5363                                         !
 ! A216  A(112,120,117)        117.8482                                         !
 ! A217  A(114,120,117)        119.5707                                         !
 ! A218  A(101,121,123)        106.2132                                         !
 ! D1    D(2,1,5,6)             62.3868                                         !
 ! D2    D(2,1,5,7)            -55.8947                                         !
 ! D3    D(2,1,5,8)           -176.9159                                         !
 ! D4    D(3,1,5,6)            -71.0255                                         !
 ! D5    D(3,1,5,7)            170.693                                          !
 ! D6    D(3,1,5,8)             49.6717                                         !
 ! D7    D(4,1,5,6)            173.0333                                         !
 ! D8    D(4,1,5,7)             54.7517                                         !
 ! D9    D(4,1,5,8)            -66.2695                                         !
 ! D10   D(1,5,7,11)           -65.5738                                         !
 ! D11   D(1,5,7,23)           113.9368                                         !
 ! D12   D(6,5,7,11)           178.2193                                         !
 ! D13   D(6,5,7,23)            -2.2702                                         !
 ! D14   D(8,5,7,11)            58.1651                                         !
 ! D15   D(8,5,7,23)          -122.3244                                         !
 ! D16   D(1,5,8,9)           -179.9319                                         !
 ! D17   D(1,5,8,10)            64.4481                                         !
 ! D18   D(1,5,8,12)           -58.0895                                         !
 ! D19   D(6,5,8,9)            -59.9666                                         !
 ! D20   D(6,5,8,10)          -175.5865                                         !
 ! D21   D(6,5,8,12)            61.8759                                         !
 ! D22   D(7,5,8,9)             61.1702                                         !
 ! D23   D(7,5,8,10)           -54.4498                                         !
 ! D24   D(7,5,8,12)          -176.9874                                         !
 ! D25   D(5,7,23,24)           -2.8014                                         !
 ! D26   D(5,7,23,25)         -176.94                                           !
 ! D27   D(11,7,23,24)         176.6897                                         !
 ! D28   D(11,7,23,25)           2.5511                                         !
 ! D29   D(5,8,12,13)          -81.0448                                         !
 ! D30   D(5,8,12,15)           95.6045                                         !
 ! D31   D(9,8,12,13)           39.5373                                         !
 ! D32   D(9,8,12,15)         -143.8134                                         !
 ! D33   D(10,8,12,13)         158.4218                                         !
 ! D34   D(10,8,12,15)         -24.9288                                         !
 ! D35   D(8,12,13,14)          -3.6633                                         !
 ! D36   D(8,12,13,17)         176.8649                                         !
 ! D37   D(15,12,13,14)        179.6104                                         !
 ! D38   D(15,12,13,17)          0.1385                                         !
 ! D39   D(8,12,15,16)           4.2641                                         !
 ! D40   D(8,12,15,19)        -176.7595                                         !
 ! D41   D(13,12,15,16)       -179.0192                                         !
 ! D42   D(13,12,15,19)         -0.0429                                         !
 ! D43   D(12,13,17,18)        179.4925                                         !
 ! D44   D(12,13,17,21)         -0.2192                                         !
 ! D45   D(14,13,17,18)          0.0231                                         !
 ! D46   D(14,13,17,21)       -179.6886                                         !
 ! D47   D(12,15,19,20)       -179.5601                                         !
 ! D48   D(12,15,19,21)          0.0278                                         !
 ! D49   D(16,15,19,20)         -0.5885                                         !
 ! D50   D(16,15,19,21)        178.9993                                         !
 ! D51   D(13,17,21,19)          0.2008                                         !
 ! D52   D(13,17,21,22)        179.8234                                         !
 ! D53   D(18,17,21,19)       -179.5103                                         !
 ! D54   D(18,17,21,22)          0.1123                                         !
 ! D55   D(15,19,21,17)         -0.106                                          !
 ! D56   D(15,19,21,22)       -179.7285                                         !
 ! D57   D(20,19,21,17)        179.4804                                         !
 ! D58   D(20,19,21,22)         -0.1421                                         !
 ! D59   D(7,23,25,26)         -55.7588                                         !
 ! D60   D(7,23,25,27)        -172.1019                                         !
 ! D61   D(7,23,25,28)          64.477                                          !
 ! D62   D(24,23,25,26)        129.793                                          !
 ! D63   D(24,23,25,27)         13.4499                                         !
 ! D64   D(24,23,25,28)       -109.9712                                         !
 ! D65   D(23,25,27,32)          4.5888                                         !
 ! D66   D(23,25,27,33)       -175.5992                                         !
 ! D67   D(26,25,27,32)       -111.8313                                         !
 ! D68   D(26,25,27,33)         67.9807                                         !
 ! D69   D(28,25,27,32)        128.1264                                         !
 ! D70   D(28,25,27,33)        -52.0616                                         !
 ! D71   D(23,25,28,29)       -170.907                                          !
 ! D72   D(23,25,28,30)         67.3758                                         !
 ! D73   D(23,25,28,31)        -52.4957                                         !
 ! D74   D(26,25,28,29)        -50.7502                                         !
 ! D75   D(26,25,28,30)       -172.4674                                         !
 ! D76   D(26,25,28,31)         67.661                                          !
 ! D77   D(27,25,28,29)         69.1462                                         !
 ! D78   D(27,25,28,30)        -52.571                                          !
 ! D79   D(27,25,28,31)       -172.4425                                         !
 ! D80   D(25,27,33,34)          5.8114                                         !
 ! D81   D(25,27,33,35)       -175.7139                                         !
 ! D82   D(32,27,33,34)       -174.3765                                         !
 ! D83   D(32,27,33,35)          4.0982                                         !
 ! D84   D(27,33,35,36)         35.013                                          !
 ! D85   D(27,33,35,37)        -81.6893                                         !
 ! D86   D(27,33,35,38)        154.8262                                         !
 ! D87   D(34,33,35,36)       -146.489                                          !
 ! D88   D(34,33,35,37)         96.8087                                         !
 ! D89   D(34,33,35,38)        -26.6758                                         !
 ! D90   D(33,35,37,42)       -108.3911                                         !
 ! D91   D(33,35,37,43)         72.4564                                         !
 ! D92   D(36,35,37,42)        135.803                                          !
 ! D93   D(36,35,37,43)        -43.3495                                         !
 ! D94   D(38,35,37,42)         14.4468                                         !
 ! D95   D(38,35,37,43)       -164.7057                                         !
 ! D96   D(33,35,38,39)       -177.3909                                         !
 ! D97   D(33,35,38,40)         64.0688                                         !
 ! D98   D(33,35,38,41)        -57.3886                                         !
 ! D99   D(36,35,38,39)        -60.1933                                         !
 ! D100  D(36,35,38,40)       -178.7336                                         !
 ! D101  D(36,35,38,41)         59.8091                                         !
 ! D102  D(37,35,38,39)         59.5034                                         !
 ! D103  D(37,35,38,40)        -59.0369                                         !
 ! D104  D(37,35,38,41)        179.5057                                         !
 ! D105  D(35,37,43,44)         -9.5806                                         !
 ! D106  D(35,37,43,45)       -171.953                                          !
 ! D107  D(42,37,43,44)        171.2873                                         !
 ! D108  D(42,37,43,45)          8.9149                                         !
 ! D109  D(37,43,45,46)         35.486                                          !
 ! D110  D(37,43,45,47)        -80.9061                                         !
 ! D111  D(37,43,45,48)        156.1192                                         !
 ! D112  D(44,43,45,46)       -126.5961                                         !
 ! D113  D(44,43,45,47)        117.0118                                         !
 ! D114  D(44,43,45,48)         -5.9629                                         !
 ! D115  D(43,45,47,51)       -109.8914                                         !
 ! D116  D(43,45,47,63)         70.8344                                         !
 ! D117  D(46,45,47,51)        133.7341                                         !
 ! D118  D(46,45,47,63)        -45.5401                                         !
 ! D119  D(48,45,47,51)         13.3608                                         !
 ! D120  D(48,45,47,63)       -165.9134                                         !
 ! D121  D(43,45,48,49)         65.7399                                         !
 ! D122  D(43,45,48,50)        179.0506                                         !
 ! D123  D(43,45,48,52)        -57.8968                                         !
 ! D124  D(46,45,48,49)       -175.4699                                         !
 ! D125  D(46,45,48,50)        -62.1592                                         !
 ! D126  D(46,45,48,52)         60.8933                                         !
 ! D127  D(47,45,48,49)        -56.944                                          !
 ! D128  D(47,45,48,50)         56.3667                                         !
 ! D129  D(47,45,48,52)        179.4193                                         !
 ! D130  D(45,47,63,64)         -7.2554                                         !
 ! D131  D(45,47,63,65)       -169.6768                                         !
 ! D132  D(51,47,63,64)        173.4773                                         !
 ! D133  D(51,47,63,65)         11.0559                                         !
 ! D134  D(45,48,52,53)        -52.6726                                         !
 ! D135  D(45,48,52,55)        129.5357                                         !
 ! D136  D(49,48,52,53)       -175.3245                                         !
 ! D137  D(49,48,52,55)          6.8837                                         !
 ! D138  D(50,48,52,53)         68.1444                                         !
 ! D139  D(50,48,52,55)       -109.6473                                         !
 ! D140  D(48,52,53,54)          0.9738                                         !
 ! D141  D(48,52,53,57)       -179.0779                                         !
 ! D142  D(55,52,53,54)        178.8292                                         !
 ! D143  D(55,52,53,57)         -1.2225                                         !
 ! D144  D(48,52,55,56)         -1.1622                                         !
 ! D145  D(48,52,55,59)        178.2194                                         !
 ! D146  D(53,52,55,56)       -179.042                                          !
 ! D147  D(53,52,55,59)          0.3396                                         !
 ! D148  D(52,53,57,58)       -179.5181                                         !
 ! D149  D(52,53,57,62)          0.2008                                         !
 ! D150  D(54,53,57,58)          0.4308                                         !
 ! D151  D(54,53,57,62)       -179.8503                                         !
 ! D152  D(52,55,59,60)       -177.7923                                         !
 ! D153  D(52,55,59,62)          1.565                                          !
 ! D154  D(56,55,59,60)          1.5908                                         !
 ! D155  D(56,55,59,62)       -179.0518                                         !
 ! D156  D(53,57,62,59)          1.6943                                         !
 ! D157  D(53,57,62,61)       -177.879                                          !
 ! D158  D(58,57,62,59)       -178.5785                                         !
 ! D159  D(58,57,62,61)          1.8481                                         !
 ! D160  D(55,59,62,57)         -2.5549                                         !
 ! D161  D(55,59,62,61)        176.9913                                         !
 ! D162  D(60,59,62,57)        176.8059                                         !
 ! D163  D(60,59,62,61)         -3.6478                                         !
 ! D164  D(47,63,65,66)         31.7527                                         !
 ! D165  D(47,63,65,67)        -84.3733                                         !
 ! D166  D(47,63,65,68)        151.7217                                         !
 ! D167  D(64,63,65,66)       -130.2599                                         !
 ! D168  D(64,63,65,67)        113.6142                                         !
 ! D169  D(64,63,65,68)        -10.2908                                         !
 ! D170  D(63,65,67,71)       -108.8605                                         !
 ! D171  D(63,65,67,82)         69.4689                                         !
 ! D172  D(66,65,67,71)        135.4997                                         !
 ! D173  D(66,65,67,82)        -46.1708                                         !
 ! D174  D(68,65,67,71)         12.4763                                         !
 ! D175  D(68,65,67,82)       -169.1942                                         !
 ! D176  D(63,65,68,69)        -52.9457                                         !
 ! D177  D(63,65,68,70)         62.5386                                         !
 ! D178  D(63,65,68,72)       -175.5987                                         !
 ! D179  D(66,65,68,69)         64.5304                                         !
 ! D180  D(66,65,68,70)       -179.9854                                         !
 ! D181  D(66,65,68,72)        -58.1226                                         !
 ! D182  D(67,65,68,69)       -174.2465                                         !
 ! D183  D(67,65,68,70)        -58.7623                                         !
 ! D184  D(67,65,68,72)         63.1005                                         !
 ! D185  D(65,67,82,83)         -6.1903                                         !
 ! D186  D(65,67,82,84)       -161.8211                                         !
 ! D187  D(71,67,82,83)        172.1465                                         !
 ! D188  D(71,67,82,84)         16.5156                                         !
 ! D189  D(65,68,72,73)        -63.1771                                         !
 ! D190  D(65,68,72,74)         56.1472                                         !
 ! D191  D(65,68,72,78)        179.9027                                         !
 ! D192  D(69,68,72,73)        175.2546                                         !
 ! D193  D(69,68,72,74)        -65.421                                          !
 ! D194  D(69,68,72,78)         58.3345                                         !
 ! D195  D(70,68,72,73)         58.5433                                         !
 ! D196  D(70,68,72,74)        177.8676                                         !
 ! D197  D(70,68,72,78)        -58.3769                                         !
 ! D198  D(68,72,74,75)         57.3856                                         !
 ! D199  D(68,72,74,76)        175.8277                                         !
 ! D200  D(68,72,74,77)        -62.8221                                         !
 ! D201  D(73,72,74,75)        175.1611                                         !
 ! D202  D(73,72,74,76)        -66.3969                                         !
 ! D203  D(73,72,74,77)         54.9534                                         !
 ! D204  D(78,72,74,75)        -65.9255                                         !
 ! D205  D(78,72,74,76)         52.5166                                         !
 ! D206  D(78,72,74,77)        173.8669                                         !
 ! D207  D(68,72,78,79)        -63.7254                                         !
 ! D208  D(68,72,78,80)         56.329                                          !
 ! D209  D(68,72,78,81)        176.8406                                         !
 ! D210  D(73,72,78,79)       -179.4947                                         !
 ! D211  D(73,72,78,80)        -59.4403                                         !
 ! D212  D(73,72,78,81)         61.0714                                         !
 ! D213  D(74,72,78,79)         61.1028                                         !
 ! D214  D(74,72,78,80)       -178.8428                                         !
 ! D215  D(74,72,78,81)        -58.3311                                         !
 ! D216  D(67,82,84,85)         45.0867                                         !
 ! D217  D(67,82,84,86)        -73.281                                          !
 ! D218  D(67,82,84,87)        163.9094                                         !
 ! D219  D(83,82,84,85)       -110.0346                                         !
 ! D220  D(83,82,84,86)        131.5977                                         !
 ! D221  D(83,82,84,87)          8.7881                                         !
 ! D222  D(82,84,86,90)        -28.339                                          !
 ! D223  D(82,84,86,97)        152.5659                                         !
 ! D224  D(85,84,86,90)       -147.7307                                         !
 ! D225  D(85,84,86,97)         33.1742                                         !
 ! D226  D(87,84,86,90)         91.9343                                         !
 ! D227  D(87,84,86,97)        -87.1607                                         !
 ! D228  D(82,84,87,88)        -52.8103                                         !
 ! D229  D(82,84,87,89)         62.2879                                         !
 ! D230  D(82,84,87,91)       -175.7546                                         !
 ! D231  D(85,84,87,88)         65.5844                                         !
 ! D232  D(85,84,87,89)       -179.3174                                         !
 ! D233  D(85,84,87,91)        -57.3599                                         !
 ! D234  D(86,84,87,88)       -175.4839                                         !
 ! D235  D(86,84,87,89)        -60.3857                                         !
 ! D236  D(86,84,87,91)         61.5719                                         !
 ! D237  D(84,86,97,98)          3.5291                                         !
 ! D238  D(84,86,97,99)        171.7474                                         !
 ! D239  D(90,86,97,98)       -175.5643                                         !
 ! D240  D(90,86,97,99)         -7.346                                          !
 ! D241  D(84,87,91,92)        -63.9692                                         !
 ! D242  D(84,87,91,93)        177.1649                                         !
 ! D243  D(84,87,91,94)         55.8258                                         !
 ! D244  D(88,87,91,92)        174.2798                                         !
 ! D245  D(88,87,91,93)         55.4139                                         !
 ! D246  D(88,87,91,94)        -65.9253                                         !
 ! D247  D(89,87,91,92)         58.1876                                         !
 ! D248  D(89,87,91,93)        -60.6783                                         !
 ! D249  D(89,87,91,94)        177.9826                                         !
 ! D250  D(87,91,94,95)        -71.4478                                         !
 ! D251  D(87,91,94,96)        107.4682                                         !
 ! D252  D(92,91,94,95)         50.3431                                         !
 ! D253  D(92,91,94,96)       -130.7409                                         !
 ! D254  D(93,91,94,95)        167.5439                                         !
 ! D255  D(93,91,94,96)        -13.5401                                         !
 ! D256  D(91,94,96,122)      -179.3785                                         !
 ! D257  D(95,94,96,122)        -0.4258                                         !
 ! D258  D(86,97,99,100)       -19.5177                                         !
 ! D259  D(86,97,99,101)      -134.1731                                         !
 ! D260  D(86,97,99,102)       100.0968                                         !
 ! D261  D(98,97,99,100)       148.5118                                         !
 ! D262  D(98,97,99,101)        33.8565                                         !
 ! D263  D(98,97,99,102)       -91.8737                                         !
 ! D264  D(97,99,101,105)     -151.8344                                         !
 ! D265  D(97,99,101,121)       30.5283                                         !
 ! D266  D(100,99,101,105)      93.4033                                         !
 ! D267  D(100,99,101,121)     -84.234                                          !
 ! D268  D(102,99,101,105)     -23.6473                                         !
 ! D269  D(102,99,101,121)     158.7154                                         !
 ! D270  D(97,99,102,103)      165.8704                                         !
 ! D271  D(97,99,102,104)       51.3049                                         !
 ! D272  D(97,99,102,106)      -73.6252                                         !
 ! D273  D(100,99,102,103)     -75.8545                                         !
 ! D274  D(100,99,102,104)     169.5799                                         !
 ! D275  D(100,99,102,106)      44.6499                                         !
 ! D276  D(101,99,102,103)      39.5941                                         !
 ! D277  D(101,99,102,104)     -74.9714                                         !
 ! D278  D(101,99,102,106)     160.0985                                         !
 ! D279  D(99,101,121,123)     177.8415                                         !
 ! D280  D(105,101,121,123)      0.1624                                         !
 ! D281  D(99,102,106,107)     -39.1626                                         !
 ! D282  D(99,102,106,108)    -155.0311                                         !
 ! D283  D(99,102,106,109)      84.2978                                         !
 ! D284  D(103,102,106,107)     80.0417                                         !
 ! D285  D(103,102,106,108)    -35.8268                                         !
 ! D286  D(103,102,106,109)   -156.4978                                         !
 ! D287  D(104,102,106,107)   -163.269                                          !
 ! D288  D(104,102,106,108)     80.8624                                         !
 ! D289  D(104,102,106,109)    -39.8086                                         !
 ! D290  D(102,106,109,110)     62.1319                                         !
 ! D291  D(102,106,109,111)    -57.5083                                         !
 ! D292  D(102,106,109,112)   -179.9465                                         !
 ! D293  D(107,106,109,110)   -174.4094                                         !
 ! D294  D(107,106,109,111)     65.9504                                         !
 ! D295  D(107,106,109,112)    -56.4877                                         !
 ! D296  D(108,106,109,110)    -58.9316                                         !
 ! D297  D(108,106,109,111)   -178.5719                                         !
 ! D298  D(108,106,109,112)     58.99                                           !
 ! D299  D(106,109,112,113)    -81.5566                                         !
 ! D300  D(106,109,112,120)     82.7189                                         !
 ! D301  D(110,109,112,113)     38.9282                                         !
 ! D302  D(110,109,112,120)   -156.7964                                         !
 ! D303  D(111,109,112,113)    152.0828                                         !
 ! D304  D(111,109,112,120)    -43.6417                                         !
 ! D305  D(109,112,120,114)     -0.6198                                         !
 ! D306  D(109,112,120,117)   -178.1755                                         !
 ! D307  D(113,112,120,114)    163.8016                                         !
 ! D308  D(113,112,120,117)    -13.7541                                         !
 ! D309  D(115,114,120,112)    164.7654                                         !
 ! D310  D(115,114,120,117)    -17.7195                                         !
 ! D311  D(116,114,120,112)      0.1482                                         !
 ! D312  D(116,114,120,117)    177.6632                                         !
 ! D313  D(118,117,120,112)   -175.8892                                         !
 ! D314  D(118,117,120,114)      6.4801                                         !
 ! D315  D(119,117,120,112)    -28.8356                                         !
 ! D316  D(119,117,120,114)    153.5337                                         !
 --------------------------------------------------------------------------------
 Symmetry turned off by external request.
 Stoichiometry    C41H61N10O11(1+)
 Framework group  C1[X(C41H61N10O11)]
 Deg. of freedom   363
 Full point group                 C1      NOp   1
                          Input orientation:                          
 ---------------------------------------------------------------------
 Center     Atomic      Atomic             Coordinates (Angstroms)
 Number     Number       Type             X           Y           Z
 ---------------------------------------------------------------------
      1          7           0       -9.225717    1.489892    2.653744
      2          1           0       -8.302666    0.620407    1.419786
      3          1           0       -9.827759    2.261275    2.364028
      4          1           0       -9.836490    0.753491    3.012950
      5          6           0       -8.359192    1.930226    3.762115
      6          1           0       -7.623067    2.626918    3.347147
      7          6           0       -7.669127    0.668079    4.287111
      8          6           0       -9.114906    2.632265    4.913658
      9          1           0       -8.384707    2.919060    5.680578
     10          1           0       -9.789050    1.899063    5.368203
     11          8           0       -8.325369   -0.223284    4.822726
     12          6           0       -9.871026    3.842940    4.426111
     13          6           0       -9.211829    5.064374    4.232416
     14          1           0       -8.159281    5.149518    4.494047
     15          6           0      -11.228462    3.755136    4.091007
     16          1           0      -11.757349    2.818435    4.250820
     17          6           0       -9.890118    6.169170    3.720772
     18          1           0       -9.365199    7.110521    3.584939
     19          6           0      -11.911284    4.858960    3.576297
     20          1           0      -12.965535    4.774063    3.328877
     21          6           0      -11.243016    6.068569    3.388946
     22          1           0      -11.773178    6.929626    2.992892
     23          7           0       -6.331484    0.616439    4.108137
     24          1           0       -5.838031    1.352289    3.617177
     25          6           0       -5.529371   -0.529919    4.484901
     26          1           0       -5.700308   -0.739874    5.549619
     27          6           0       -4.067361   -0.108773    4.304416
     28          6           0       -5.881051   -1.789700    3.672726
     29          1           0       -5.382552   -2.678328    4.077279
     30          1           0       -5.598375   -1.664195    2.625299
     31          1           0       -6.957329   -1.954074    3.737967
     32          8           0       -3.752943    1.043934    3.987517
     33          7           0       -3.139568   -1.070426    4.515753
     34          1           0       -3.435668   -2.020764    4.689591
     35          6           0       -1.703034   -0.794849    4.470796
     36          1           0       -1.570866    0.214125    4.875603
     37          6           0       -1.195948   -0.786888    3.013036
     38          6           0       -0.946448   -1.812595    5.313806
     39          1           0        0.121195   -1.579940    5.318095
     40          1           0       -1.057407   -2.819170    4.900038
     41          1           0       -1.314231   -1.796362    6.343747
     42          8           0       -0.485392   -1.698561    2.570949
     43          7           0       -1.572831    0.287671    2.285566
     44          1           0       -2.268300    0.908387    2.702989
     45          6           0       -1.328664    0.374641    0.844334
     46          1           0       -1.443373   -0.635972    0.433876
     47          6           0        0.125526    0.814494    0.577584
     48          6           0       -2.314974    1.335776    0.174589
     49          1           0       -2.121640    2.347610    0.544889
     50          1           0       -2.059949    1.360961   -0.892414
     51          8           0        0.409163    1.929546    0.121616
     52          6           0       -3.768040    0.970902    0.373859
     53          6           0       -4.254976   -0.309336    0.071396
     54          1           0       -3.575679   -1.072653   -0.302362
     55          6           0       -4.685581    1.922839    0.827031
     56          1           0       -4.340363    2.928677    1.054516
     57          6           0       -5.595079   -0.634149    0.238474
     58          1           0       -5.966174   -1.628376    0.010493
     59          6           0       -6.037680    1.619750    0.983522
     60          1           0       -6.735430    2.387951    1.303082
     61          8           0       -7.781853   -0.060662    0.898566
     62          6           0       -6.507220    0.323669    0.716054
     63          7           0        1.052248   -0.125690    0.869773
     64          1           0        0.709988   -0.969931    1.337286
     65          6           0        2.486965    0.162054    0.898600
     66          1           0        2.597658    1.203591    1.222364
     67          6           0        3.047675    0.054072   -0.537379
     68          6           0        3.164368   -0.790506    1.882827
     69          1           0        2.631245   -0.713605    2.839463
     70          1           0        3.028421   -1.815420    1.519287
     71          8           0        3.784183   -0.858941   -0.916591
     72          6           0        4.664276   -0.545446    2.107063
     73          1           0        5.152643   -0.718365    1.143814
     74          6           0        4.962736    0.886979    2.569328
     75          1           0        4.419683    1.127285    3.491095
     76          1           0        6.030186    1.017544    2.793882
     77          1           0        4.678870    1.637514    1.821948
     78          6           0        5.213713   -1.563796    3.112689
     79          1           0        4.747403   -1.438304    4.097196
     80          1           0        5.023746   -2.590572    2.781728
     81          1           0        6.296470   -1.446376    3.249045
     82          7           0        2.617828    1.047696   -1.349618
     83          1           0        1.913118    1.676236   -0.954103
     84          6           0        2.696451    0.930805   -2.792036
     85          1           0        2.342816   -0.062199   -3.089991
     86          6           0        4.141550    1.070358   -3.291344
     87          6           0        1.775552    2.013594   -3.393868
     88          1           0        0.789591    1.897236   -2.929493
     89          1           0        2.154147    2.996999   -3.093856
     90          8           0        4.996730    1.733591   -2.686577
     91          6           0        1.627246    2.005627   -4.927893
     92          1           0        2.585245    2.221508   -5.407341
     93          1           0        0.915620    2.782406   -5.215313
     94          6           0        1.154702    0.673525   -5.460747
     95          8           0        1.829195   -0.345791   -5.496616
     96          8           0       -0.116071    0.698404   -5.884488
     97          7           0        4.398641    0.429991   -4.448469
     98          1           0        3.617203   -0.036867   -4.916278
     99          6           0        5.658170    0.595569   -5.159730
    100          1           0        6.098481    1.528922   -4.784557
    101          6           0        5.423858    0.814682   -6.655991
    102          6           0        6.670327   -0.541162   -4.943336
    103          1           0        7.438910   -0.425986   -5.711235
    104          1           0        6.181270   -1.504193   -5.137957
    105          8           0        6.206476    0.506764   -7.521702
    106          6           0        7.341075   -0.538067   -3.561486
    107          1           0        7.557160    0.494105   -3.261546
    108          1           0        8.309299   -1.047500   -3.641175
    109          6           0        6.532402   -1.232842   -2.460129
    110          1           0        6.392440   -2.291159   -2.697140
    111          1           0        5.534854   -0.824843   -2.306497
    112          7           0        7.232531   -1.190967   -1.166593
    113          1           0        7.952505   -1.884634   -1.012258
    114          7           0        6.559150    0.960084   -0.559275
    115          1           0        6.387356    1.602315    0.201314
    116          1           0        6.009520    1.133391   -1.415934
    117          7           0        7.952678   -0.276533    0.825637
    118          1           0        7.901023    0.465345    1.509263
    119          1           0        8.107374   -1.197860    1.211559
    120          6           0        7.218438   -0.165150   -0.312580
    121          8           0        4.253019    1.444708   -6.912981
    122          1           0       -0.336994   -0.200065   -6.199689
    123          1           0        4.215713    1.566554   -7.881379
 ---------------------------------------------------------------------
 Rotational constants (GHZ):           0.0675864           0.0138833           0.0124030
 Standard basis: 6-31G(d) (6D, 7F)
  1052 basis functions,  1980 primitive gaussians,  1052 cartesian basis functions
   232 alpha electrons      232 beta electrons
       nuclear repulsion energy      9431.8682389810 Hartrees.
 NAtoms=  123 NActive=  123 NUniq=  123 SFac= 1.00D+00 NAtFMM=   60 NAOKFM=T Big=T
 Integral buffers will be    131072 words long.
 Raffenetti 2 integral format.
 Two-electron integral symmetry is turned off.
 Nuclear repulsion after empirical dispersion term =     9431.5796371614 Hartrees.
 One-electron integrals computed using PRISM.
 NBasis=  1052 RedAO= T EigKep=  4.16D-04  NBF=  1052
 NBsUse=  1052 1.00D-06 EigRej= -1.00D+00 NBFU=  1052
 Initial guess from the checkpoint file:  "conf-549.chk"
 B after Tr=     0.000000    0.000000    0.000000
         Rot=    1.000000    0.000000    0.000000    0.000000 Ang=   0.00 deg.
 Requested convergence on RMS density matrix=1.00D-08 within 128 cycles.
 Requested convergence on MAX density matrix=1.00D-06.
 Requested convergence on             energy=1.00D-06.
 No special actions if energy rises.
 SCF Done:  E(RB3LYP) =  -2974.37044747     A.U. after    1 cycles
            NFock=  1  Conv=0.77D-08     -V/T= 2.0093
 Hyperfine terms turned off by default for NAtoms > 100.

 **********************************************************************

            Population analysis using the SCF Density.

 **********************************************************************

 Alpha  occ. eigenvalues --  -19.29268 -19.29123 -19.24018 -19.23125 -19.22065
 Alpha  occ. eigenvalues --  -19.20828 -19.20474 -19.20294 -19.20158 -19.19365
 Alpha  occ. eigenvalues --  -19.16597 -14.50278 -14.50267 -14.48796 -14.45652
 Alpha  occ. eigenvalues --  -14.44633 -14.43750 -14.43716 -14.43471 -14.41393
 Alpha  occ. eigenvalues --  -14.39578 -10.46208 -10.41993 -10.41352 -10.38849
 Alpha  occ. eigenvalues --  -10.37231 -10.37011 -10.36900 -10.36644 -10.33781
 Alpha  occ. eigenvalues --  -10.33461 -10.32892 -10.32661 -10.31796 -10.31503
 Alpha  occ. eigenvalues --  -10.30976 -10.30199 -10.29565 -10.29223 -10.29094
 Alpha  occ. eigenvalues --  -10.28818 -10.28443 -10.28184 -10.28063 -10.27545
 Alpha  occ. eigenvalues --  -10.27111 -10.26343 -10.25718 -10.25668 -10.24539
 Alpha  occ. eigenvalues --  -10.24228 -10.24193 -10.24141 -10.24137 -10.23731
 Alpha  occ. eigenvalues --  -10.23727 -10.23707 -10.23670 -10.23653 -10.23497
 Alpha  occ. eigenvalues --  -10.23303 -10.23043  -1.20405  -1.19937  -1.14914
 Alpha  occ. eigenvalues --   -1.13858  -1.12652  -1.12349  -1.11799  -1.11219
 Alpha  occ. eigenvalues --   -1.11184  -1.10872  -1.08679  -1.08115  -1.04308
 Alpha  occ. eigenvalues --   -1.02891  -1.02406  -1.01450  -1.01099  -1.00710
 Alpha  occ. eigenvalues --   -0.99842  -0.98207  -0.96110  -0.90762  -0.90366
 Alpha  occ. eigenvalues --   -0.90274  -0.90198  -0.89469  -0.86766  -0.85890
 Alpha  occ. eigenvalues --   -0.84988  -0.83756  -0.83087  -0.81981  -0.81901
 Alpha  occ. eigenvalues --   -0.79859  -0.79613  -0.79122  -0.78585  -0.77978
 Alpha  occ. eigenvalues --   -0.77051  -0.76136  -0.75144  -0.73721  -0.73599
 Alpha  occ. eigenvalues --   -0.72582  -0.72093  -0.72053  -0.71298  -0.70091
 Alpha  occ. eigenvalues --   -0.69648  -0.68632  -0.68443  -0.67922  -0.67163
 Alpha  occ. eigenvalues --   -0.66825  -0.66497  -0.65821  -0.65380  -0.65248
 Alpha  occ. eigenvalues --   -0.64316  -0.63825  -0.63542  -0.63529  -0.62772
 Alpha  occ. eigenvalues --   -0.62771  -0.62494  -0.61033  -0.60859  -0.60462
 Alpha  occ. eigenvalues --   -0.59464  -0.59358  -0.58798  -0.58318  -0.58211
 Alpha  occ. eigenvalues --   -0.57920  -0.57781  -0.57625  -0.57292  -0.56521
 Alpha  occ. eigenvalues --   -0.56415  -0.56134  -0.55990  -0.55780  -0.55554
 Alpha  occ. eigenvalues --   -0.54965  -0.54948  -0.54463  -0.54221  -0.53190
 Alpha  occ. eigenvalues --   -0.52825  -0.52633  -0.52176  -0.51983  -0.51725
 Alpha  occ. eigenvalues --   -0.51644  -0.51220  -0.51164  -0.51123  -0.50785
 Alpha  occ. eigenvalues --   -0.50171  -0.49953  -0.49863  -0.49712  -0.49338
 Alpha  occ. eigenvalues --   -0.49292  -0.48927  -0.48888  -0.48486  -0.48282
 Alpha  occ. eigenvalues --   -0.47966  -0.47854  -0.47758  -0.47659  -0.47194
 Alpha  occ. eigenvalues --   -0.47162  -0.46855  -0.46664  -0.46644  -0.46351
 Alpha  occ. eigenvalues --   -0.46194  -0.46153  -0.45933  -0.45789  -0.45717
 Alpha  occ. eigenvalues --   -0.45206  -0.44917  -0.44879  -0.44637  -0.44547
 Alpha  occ. eigenvalues --   -0.44347  -0.44210  -0.44073  -0.43821  -0.43495
 Alpha  occ. eigenvalues --   -0.43370  -0.42709  -0.42311  -0.41800  -0.41642
 Alpha  occ. eigenvalues --   -0.41601  -0.41437  -0.41266  -0.41116  -0.41032
 Alpha  occ. eigenvalues --   -0.40914  -0.40296  -0.40036  -0.38680  -0.38588
 Alpha  occ. eigenvalues --   -0.38547  -0.37937  -0.37790  -0.37514  -0.36947
 Alpha  occ. eigenvalues --   -0.36317  -0.36160  -0.36130  -0.35529  -0.34973
 Alpha  occ. eigenvalues --   -0.34324  -0.34055  -0.33003  -0.32488  -0.32337
 Alpha  occ. eigenvalues --   -0.32162  -0.31018  -0.30514  -0.30042  -0.29755
 Alpha  occ. eigenvalues --   -0.28857  -0.25801
 Alpha virt. eigenvalues --   -0.10734  -0.09190  -0.08688  -0.08314  -0.07758
 Alpha virt. eigenvalues --   -0.07363  -0.06937  -0.06143  -0.05383  -0.05358
 Alpha virt. eigenvalues --   -0.05068  -0.04913  -0.03696  -0.03681  -0.02867
 Alpha virt. eigenvalues --   -0.02672  -0.01571  -0.00552  -0.00205   0.00514
 Alpha virt. eigenvalues --    0.01324   0.01760   0.02114   0.02547   0.02764
 Alpha virt. eigenvalues --    0.03174   0.03415   0.03798   0.03886   0.04171
 Alpha virt. eigenvalues --    0.04375   0.04958   0.05112   0.05175   0.05539
 Alpha virt. eigenvalues --    0.05919   0.06189   0.06396   0.06776   0.06916
 Alpha virt. eigenvalues --    0.07174   0.07430   0.07757   0.07829   0.08043
[...]
 Alpha virt. eigenvalues --    0.98410   0.98545   0.99084   0.99930   0.99968
 Alpha virt. eigenvalues --    1.00505   1.01005   1.01259   1.01554   1.01788
 Alpha virt. eigenvalues --    1.02125   1.02676   1.03026   1.03709   1.04136
 Alpha virt. eigenvalues --    1.04497   1.04862   1.05354   1.05692   1.06466
 Alpha virt. eigenvalues --    1.06806   1.07389   1.07940   1.08487   1.08729
 Alpha virt. eigenvalues --    1.09209   1.09835   1.10869   1.11266   1.11484
 Alpha virt. eigenvalues --    1.12302   1.12947   1.13522   1.13846   1.14309
 Alpha virt. eigenvalues --    1.14795   1.15080   1.15676   1.15829   1.16046
 Alpha virt. eigenvalues --    1.16724   1.16840   1.17557   1.17885   1.19048
 Alpha virt. eigenvalues --    1.19982   1.20107   1.20672   1.21334   1.21566
 Alpha virt. eigenvalues --    1.21676   1.22316   1.22792   1.23482   1.23966
 Alpha virt. eigenvalues --    1.24672   1.24936   1.25393   1.26155   1.26821
 Alpha virt. eigenvalues --    1.27183   1.27754   1.28024   1.28799   1.29234
 Alpha virt. eigenvalues --    1.29864   1.29999   1.30757   1.31440   1.31938
 Alpha virt. eigenvalues --    1.32123   1.32511   1.32837   1.33442   1.34441
 Alpha virt. eigenvalues --    1.34492   1.34661   1.35018   1.35802   1.36184
 Alpha virt. eigenvalues --    1.36610   1.37256   1.37828   1.38224   1.38692
 Alpha virt. eigenvalues --    1.38918   1.39180   1.39844   1.40018   1.40579
 Alpha virt. eigenvalues --    1.41152   1.42086   1.42322   1.42881   1.43173
 Alpha virt. eigenvalues --    1.43663   1.43884   1.44482   1.44597   1.45145
 Alpha virt. eigenvalues --    1.45467   1.45927   1.46278   1.46620   1.46650
 Alpha virt. eigenvalues --    1.47428   1.47976   1.48671   1.48988   1.49149
 Alpha virt. eigenvalues --    1.50981   1.51555   1.51937   1.52314   1.53893
 Alpha virt. eigenvalues --    1.54421   1.54756   1.55340   1.56250   1.56822
 Alpha virt. eigenvalues --    1.57234   1.58012   1.58484   1.58736   1.59509
 Alpha virt. eigenvalues --    1.59865   1.60319   1.60901   1.61235   1.61486
 Alpha virt. eigenvalues --    1.62270   1.63375   1.63422   1.63884   1.64496
 Alpha virt. eigenvalues --    1.64649   1.65729   1.65792   1.66451   1.66880
 Alpha virt. eigenvalues --    1.67155   1.67894   1.68466   1.68607   1.69232
 Alpha virt. eigenvalues --    1.69638   1.69870   1.70010   1.70619   1.70797
 Alpha virt. eigenvalues --    1.71049   1.72132   1.72332   1.72474   1.72646
 Alpha virt. eigenvalues --    1.72740   1.72950   1.73319   1.73933   1.73977
 Alpha virt. eigenvalues --    1.74503   1.74717   1.75176   1.75497   1.75715
 Alpha virt. eigenvalues --    1.75916   1.76299   1.76592   1.76963   1.77329
 Alpha virt. eigenvalues --    1.77433   1.78195   1.78261   1.78374   1.79160
 Alpha virt. eigenvalues --    1.79457   1.79721   1.80528   1.80653   1.81119
 Alpha virt. eigenvalues --    1.81282   1.81591   1.82063   1.82237   1.82618
 Alpha virt. eigenvalues --    1.83076   1.83786   1.84064   1.84827   1.85064
 Alpha virt. eigenvalues --    1.85471   1.86091   1.86271   1.86360   1.86670
 Alpha virt. eigenvalues --    1.87097   1.87356   1.87683   1.88258   1.88449
 Alpha virt. eigenvalues --    1.88881   1.89040   1.89518   1.89930   1.90101
 Alpha virt. eigenvalues --    1.90317   1.90667   1.90927   1.91227   1.91580
 Alpha virt. eigenvalues --    1.92252   1.92361   1.92576   1.92706   1.93038
 Alpha virt. eigenvalues --    1.93185   1.93499   1.93947   1.94002   1.94524
 Alpha virt. eigenvalues --    1.94658   1.95466   1.95779   1.96584   1.96714
 Alpha virt. eigenvalues --    1.97242   1.97559   1.97754   1.98024   1.98637
 Alpha virt. eigenvalues --    1.98825   1.99190   2.00040   2.00330   2.00595
 Alpha virt. eigenvalues --    2.00984   2.01397   2.01571   2.02226   2.02480
 Alpha virt. eigenvalues --    2.02907   2.03991   2.04626   2.04946   2.05768
 Alpha virt. eigenvalues --    2.06070   2.06320   2.06661   2.07509   2.07996
 Alpha virt. eigenvalues --    2.08376   2.08750   2.09065   2.09719   2.10164
 Alpha virt. eigenvalues --    2.10268   2.10818   2.11259   2.11564   2.11778
 Alpha virt. eigenvalues --    2.13165   2.13853   2.14106   2.14793   2.15380
 Alpha virt. eigenvalues --    2.15799   2.16153   2.16712   2.17148   2.17995
 Alpha virt. eigenvalues --    2.18038   2.19066   2.19215   2.20246   2.20528
 Alpha virt. eigenvalues --    2.21784   2.22054   2.22974   2.23097   2.23420
 Alpha virt. eigenvalues --    2.23577   2.24051   2.24402   2.24769   2.25525
 Alpha virt. eigenvalues --    2.25816   2.26432   2.26643   2.27228   2.27617
 Alpha virt. eigenvalues --    2.27817   2.27934   2.28606   2.29393   2.29722
 Alpha virt. eigenvalues --    2.30551   2.31453   2.31793   2.32049   2.32142
 Alpha virt. eigenvalues --    2.32772   2.33030   2.33487   2.34331   2.34857
 Alpha virt. eigenvalues --    2.35065   2.35331   2.35922   2.36660   2.37102
 Alpha virt. eigenvalues --    2.37634   2.37876   2.38788   2.39216   2.39477
 Alpha virt. eigenvalues --    2.40278   2.40803   2.40876   2.41886   2.42205
 Alpha virt. eigenvalues --    2.42522   2.42782   2.44020   2.44123   2.45293
 Alpha virt. eigenvalues --    2.46009   2.46855   2.47171   2.47750   2.48588
 Alpha virt. eigenvalues --    2.49528   2.50323   2.50653   2.51502   2.52501
 Alpha virt. eigenvalues --    2.52634   2.53095   2.53481   2.54179   2.54544
 Alpha virt. eigenvalues --    2.54952   2.56094   2.56257   2.56979   2.57518
 Alpha virt. eigenvalues --    2.58264   2.58282   2.58573   2.58815   2.59921
 Alpha virt. eigenvalues --    2.60842   2.61084   2.61427   2.61708   2.62129
 Alpha virt. eigenvalues --    2.62613   2.63008   2.63929   2.64026   2.64439
 Alpha virt. eigenvalues --    2.64872   2.65681   2.66893   2.67548   2.68077
 Alpha virt. eigenvalues --    2.68743   2.69006   2.69810   2.70592   2.71466
 Alpha virt. eigenvalues --    2.71705   2.72334   2.72850   2.73907   2.74184
 Alpha virt. eigenvalues --    2.74707   2.75944   2.76857   2.78496   2.79761
 Alpha virt. eigenvalues --    2.79833   2.83757   2.84609   2.86029   2.86464
 Alpha virt. eigenvalues --    2.87358   2.87654   2.89027   2.89659   2.90145
 Alpha virt. eigenvalues --    2.90840   2.91349   2.93215   2.94378   2.95095
 Alpha virt. eigenvalues --    2.95499   2.96154   2.97188   2.97759   2.98283
 Alpha virt. eigenvalues --    2.99158   3.00587   3.00760   3.03768   3.05690
 Alpha virt. eigenvalues --    3.07545   3.08801   3.10211   3.11415   3.12359
 Alpha virt. eigenvalues --    3.15628   3.36389   3.37281   3.69628   3.76164
 Alpha virt. eigenvalues --    3.79350   3.86153   3.86310   3.89664   3.92946
 Alpha virt. eigenvalues --    3.93599   3.95658   3.96979   3.98037   4.02517
 Alpha virt. eigenvalues --    4.03144   4.04268   4.04898   4.07453   4.07625
 Alpha virt. eigenvalues --    4.07755   4.08810   4.09631   4.10892   4.11485
 Alpha virt. eigenvalues --    4.11640   4.12142   4.14445   4.14621   4.15985
 Alpha virt. eigenvalues --    4.19033   4.19571   4.20044   4.21395   4.22262
 Alpha virt. eigenvalues --    4.23767   4.24709   4.26183   4.26848   4.27196
 Alpha virt. eigenvalues --    4.29049   4.29797   4.30552   4.31474   4.35679
 Alpha virt. eigenvalues --    4.36465   4.37645   4.39932   4.40344   4.41464
 Alpha virt. eigenvalues --    4.44893   4.45613   4.47257   4.49446   4.49774
 Alpha virt. eigenvalues --    4.50073   4.55617   4.57506   4.59526   4.61084
 Alpha virt. eigenvalues --    4.62191   4.63657   4.66249   4.69317   4.74002
          Condensed to atoms (all electrons):
 Mulliken charges:
               1
     1  N   -0.776613
     2  H    0.466556
     3  H    0.334772
     4  H    0.339780
     5  C   -0.058744
     6  H    0.139900
     7  C    0.642088
     8  C   -0.362254
     9  H    0.156367
    10  H    0.175926
    11  O   -0.542512
    12  C    0.157942
    13  C   -0.179550
    14  H    0.125151
    15  C   -0.202086
    16  H    0.133000
    17  C   -0.127006
    18  H    0.137740
    19  C   -0.126060
    20  H    0.141675
    21  C   -0.129353
    22  H    0.140634
    23  N   -0.623123
    24  H    0.365238
    25  C   -0.026996
    26  H    0.189462
    27  C    0.632119
    28  C   -0.477376
    29  H    0.130538
    30  H    0.180841
    31  H    0.213772
    32  O   -0.554247
    33  N   -0.604576
    34  H    0.346927
    35  C   -0.056176
    36  H    0.187140
    37  C    0.629475
    38  C   -0.465067
    39  H    0.167050
    40  H    0.174980
    41  H    0.164908
    42  O   -0.554700
    43  N   -0.613745
    44  H    0.392347
    45  C   -0.060919
    46  H    0.178443
    47  C    0.636523
    48  C   -0.382233
    49  H    0.172306
    50  H    0.160984
    51  O   -0.557553
    52  C    0.162195
    53  C   -0.189514
    54  H    0.119310
    55  C   -0.186491
    56  H    0.127609
    57  C   -0.183751
    58  H    0.142651
    59  C   -0.236273
    60  H    0.138022
    61  O   -0.688181
    62  C    0.379514
    63  N   -0.635043
    64  H    0.394791
    65  C   -0.065238
    66  H    0.174589
    67  C    0.629339
    68  C   -0.279291
    69  H    0.150129
    70  H    0.166064
    71  O   -0.549184
    72  C   -0.097346
    73  H    0.146863
    74  C   -0.472084
    75  H    0.170959
    76  H    0.115733
    77  H    0.145807
    78  C   -0.446432
    79  H    0.159641
    80  H    0.159563
    81  H    0.115359
    82  N   -0.633741
    83  H    0.394369
    84  C   -0.039447
    85  H    0.186403
    86  C    0.632182
    87  C   -0.323747
    88  H    0.185871
    89  H    0.186091
    90  O   -0.587502
    91  C   -0.383002
    92  H    0.213607
    93  H    0.193978
    94  C    0.601972
    95  O   -0.484529
    96  O   -0.538510
    97  N   -0.616521
    98  H    0.398842
    99  C   -0.057923
   100  H    0.210810
   101  C    0.588332
   102  C   -0.269273
   103  H    0.196197
   104  H    0.156942
   105  O   -0.439458
   106  C   -0.276850
   107  H    0.159745
   108  H    0.151743
   109  C   -0.202284
   110  H    0.180583
   111  H    0.237890
   112  N   -0.585656
   113  H    0.357102
   114  N   -0.787892
   115  H    0.365185
   116  H    0.464251
   117  N   -0.755956
   118  H    0.372284
   119  H    0.371684
   120  C    0.788620
   121  O   -0.567894
   122  H    0.424567
   123  H    0.427923
 Sum of Mulliken charges =   1.00000
 Mulliken charges with hydrogens summed into heavy atoms:
               1
     1  N   -0.102060
     5  C    0.081156
     7  C    0.642088
     8  C   -0.029962
    11  O   -0.542512
    12  C    0.157942
    13  C   -0.054399
    15  C   -0.069086
    17  C    0.010735
    19  C    0.015614
    21  C    0.011282
    23  N   -0.257884
    25  C    0.162466
    27  C    0.632119
    28  C    0.047775
    32  O   -0.554247
    33  N   -0.257649
    35  C    0.130965
    37  C    0.629475
    38  C    0.041870
    42  O   -0.554700
    43  N   -0.221398
    45  C    0.117524
    47  C    0.636523
    48  C   -0.048943
    51  O   -0.557553
    52  C    0.162195
    53  C   -0.070204
    55  C   -0.058882
    57  C   -0.041099
    59  C   -0.098252
    61  O   -0.221625
    62  C    0.379514
    63  N   -0.240252
    65  C    0.109351
    67  C    0.629339
    68  C    0.036901
    71  O   -0.549184
    72  C    0.049517
    74  C   -0.039585
    78  C   -0.011869
    82  N   -0.239373
    84  C    0.146956
    86  C    0.632182
    87  C    0.048215
    90  O   -0.587502
    91  C    0.024583
    94  C    0.601972
    95  O   -0.484529
    96  O   -0.113943
    97  N   -0.217679
    99  C    0.152887
   101  C    0.588332
   102  C    0.083866
   105  O   -0.439458
   106  C    0.034638
   109  C    0.216188
   112  N   -0.228553
   114  N    0.041544
   117  N   -0.011987
   120  C    0.788620
   121  O   -0.139971
 Electronic spatial extent (au):  <R**2>=          84054.3518
 Charge=              1.0000 electrons
 Dipole moment (field-independent basis, Debye):
    X=             16.6424    Y=              1.8725    Z=             -0.5759  Tot=             16.7573
 Quadrupole moment (field-independent basis, Debye-Ang):
   XX=           -157.2627   YY=           -336.5434   ZZ=           -286.2877
   XY=            -39.6746   XZ=            -16.9824   YZ=             -6.0286
 Traceless Quadrupole moment (field-independent basis, Debye-Ang):
   XX=            102.7686   YY=            -76.5122   ZZ=            -26.2564
   XY=            -39.6746   XZ=            -16.9824   YZ=             -6.0286
 Octapole moment (field-independent basis, Debye-Ang**2):
  XXX=           1538.7500  YYY=           -693.5589  ZZZ=           -698.2754  XYY=            216.7372
  XXY=            -40.8511  XXZ=             38.5125  XZZ=            394.7428  YZZ=           -216.3299
  YYZ=           -147.3644  XYZ=            -81.4188
 Hexadecapole moment (field-independent basis, Debye-Ang**3):
 XXXX=         -57213.8503 YYYY=          -7688.8865 ZZZZ=         -25523.4392 XXXY=           1110.1420
 XXXZ=          14054.2151 YYYX=           5419.8475 YYYZ=           -918.7989 ZZZX=          15208.2577
 ZZZY=          -1969.1872 XXYY=         -11703.0635 XXZZ=         -17452.9025 YYZZ=          -5750.8437
 XXYZ=            603.0858 YYXZ=           4430.2722 ZZXY=           2497.0070
 N-N= 9.431579637161D+03 E-N=-2.575722136740D+04  KE= 2.946878399385D+03
 Unable to Open any file for archive entry.
 1\1\GINC-SKL-141\SP\RB3LYP\6-31G(d)\C41H61N10O11(1+)\KENGMITH\07-Aug-2
 022\0\\# B3LYP/6-31G* empiricaldispersion=gd3bj guess=read geom=check 
 nosymm integral(ultrafinegrid)\\Candidate Structure: Conf:549 Charge c
 alc in gas phase\\1,1\N,0,-9.2257173615,1.4898915282,2.6537442558\H,0,
 -8.3026661229,0.6204074545,1.4197863505\H,0,-9.8277588669,2.261274753,
 2.3640281697\H,0,-9.8364898963,0.7534910974,3.0129497932\C,0,-8.359192
 0412,1.9302257297,3.7621153014\H,0,-7.6230673036,2.6269176503,3.347147
 0961\C,0,-7.669126884,0.6680791828,4.2871110962\C,0,-9.1149057388,2.63
 22651184,4.9136578477\H,0,-8.3847069528,2.9190604652,5.6805776368\H,0,
 -9.7890499471,1.8990625035,5.3682031845\O,0,-8.3253689333,-0.223283962
 1,4.8227257031\C,0,-9.8710260257,3.842939789,4.4261107084\C,0,-9.21182
 91261,5.0643737209,4.2324164206\H,0,-8.1592810885,5.14951818,4.4940470
 941\C,0,-11.2284621498,3.7551358879,4.0910073\H,0,-11.7573488022,2.818
 4351679,4.2508198462\C,0,-9.8901182259,6.1691700976,3.7207716762\H,0,-
 9.3651993203,7.1105211587,3.5849389817\C,0,-11.91128365,4.8589596206,3
 .5762965755\H,0,-12.9655351735,4.774062961,3.3288771463\C,0,-11.243015
 5432,6.0685686696,3.3889461917\H,0,-11.7731780582,6.9296258976,2.99289
 24656\N,0,-6.3314842481,0.6164390969,4.1081366001\H,0,-5.8380309073,1.
 3522894936,3.6171767877\C,0,-5.5293709041,-0.5299193039,4.4849009394\H
 ,0,-5.700308071,-0.7398737927,5.5496187895\C,0,-4.0673611095,-0.108772
 8187,4.3044161481\C,0,-5.8810512356,-1.7897003241,3.6727258143\H,0,-5.
 3825515903,-2.6783280066,4.0772789132\H,0,-5.5983751495,-1.6641951295,
 2.6252994167\H,0,-6.9573290887,-1.9540740436,3.7379673711\O,0,-3.75294
 28666,1.043934285,3.9875173659\N,0,-3.1395680878,-1.0704262194,4.51575
 34621\H,0,-3.4356675929,-2.0207638297,4.6895912611\C,0,-1.7030340969,-
 0.7948487398,4.4707962689\H,0,-1.5708657324,0.2141248654,4.875602677\C
 ,0,-1.195947591,-0.7868876607,3.0130361255\C,0,-0.9464483749,-1.812594
 7513,5.3138056713\H,0,0.1211950932,-1.5799402213,5.3180949739\H,0,-1.0
 574073728,-2.819170322,4.9000376496\H,0,-1.3142306028,-1.7963621874,6.
 3437472039\O,0,-0.4853917311,-1.6985607466,2.5709494322\N,0,-1.5728312
 719,0.2876712868,2.2855659241\H,0,-2.2682999052,0.9083873303,2.7029888
 892\C,0,-1.3286642865,0.3746412462,0.844334228\H,0,-1.4433732174,-0.63
 59719156,0.4338758842\C,0,0.1255259283,0.814493675,0.5775842752\C,0,-2
 .3149740837,1.3357763617,0.1745894657\H,0,-2.121639973,2.3476097475,0.
 5448885838\H,0,-2.0599486427,1.3609607827,-0.8924144705\O,0,0.40916323
 ,1.9295460584,0.1216160145\C,0,-3.7680396494,0.9709016764,0.3738591853
 \C,0,-4.2549759495,-0.3093361648,0.071395548\H,0,-3.5756789394,-1.0726
 525389,-0.3023616365\C,0,-4.6855813514,1.9228390724,0.8270313253\H,0,-
 4.340363294,2.9286773696,1.0545161234\C,0,-5.5950788632,-0.634149082,0
 .238473951\H,0,-5.9661737262,-1.6283757219,0.0104927616\C,0,-6.0376795
 978,1.6197498345,0.9835215751\H,0,-6.7354298664,2.3879510518,1.3030815
 218\O,0,-7.7818533543,-0.0606615484,0.8985660071\C,0,-6.507219543,0.32
 36693067,0.7160537217\N,0,1.0522479313,-0.1256901695,0.8697726936\H,0,
 0.7099884489,-0.9699312009,1.3372861334\C,0,2.4869654594,0.1620539144,
 0.8985999625\H,0,2.5976583226,1.2035912288,1.2223644419\C,0,3.04767501
 06,0.0540715224,-0.5373788635\C,0,3.1643676276,-0.7905061422,1.8828266
 515\H,0,2.6312454327,-0.7136047232,2.839463127\H,0,3.0284213255,-1.815
 4199212,1.519287227\O,0,3.7841834182,-0.8589406016,-0.9165914338\C,0,4
 .6642759156,-0.5454458421,2.1070627129\H,0,5.1526433657,-0.7183649467,
 1.1438143786\C,0,4.9627359072,0.8869794528,2.569327852\H,0,4.419683323
 3,1.1272848531,3.4910950569\H,0,6.0301858139,1.0175437232,2.7938817527
 \H,0,4.6788696356,1.6375137854,1.8219476391\C,0,5.2137126027,-1.563795
 555,3.1126888209\H,0,4.7474029737,-1.4383039803,4.0971961675\H,0,5.023
 7462673,-2.5905717633,2.7817276606\H,0,6.2964700659,-1.4463758125,3.24
 90448688\N,0,2.6178275729,1.0476956588,-1.3496181878\H,0,1.9131182222,
 1.6762359259,-0.9541029973\C,0,2.6964513051,0.9308053836,-2.7920364872
 \H,0,2.3428157338,-0.0621987181,-3.0899907328\C,0,4.1415500365,1.07035
 79113,-3.2913438636\C,0,1.7755519905,2.0135936931,-3.3938683464\H,0,0.
 7895908561,1.8972359005,-2.9294934037\H,0,2.1541466432,2.9969994875,-3
 .0938562759\O,0,4.9967301931,1.7335909791,-2.6865766374\C,0,1.62724641
 43,2.0056269485,-4.927892846\H,0,2.5852452478,2.2215083121,-5.40734069
 74\H,0,0.9156200233,2.7824056384,-5.2153131562\C,0,1.1547018439,0.6735
 254754,-5.4607473264\O,0,1.8291953793,-0.3457907484,-5.4966160313\O,0,
 -0.1160706762,0.6984039737,-5.8844876831\N,0,4.3986414059,0.4299911206
 ,-4.4484685592\H,0,3.6172031693,-0.0368671329,-4.9162777106\C,0,5.6581
 699336,0.5955693255,-5.1597299438\H,0,6.0984806882,1.5289220641,-4.784
 5574241\C,0,5.4238579458,0.8146823269,-6.6559912139\C,0,6.6703273429,-
 0.5411622181,-4.9433357434\H,0,7.4389104211,-0.4259862318,-5.711235144
 9\H,0,6.1812699512,-1.5041928353,-5.1379566433\O,0,6.20647578,0.506763
 5712,-7.5217021972\C,0,7.3410745182,-0.5380674916,-3.5614858847\H,0,7.
 5571600391,0.494104637,-3.2615458901\H,0,8.3092987988,-1.0475002323,-3
 .6411745505\C,0,6.5324017109,-1.2328419079,-2.4601287775\H,0,6.3924403
 516,-2.291159467,-2.6971397252\H,0,5.5348539385,-0.8248427625,-2.30649
 65228\N,0,7.2325306798,-1.1909674341,-1.1665927541\H,0,7.9525054247,-1
 .8846336058,-1.0122580709\N,0,6.5591495579,0.9600838147,-0.5592748755\
 H,0,6.3873559508,1.6023147911,0.2013142665\H,0,6.0095203557,1.13339119
 9,-1.4159342931\N,0,7.9526777752,-0.2765325608,0.8256370592\H,0,7.9010
 228642,0.465345157,1.5092630306\H,0,8.1073738117,-1.1978602677,1.21155
 91549\C,0,7.2184381347,-0.1651504886,-0.3125799784\O,0,4.2530194669,1.
 4447082763,-6.9129809854\H,0,-0.3369944195,-0.2000650682,-6.1996891869
 \H,0,4.215712528,1.5665540846,-7.8813791239\\Version=ES64L-G16RevC.01\
 HF=-2974.3704475\RMSD=7.724e-09\Dipole=8.0153682,-0.5636938,-0.9143229
 \Quadrupole=76.4059372,-56.8849244,-19.5210128,-29.4971103,-12.6259827
 ,-4.4820997\PG=C01 [X(C41H61N10O11)]\\@
 The archive entry for this job was punched.


 IT IS WELL TO REMEMBER THAT MAN IS A PART OF NATURE AND THAT HIS WORKS,
 WHATEVER THEY MAY BE, ARE NO MORE "UNNATURAL" THAN 
 THE FLIGHT OF AN EAGLE OR THE PASSAGE OF A TORNADO.

                                    -- CHARLES MCCARRY IN "THE GREAT SOUTHWEST"
 Job cpu time:       0 days  0 hours  4 minutes 21.2 seconds.
 Elapsed time:       0 days  0 hours  1 minutes  8.3 seconds.
 File lengths (MBytes):  RWF=    800 Int=      0 D2E=      0 Chk=    128 Scr=     32
 Normal termination of Gaussian 16 at Sun Aug  7 18:55:49 2022.
