 Entering Gaussian System, Link 0=/opt/software/Gaussian/g16-AVX2-C.01/g16/g16
 Input=charge-conf-496.com
 Output=charge-conf-496.log
 Initial command:
 /opt/software/Gaussian/g16-AVX2-C.01/g16/l1.exe "/mnt/gs18/scratch/users/kengmith/Gau-6089.inp" -scrdir="/mnt/gs18/scratch/users/kengmith/"
 Entering Link 1 = /opt/software/Gaussian/g16-AVX2-C.01/g16/l1.exe PID=      6099.
  
 Copyright (c) 1988-2019, Gaussian, Inc.  All Rights Reserved.
  
 This is part of the Gaussian(R) 16 program.  It is based on
 the Gaussian(R) 09 system (copyright 2009, Gaussian, Inc.),
 the Gaussian(R) 03 system (copyright 2003, Gaussian, Inc.),
 the Gaussian(R) 98 system (copyright 1998, Gaussian, Inc.),
 the Gaussian(R) 94 system (copyright 1995, Gaussian, Inc.),
 the Gaussian 92(TM) system (copyright 1992, Gaussian, Inc.),
 the Gaussian 90(TM) system (copyright 1990, Gaussian, Inc.),
 the Gaussian 88(TM) system (copyright 1988, Gaussian, Inc.),
 the Gaussian 86(TM) system (copyright 1986, Carnegie Mellon
 University), and the Gaussian 82(TM) system (copyright 1983,
 Carnegie Mellon University). Gaussian is a federally registered
 trademark of Gaussian, Inc.
  
 This software contains proprietary and confidential information,
 including trade secrets, belonging to Gaussian, Inc.
  
 This software is provided under written license and may be
 used, copied, transmitted, or stored only in accord with that
 written license.
  
 The following legend is applicable only to US Government
 contracts under FAR:
  
                    RESTRICTED RIGHTS LEGEND
  
 Use, reproduction and disclosure by the US Government is
 subject to restrictions as set forth in subparagraphs (a)
 and (c) of the Commercial Computer Software - Restricted
 Rights clause in FAR 52.227-19.
  
 Gaussian, Inc.
 340 Quinnipiac St., Bldg. 40, Wallingford CT 06492
  
  
 ---------------------------------------------------------------
 Warning -- This program may not be used in any manner that
 competes with the business of Gaussian, Inc. or will provide
 assistance to any competitor of Gaussian, Inc.  The licensee
 of this program is prohibited from giving any competitor of
 Gaussian, Inc. access to this program.  By using this program,
 the user acknowledges that Gaussian, Inc. is engaged in the
 business of creating and licensing software in the field of
 computational chemistry and represents and warrants to the
 licensee that it is not a competitor of Gaussian, Inc. and that
 it will not use this program in any manner prohibited above.
 ---------------------------------------------------------------
  

 Cite this work as:
 Gaussian 16, Revision C.01,
 M. J. Frisch, G. W. Trucks, H. B. Schlegel, G. E. Scuseria, 
 M. A. Robb, J. R. Cheeseman, G. Scalmani, V. Barone, 
 G. A. Petersson, H. Nakatsuji, X. Li, M. Caricato, A. V. Marenich, 
 J. Bloino, B. G. Janesko, R. Gomperts, B. Mennucci, H. P. Hratchian, 
 J. V. Ortiz, A. F. Izmaylov, J. L. Sonnenberg, D. Williams-Young, 
 F. Ding, F. Lipparini, F. Egidi, J. Goings, B. Peng, A. Petrone, 
 T. Henderson, D. Ranasinghe, V. G. Zakrzewski, J. Gao, N. Rega, 
 G. Zheng, W. Liang, M. Hada, M. Ehara, K. Toyota, R. Fukuda, 
 J. Hasegawa, M. Ishida, T. Nakajima, Y. Honda, O. Kitao, H. Nakai, 
 T. Vreven, K. Throssell, J. A. Montgomery, Jr., J. E. Peralta, 
 F. Ogliaro, M. J. Bearpark, J. J. Heyd, E. N. Brothers, K. N. Kudin, 
 V. N. Staroverov, T. A. Keith, R. Kobayashi, J. Normand, 
 K. Raghavachari, A. P. Rendell, J. C. Burant, S. S. Iyengar, 
 J. Tomasi, M. Cossi, J. M. Millam, M. Klene, C. Adamo, R. Cammi, 
 J. W. Ochterski, R. L. Martin, K. Morokuma, O. Farkas, 
 J. B. Foresman, and D. J. Fox, Gaussian, Inc., Wallingford CT, 2019.
 
 ******************************************
 Gaussian 16:  ES64L-G16RevC.01  3-Jul-2019
                19-Jun-2022 
 ******************************************
 %mem=8gb
 %nproc=4
 Will use up to    4 processors via shared memory.
 %chk=conf-496.chk
 -------------------------------------------------------------------
 # B3LYP/6-31G* guess=read geom=check nosymm integral(ultrafinegrid)
 -------------------------------------------------------------------
 1/29=2,38=1,172=1/1;
 2/12=2,15=1,40=1/2;
 3/5=1,6=6,7=1,11=2,14=-4,25=1,30=1,74=-5,75=-5,116=-2/1,2,3;
 4/5=1/1;
 5/5=2,38=6/2;
 6/7=2,8=2,9=2,10=2,28=1/1;
 99/5=1,9=1/99;
 ------------------------------------------------------
 Candidate Structure: Conf:496 Charge calc in gas phase
 ------------------------------------------------------
 Structure from the checkpoint file:  "conf-496.chk"
 Charge =  1 Multiplicity = 1
 Redundant internal coordinates found in file.  (old form).
 N,0,-6.1661105913,0.6757869705,2.10465397
 H,0,-6.6022926216,1.5898586966,2.2552770372
 H,0,-6.0017612217,0.5397120201,1.0547192306
 H,0,-6.7799670519,-0.0482010107,2.4884415055
 C,0,-4.7429814193,0.5940235819,2.6280248306
 H,0,-4.5875992445,1.4122850684,3.3338905897
 C,0,-3.9153404042,0.7903900561,1.3245508386
 C,0,-4.5233721758,-0.7731165994,3.3147362061
 H,0,-4.6762660969,-1.565860628,2.5722882604
 H,0,-5.3012310519,-0.8878433979,4.0830984429
 O,0,-4.5248624512,0.6328409761,0.2501915878
 C,0,-3.1550515113,-0.9118984743,3.9523998605
 C,0,-2.2058436747,-1.7907602577,3.417312028
 H,0,-2.4497012261,-2.3789347987,2.5357871143
 C,0,-2.8300593399,-0.1721342004,5.0989984616
 H,0,-3.5649932201,0.4959505431,5.5451213091
 C,0,-0.9540299168,-1.9306631284,4.0185236894
 H,0,-0.2325675885,-2.6280131428,3.602800341
 C,0,-1.5760968496,-0.3047398317,5.6944274814
 H,0,-1.338538408,0.2690816883,6.5851880735
 C,0,-0.6365975382,-1.1861401109,5.155164627
 H,0,0.3351101831,-1.2991132854,5.6266422346
 N,0,-2.6375597921,1.1067395276,1.4510104246
 H,0,-2.1794538612,1.1930618875,2.360262043
 C,0,-1.720665471,1.3062379338,0.3198691904
 H,0,-1.8983479323,0.51328511,-0.4119214595
 C,0,-0.3192620304,1.1773102454,0.9451806363
 C,0,-1.9515327928,2.6936218386,-0.3332249681
 H,0,-3.0247675591,2.7645402845,-0.5510380258
 H,0,-1.7221031052,3.4584166634,0.4206023575
 O,0,-0.1575945404,1.3996292949,2.1505052214
 C,0,-1.1708805418,2.9852869552,-1.6322196214
 H,0,-0.0951497561,2.9157427218,-1.4203942253
 C,0,-1.5010405538,2.0025441509,-2.7674085061
 H,0,-2.5776180553,2.0052367675,-2.9838597228
 H,0,-0.9672883364,2.2962733651,-3.6776271011
 H,0,-1.2170934182,0.9672157208,-2.5346522319
 C,0,-1.450286422,4.4281231477,-2.0820496676
 H,0,-2.5139146009,4.5664389798,-2.3172150068
 H,0,-1.1812708805,5.1528047444,-1.3035979222
 H,0,-0.871836858,4.6524191048,-2.9835814211
 N,0,0.67407666,0.831462601,0.1104059
 H,0,0.5294010663,0.6945525783,-0.8884304267
 C,0,2.0731965501,0.8126825678,0.5081311728
 H,0,2.271712916,1.7003593936,1.1181918897
 C,0,2.8745176022,0.8997467642,-0.8089035476
 C,0,2.3975144586,-0.4630026512,1.3285329121
 H,0,1.7009424721,-0.4841162333,2.1757616874
 H,0,2.2237647415,-1.3525272207,0.7185969
 O,0,2.3096723412,0.6951332788,-1.8871893334
 C,0,3.8288312556,-0.55234113,1.854266608
 N,0,4.2903541147,0.5867933436,2.497107705
 H,0,5.1729003265,0.4680110141,2.9825764953
 H,0,3.6255684962,1.1949975262,2.9606739417
 O,0,4.5341654824,-1.5270450947,1.6779989309
 N,0,4.1818209986,1.2111956373,-0.7069740577
 H,0,4.6192077431,1.317935304,0.2024472734
 C,0,5.0088265775,1.2405120996,-1.9142349673
 H,0,4.7881662748,0.3252387983,-2.4777002124
 C,0,6.4947769941,1.1835990019,-1.5993728046
 C,0,4.6823194036,2.4555141361,-2.8299063135
 H,0,5.4169433952,3.2544180968,-2.6756047684
 H,0,3.7136776967,2.8499019232,-2.5171087573
 O,0,7.3506722451,1.2267320223,-2.4502779117
 C,0,4.6154819304,2.0767516036,-4.3158923521
 H,0,5.6211471461,1.8753352573,-4.7000183592
 H,0,4.0425650515,1.1446053463,-4.4199979827
 C,0,3.9479026161,3.1480648473,-5.1826423741
 H,0,4.5302844483,4.0787005671,-5.1184913806
 H,0,3.9658212562,2.8304483012,-6.2352124534
 N,0,2.5826617166,3.3918275784,-4.7124039068
 H,0,2.1404035198,2.5954801523,-4.265893532
 N,0,2.1929729349,5.0486271302,-6.3150404861
 H,0,1.5368432397,5.737953342,-6.6579847569
 H,0,3.0787407259,5.4608527522,-6.0485263526
 N,0,0.3939906215,3.864539025,-5.2636138589
 H,0,-0.1852038016,4.5121218445,-5.799409509
 C,0,1.648671701,4.1178932416,-5.4330715503
 O,0,6.7652771081,1.0902944697,-0.2752335676
 H,0,7.7372340513,1.0456995351,-0.1913242164
 Recover connectivity data from disk.
                           ----------------------------
                           !    Current Parameters    !
                           ! (Angstroms and Degrees)  !
 --------------------------                            --------------------------
 ! Name  Definition              Value                                          !
 --------------------------------------------------------------------------------
 ! R1    R(1,2)                  1.0239                                         !
 ! R2    R(1,3)                  1.0714                                         !
 ! R3    R(1,4)                  1.0239                                         !
 ! R4    R(1,5)                  1.5185                                         !
 ! R5    R(5,6)                  1.0918                                         !
 ! R6    R(5,7)                  1.5565                                         !
 ! R7    R(5,8)                  1.5456                                         !
 ! R8    R(7,11)                 1.2452                                         !
 ! R9    R(7,23)                 1.3224                                         !
 ! R10   R(8,9)                  1.0968                                         !
 ! R11   R(8,10)                 1.0994                                         !
 ! R12   R(8,12)                 1.516                                          !
 ! R13   R(12,13)                1.3999                                         !
 ! R14   R(12,15)                1.4027                                         !
 ! R15   R(13,14)                1.0874                                         !
 ! R16   R(13,17)                1.3957                                         !
 ! R17   R(15,16)                1.0888                                         !
 ! R18   R(15,19)                1.3945                                         !
 ! R19   R(17,18)                1.0861                                         !
 ! R20   R(17,21)                1.3954                                         !
 ! R21   R(19,20)                1.0859                                         !
 ! R22   R(19,21)                1.3965                                         !
 ! R23   R(21,22)                1.0859                                         !
 ! R24   R(23,24)                1.0218                                         !
 ! R25   R(23,25)                1.4697                                         !
 ! R26   R(25,26)                1.0936                                         !
 ! R27   R(25,27)                1.54                                           !
 ! R28   R(25,28)                1.5507                                         !
 ! R29   R(27,31)                1.2363                                         !
 ! R30   R(27,42)                1.3428                                         !
 ! R31   R(28,29)                1.0974                                         !
 ! R32   R(28,30)                1.0981                                         !
 ! R33   R(28,32)                1.5433                                         !
 ! R34   R(32,33)                1.0986                                         !
 ! R35   R(32,34)                1.5373                                         !
 ! R36   R(32,38)                1.5369                                         !
 ! R37   R(34,35)                1.0981                                         !
 ! R38   R(34,36)                1.0953                                         !
 ! R39   R(34,37)                1.0985                                         !
 ! R40   R(38,39)                1.0981                                         !
 ! R41   R(38,40)                1.0971                                         !
 ! R42   R(38,41)                1.0944                                         !
 ! R43   R(42,43)                1.0185                                         !
 ! R44   R(42,44)                1.4547                                         !
 ! R45   R(44,45)                1.0952                                         !
 ! R46   R(44,46)                1.5441                                         !
 ! R47   R(44,47)                1.551                                          !
 ! R48   R(46,50)                1.2343                                         !
 ! R49   R(46,56)                1.3478                                         !
 ! R50   R(47,48)                1.097                                          !
 ! R51   R(47,49)                1.0925                                         !
 ! R52   R(47,51)                1.5274                                         !
 ! R53   R(51,52)                1.387                                          !
 ! R54   R(51,55)                1.216                                          !
 ! R55   R(52,53)                1.0142                                         !
 ! R56   R(52,54)                1.0133                                         !
 ! R57   R(56,57)                1.0148                                         !
 ! R58   R(56,58)                1.4637                                         !
 ! R59   R(58,59)                1.0972                                         !
 ! R60   R(58,60)                1.52                                           !
 ! R61   R(58,61)                1.556                                          !
 ! R62   R(60,64)                1.2077                                         !
 ! R63   R(60,79)                1.3547                                         !
 ! R64   R(61,62)                1.0962                                         !
 ! R65   R(61,63)                1.0916                                         !
 ! R66   R(61,65)                1.535                                          !
 ! R67   R(65,66)                1.0952                                         !
 ! R68   R(65,67)                1.0991                                         !
 ! R69   R(65,68)                1.5312                                         !
 ! R70   R(68,69)                1.0997                                         !
 ! R71   R(68,70)                1.0996                                         !
 ! R72   R(68,71)                1.4644                                         !
 ! R73   R(71,72)                1.0145                                         !
 ! R74   R(71,78)                1.3852                                         !
 ! R75   R(73,74)                1.0116                                         !
 ! R76   R(73,75)                1.0127                                         !
 ! R77   R(73,78)                1.393                                          !
 ! R78   R(76,77)                1.0207                                         !
 ! R79   R(76,78)                1.2912                                         !
 ! R80   R(79,80)                0.9766                                         !
 ! A1    A(2,1,3)              108.837                                          !
 ! A2    A(2,1,4)              108.7055                                         !
 ! A3    A(2,1,5)              113.3651                                         !
 ! A4    A(3,1,4)              111.6847                                         !
 ! A5    A(3,1,5)              100.7868                                         !
 ! A6    A(4,1,5)              113.2426                                         !
 ! A7    A(1,5,6)              108.4129                                         !
 ! A8    A(1,5,7)              101.7072                                         !
 ! A9    A(1,5,8)              109.5069                                         !
 ! A10   A(6,5,7)              111.7904                                         !
 ! A11   A(6,5,8)              110.8223                                         !
 ! A12   A(7,5,8)              114.087                                          !
 ! A13   A(5,7,11)             116.5065                                         !
 ! A14   A(5,7,23)             117.6384                                         !
 ! A15   A(11,7,23)            125.8551                                         !
 ! A16   A(5,8,9)              108.5874                                         !
 ! A17   A(5,8,10)             107.5959                                         !
 ! A18   A(5,8,12)             113.3353                                         !
 ! A19   A(9,8,10)             107.4                                            !
 ! A20   A(9,8,12)             110.1438                                         !
 ! A21   A(10,8,12)            109.5786                                         !
 ! A22   A(8,12,13)            120.5778                                         !
 ! A23   A(8,12,15)            120.3099                                         !
 ! A24   A(13,12,15)           119.1071                                         !
 ! A25   A(12,13,14)           119.8264                                         !
 ! A26   A(12,13,17)           120.4257                                         !
 ! A27   A(14,13,17)           119.7423                                         !
 ! A28   A(12,15,16)           120.1418                                         !
 ! A29   A(12,15,19)           120.4795                                         !
 ! A30   A(16,15,19)           119.3652                                         !
 ! A31   A(13,17,18)           119.6864                                         !
 ! A32   A(13,17,21)           120.0949                                         !
 ! A33   A(18,17,21)           120.2163                                         !
 ! A34   A(15,19,20)           119.7845                                         !
 ! A35   A(15,19,21)           120.0056                                         !
 ! A36   A(20,19,21)           120.2047                                         !
 ! A37   A(17,21,19)           119.8848                                         !
 ! A38   A(17,21,22)           120.1136                                         !
 ! A39   A(19,21,22)           119.9983                                         !
 ! A40   A(7,23,24)            122.5822                                         !
 ! A41   A(7,23,25)            124.1724                                         !
 ! A42   A(24,23,25)           113.1855                                         !
 ! A43   A(23,25,26)           108.3754                                         !
 ! A44   A(23,25,27)           104.1138                                         !
 ! A45   A(23,25,28)           110.6532                                         !
 ! A46   A(26,25,27)           111.0311                                         !
 ! A47   A(26,25,28)           110.0429                                         !
 ! A48   A(27,25,28)           112.4202                                         !
 ! A49   A(25,27,31)           119.9888                                         !
 ! A50   A(25,27,42)           116.2512                                         !
 ! A51   A(31,27,42)           123.7571                                         !
 ! A52   A(25,28,29)           106.679                                          !
 ! A53   A(25,28,30)           107.6317                                         !
 ! A54   A(25,28,32)           116.632                                          !
 ! A55   A(29,28,30)           107.1922                                         !
 ! A56   A(29,28,32)           108.3856                                         !
 ! A57   A(30,28,32)           109.9072                                         !
 ! A58   A(28,32,33)           108.7261                                         !
 ! A59   A(28,32,34)           113.0831                                         !
 ! A60   A(28,32,38)           109.3781                                         !
 ! A61   A(33,32,34)           108.1919                                         !
 ! A62   A(33,32,38)           107.0898                                         !
 ! A63   A(34,32,38)           110.1785                                         !
 ! A64   A(32,34,35)           110.7643                                         !
 ! A65   A(32,34,36)           109.7278                                         !
 ! A66   A(32,34,37)           112.9864                                         !
 ! A67   A(35,34,36)           108.2577                                         !
 ! A68   A(35,34,37)           107.3069                                         !
 ! A69   A(36,34,37)           107.6301                                         !
 ! A70   A(32,38,39)           110.9176                                         !
 ! A71   A(32,38,40)           111.5841                                         !
 ! A72   A(32,38,41)           109.7196                                         !
 ! A73   A(39,38,40)           107.8356                                         !
 ! A74   A(39,38,41)           108.044                                          !
 ! A75   A(40,38,41)           108.6354                                         !
 ! A76   A(27,42,43)           122.6288                                         !
 ! A77   A(27,42,44)           123.014                                          !
 ! A78   A(43,42,44)           113.7671                                         !
 ! A79   A(42,44,45)           108.4309                                         !
 ! A80   A(42,44,46)           105.379                                          !
 ! A81   A(42,44,47)           110.8766                                         !
 ! A82   A(45,44,46)           109.593                                          !
 ! A83   A(45,44,47)           109.5169                                         !
 ! A84   A(46,44,47)           112.8938                                         !
 ! A85   A(44,46,50)           119.8861                                         !
 ! A86   A(44,46,56)           116.8657                                         !
 ! A87   A(50,46,56)           123.2468                                         !
 ! A88   A(44,47,48)           106.9516                                         !
 ! A89   A(44,47,49)           109.9456                                         !
 ! A90   A(44,47,51)           115.2211                                         !
 ! A91   A(48,47,49)           108.3323                                         !
 ! A92   A(48,47,51)           109.1513                                         !
 ! A93   A(49,47,51)           107.0725                                         !
 ! A94   A(47,51,52)           115.0423                                         !
 ! A95   A(47,51,55)           122.7206                                         !
 ! A96   A(52,51,55)           122.1737                                         !
 ! A97   A(51,52,53)           114.5314                                         !
 ! A98   A(51,52,54)           119.1226                                         !
 ! A99   A(53,52,54)           114.9736                                         !
 ! A100  A(46,56,57)           120.6753                                         !
 ! A101  A(46,56,58)           119.3616                                         !
 ! A102  A(57,56,58)           119.5745                                         !
 ! A103  A(56,58,59)           107.052                                          !
 ! A104  A(56,58,60)           112.3807                                         !
 ! A105  A(56,58,61)           112.4859                                         !
 ! A106  A(59,58,60)           105.7681                                         !
 ! A107  A(59,58,61)           107.8753                                         !
 ! A108  A(60,58,61)           110.8708                                         !
 ! A109  A(58,60,64)           123.0622                                         !
 ! A110  A(58,60,79)           113.5939                                         !
 ! A111  A(64,60,79)           123.3421                                         !
 ! A112  A(58,61,62)           110.2183                                         !
 ! A113  A(58,61,63)           107.4379                                         !
 ! A114  A(58,61,65)           112.715                                          !
 ! A115  A(62,61,63)           106.9184                                         !
 ! A116  A(62,61,65)           110.1987                                         !
 ! A117  A(63,61,65)           109.1422                                         !
 ! A118  A(61,65,66)           110.1782                                         !
 ! A119  A(61,65,67)           108.8855                                         !
 ! A120  A(61,65,68)           113.2245                                         !
 ! A121  A(66,65,67)           106.8254                                         !
 ! A122  A(66,65,68)           109.2973                                         !
 ! A123  A(67,65,68)           108.2101                                         !
 ! A124  A(65,68,69)           109.158                                          !
 ! A125  A(65,68,70)           109.4296                                         !
 ! A126  A(65,68,71)           109.9474                                         !
 ! A127  A(69,68,70)           106.9567                                         !
 ! A128  A(69,68,71)           109.5191                                         !
 ! A129  A(70,68,71)           111.7562                                         !
 ! A130  A(68,71,72)           114.6519                                         !
 ! A131  A(68,71,78)           123.2838                                         !
 ! A132  A(72,71,78)           110.2732                                         !
 ! A133  A(74,73,75)           112.2818                                         !
 ! A134  A(74,73,78)           114.6147                                         !
 ! A135  A(75,73,78)           116.5593                                         !
 ! A136  A(77,76,78)           110.9781                                         !
 ! A137  A(71,78,73)           114.5919                                         !
 ! A138  A(71,78,76)           118.9512                                         !
 ! A139  A(73,78,76)           126.4346                                         !
 ! A140  A(60,79,80)           106.6099                                         !
 ! D1    D(2,1,5,6)             17.9062                                         !
 ! D2    D(2,1,5,7)           -100.0333                                         !
 ! D3    D(2,1,5,8)            138.9302                                         !
 ! D4    D(3,1,5,6)            134.0326                                         !
 ! D5    D(3,1,5,7)             16.0931                                         !
 ! D6    D(3,1,5,8)           -104.9434                                         !
 ! D7    D(4,1,5,6)           -106.5483                                         !
 ! D8    D(4,1,5,7)            135.5122                                         !
 ! D9    D(4,1,5,8)             14.4757                                         !
 ! D10   D(1,5,7,11)           -16.5763                                         !
 ! D11   D(1,5,7,23)           163.4435                                         !
 ! D12   D(6,5,7,11)          -132.0588                                         !
 ! D13   D(6,5,7,23)            47.9609                                         !
 ! D14   D(8,5,7,11)           101.2103                                         !
 ! D15   D(8,5,7,23)           -78.77                                           !
 ! D16   D(1,5,8,9)             61.1235                                         !
 ! D17   D(1,5,8,10)           -54.8296                                         !
 ! D18   D(1,5,8,12)          -176.1403                                         !
 ! D19   D(6,5,8,9)           -179.3229                                         !
 ! D20   D(6,5,8,10)            64.724                                          !
 ! D21   D(6,5,8,12)           -56.5867                                         !
 ! D22   D(7,5,8,9)            -52.0906                                         !
 ! D23   D(7,5,8,10)          -168.0437                                         !
 ! D24   D(7,5,8,12)            70.6456                                         !
 ! D25   D(5,7,23,24)            2.0949                                         !
 ! D26   D(5,7,23,25)          179.0863                                         !
 ! D27   D(11,7,23,24)        -177.8833                                         !
 ! D28   D(11,7,23,25)          -0.8919                                         !
 ! D29   D(5,8,12,13)         -110.7698                                         !
 ! D30   D(5,8,12,15)           70.0629                                         !
 ! D31   D(9,8,12,13)           11.1011                                         !
 ! D32   D(9,8,12,15)         -168.0662                                         !
 ! D33   D(10,8,12,13)         129.0403                                         !
 ! D34   D(10,8,12,15)         -50.1271                                         !
 ! D35   D(8,12,13,14)           0.0845                                         !
 ! D36   D(8,12,13,17)        -179.0513                                         !
 ! D37   D(15,12,13,14)        179.2617                                         !
 ! D38   D(15,12,13,17)          0.126                                          !
 ! D39   D(8,12,15,16)           0.8492                                         !
 ! D40   D(8,12,15,19)         179.5046                                         !
 ! D41   D(13,12,15,16)       -178.3303                                         !
 ! D42   D(13,12,15,19)          0.3251                                         !
 ! D43   D(12,13,17,18)        179.002                                          !
 ! D44   D(12,13,17,21)         -0.4371                                         !
 ! D45   D(14,13,17,18)         -0.1345                                         !
 ! D46   D(14,13,17,21)       -179.5735                                         !
 ! D47   D(12,15,19,20)       -179.6417                                         !
 ! D48   D(12,15,19,21)         -0.4653                                         !
 ! D49   D(16,15,19,20)         -0.9759                                         !
 ! D50   D(16,15,19,21)        178.2005                                         !
 ! D51   D(13,17,21,19)          0.297                                          !
 ! D52   D(13,17,21,22)        179.6355                                         !
 ! D53   D(18,17,21,19)       -179.1391                                         !
 ! D54   D(18,17,21,22)          0.1994                                         !
 ! D55   D(15,19,21,17)          0.1522                                         !
 ! D56   D(15,19,21,22)       -179.1871                                         !
 ! D57   D(20,19,21,17)        179.325                                          !
 ! D58   D(20,19,21,22)         -0.0142                                         !
 ! D59   D(7,23,25,26)         -43.2899                                         !
 ! D60   D(7,23,25,27)        -161.5483                                         !
 ! D61   D(7,23,25,28)          77.4506                                         !
 ! D62   D(24,23,25,26)        133.9525                                         !
 ! D63   D(24,23,25,27)         15.6941                                         !
 ! D64   D(24,23,25,28)       -105.307                                          !
 ! D65   D(23,25,27,31)        -24.1817                                         !
 ! D66   D(23,25,27,42)        156.4159                                         !
 ! D67   D(26,25,27,31)       -140.6003                                         !
 ! D68   D(26,25,27,42)         39.9973                                         !
 ! D69   D(28,25,27,31)         95.6311                                         !
 ! D70   D(28,25,27,42)        -83.7713                                         !
 ! D71   D(23,25,28,29)        -52.1643                                         !
 ! D72   D(23,25,28,30)         62.6068                                         !
 ! D73   D(23,25,28,32)       -173.402                                          !
 ! D74   D(26,25,28,29)         67.5795                                         !
 ! D75   D(26,25,28,30)       -177.6493                                         !
 ! D76   D(26,25,28,32)        -53.6581                                         !
 ! D77   D(27,25,28,29)       -168.1039                                         !
 ! D78   D(27,25,28,30)        -53.3327                                         !
 ! D79   D(27,25,28,32)         70.6585                                         !
 ! D80   D(25,27,42,43)          2.3101                                         !
 ! D81   D(25,27,42,44)        172.9493                                         !
 ! D82   D(31,27,42,43)       -177.0674                                         !
 ! D83   D(31,27,42,44)         -6.4281                                         !
 ! D84   D(25,28,32,33)        -59.6679                                         !
 ! D85   D(25,28,32,34)         60.5184                                         !
 ! D86   D(25,28,32,38)       -176.2937                                         !
 ! D87   D(29,28,32,33)        179.9995                                         !
 ! D88   D(29,28,32,34)        -59.8142                                         !
 ! D89   D(29,28,32,38)         63.3737                                         !
 ! D90   D(30,28,32,33)         63.1506                                         !
 ! D91   D(30,28,32,34)       -176.663                                          !
 ! D92   D(30,28,32,38)        -53.4751                                         !
 ! D93   D(28,32,34,35)         56.997                                          !
 ! D94   D(28,32,34,36)        176.4632                                         !
 ! D95   D(28,32,34,37)        -63.4294                                         !
 ! D96   D(33,32,34,35)        177.488                                          !
 ! D97   D(33,32,34,36)        -63.0458                                         !
 ! D98   D(33,32,34,37)         57.0616                                         !
 ! D99   D(38,32,34,35)        -65.7471                                         !
 ! D100  D(38,32,34,36)         53.7191                                         !
 ! D101  D(38,32,34,37)        173.8265                                         !
 ! D102  D(28,32,38,39)        -62.6849                                         !
 ! D103  D(28,32,38,40)         57.5689                                         !
 ! D104  D(28,32,38,41)        178.0232                                         !
 ! D105  D(33,32,38,39)        179.6579                                         !
 ! D106  D(33,32,38,40)        -60.0884                                         !
 ! D107  D(33,32,38,41)         60.3659                                         !
 ! D108  D(34,32,38,39)         62.2083                                         !
 ! D109  D(34,32,38,40)       -177.5379                                         !
 ! D110  D(34,32,38,41)        -57.0836                                         !
 ! D111  D(27,42,44,45)        -41.7844                                         !
 ! D112  D(27,42,44,46)       -159.059                                          !
 ! D113  D(27,42,44,47)         78.4802                                         !
 ! D114  D(43,42,44,45)        129.6076                                         !
 ! D115  D(43,42,44,46)         12.3329                                         !
 ! D116  D(43,42,44,47)       -110.1279                                         !
 ! D117  D(42,44,46,50)        -14.5999                                         !
 ! D118  D(42,44,46,56)        164.9942                                         !
 ! D119  D(45,44,46,50)       -131.0846                                         !
 ! D120  D(45,44,46,56)         48.5095                                         !
 ! D121  D(47,44,46,50)        106.5543                                         !
 ! D122  D(47,44,46,56)        -73.8516                                         !
 ! D123  D(42,44,47,48)        -55.7341                                         !
 ! D124  D(42,44,47,49)         61.6794                                         !
 ! D125  D(42,44,47,51)       -177.2459                                         !
 ! D126  D(45,44,47,48)         63.8821                                         !
 ! D127  D(45,44,47,49)       -178.7043                                         !
 ! D128  D(45,44,47,51)        -57.6297                                         !
 ! D129  D(46,44,47,48)       -173.7142                                         !
 ! D130  D(46,44,47,49)        -56.3007                                         !
 ! D131  D(46,44,47,51)         64.774                                          !
 ! D132  D(44,46,56,57)          4.0434                                         !
 ! D133  D(44,46,56,58)        176.8578                                         !
 ! D134  D(50,46,56,57)       -176.3774                                         !
 ! D135  D(50,46,56,58)         -3.5631                                         !
 ! D136  D(44,47,51,52)         48.6837                                         !
 ! D137  D(44,47,51,55)       -128.4776                                         !
 ! D138  D(48,47,51,52)        -71.6308                                         !
 ! D139  D(48,47,51,55)        111.208                                          !
 ! D140  D(49,47,51,52)        171.3069                                         !
 ! D141  D(49,47,51,55)         -5.8543                                         !
 ! D142  D(47,51,52,53)        169.8271                                         !
 ! D143  D(47,51,52,54)         28.059                                          !
 ! D144  D(55,51,52,53)        -12.9945                                         !
 ! D145  D(55,51,52,54)       -154.7626                                         !
 ! D146  D(46,56,58,59)        -46.7932                                         !
 ! D147  D(46,56,58,60)       -162.4955                                         !
 ! D148  D(46,56,58,61)         71.5296                                         !
 ! D149  D(57,56,58,59)        126.1012                                         !
 ! D150  D(57,56,58,60)         10.399                                          !
 ! D151  D(57,56,58,61)       -115.5759                                         !
 ! D152  D(56,58,60,64)       -178.2827                                         !
 ! D153  D(56,58,60,79)          1.2471                                         !
 ! D154  D(59,58,60,64)         65.2428                                         !
 ! D155  D(59,58,60,79)       -115.2275                                         !
 ! D156  D(61,58,60,64)        -51.4372                                         !
 ! D157  D(61,58,60,79)        128.0925                                         !
 ! D158  D(56,58,61,62)         99.6249                                         !
 ! D159  D(56,58,61,63)        -16.5262                                         !
 ! D160  D(56,58,61,65)       -136.7979                                         !
 ! D161  D(59,58,61,62)       -142.5379                                         !
 ! D162  D(59,58,61,63)        101.3111                                         !
 ! D163  D(59,58,61,65)        -18.9606                                         !
 ! D164  D(60,58,61,62)        -27.1626                                         !
 ! D165  D(60,58,61,63)       -143.3137                                         !
 ! D166  D(60,58,61,65)         96.4147                                         !
 ! D167  D(58,60,79,80)        179.0619                                         !
 ! D168  D(64,60,79,80)         -1.4099                                         !
 ! D169  D(58,61,65,66)        -72.311                                          !
 ! D170  D(58,61,65,67)         44.5384                                         !
 ! D171  D(58,61,65,68)        164.9495                                         !
 ! D172  D(62,61,65,66)         51.2772                                         !
 ! D173  D(62,61,65,67)        168.1265                                         !
 ! D174  D(62,61,65,68)        -71.4623                                         !
 ! D175  D(63,61,65,66)        168.4018                                         !
 ! D176  D(63,61,65,67)        -74.7488                                         !
 ! D177  D(63,61,65,68)         45.6623                                         !
 ! D178  D(61,65,68,69)         61.2326                                         !
 ! D179  D(61,65,68,70)        177.9724                                         !
 ! D180  D(61,65,68,71)        -58.9246                                         !
 ! D181  D(66,65,68,69)        -61.9939                                         !
 ! D182  D(66,65,68,70)         54.7459                                         !
 ! D183  D(66,65,68,71)        177.8489                                         !
 ! D184  D(67,65,68,69)       -177.9732                                         !
 ! D185  D(67,65,68,70)        -61.2333                                         !
 ! D186  D(67,65,68,71)         61.8697                                         !
 ! D187  D(65,68,71,72)        -28.529                                          !
 ! D188  D(65,68,71,78)       -167.7585                                         !
 ! D189  D(69,68,71,72)       -148.467                                          !
 ! D190  D(69,68,71,78)         72.3034                                         !
 ! D191  D(70,68,71,72)         93.1972                                         !
 ! D192  D(70,68,71,78)        -46.0324                                         !
 ! D193  D(68,71,78,73)        -25.7311                                         !
 ! D194  D(68,71,78,76)        152.6593                                         !
 ! D195  D(72,71,78,73)       -166.481                                          !
 ! D196  D(72,71,78,76)         11.9094                                         !
 ! D197  D(74,73,78,71)       -164.747                                          !
 ! D198  D(74,73,78,76)         17.0037                                         !
 ! D199  D(75,73,78,71)        -30.6974                                         !
 ! D200  D(75,73,78,76)        151.0533                                         !
 ! D201  D(77,76,78,71)        175.8615                                         !
 ! D202  D(77,76,78,73)         -5.9578                                         !
 --------------------------------------------------------------------------------
 Symmetry turned off by external request.
 Stoichiometry    C25H41N8O6(1+)
 Framework group  C1[X(C25H41N8O6)]
 Deg. of freedom   234
 Full point group                 C1      NOp   1
                          Input orientation:                          
 ---------------------------------------------------------------------
 Center     Atomic      Atomic             Coordinates (Angstroms)
 Number     Number       Type             X           Y           Z
 ---------------------------------------------------------------------
      1          7           0       -6.166111    0.675787    2.104654
      2          1           0       -6.602293    1.589859    2.255277
      3          1           0       -6.001761    0.539712    1.054719
      4          1           0       -6.779967   -0.048201    2.488442
      5          6           0       -4.742981    0.594024    2.628025
      6          1           0       -4.587599    1.412285    3.333891
      7          6           0       -3.915340    0.790390    1.324551
      8          6           0       -4.523372   -0.773117    3.314736
      9          1           0       -4.676266   -1.565861    2.572288
     10          1           0       -5.301231   -0.887843    4.083098
     11          8           0       -4.524862    0.632841    0.250192
     12          6           0       -3.155052   -0.911898    3.952400
     13          6           0       -2.205844   -1.790760    3.417312
     14          1           0       -2.449701   -2.378935    2.535787
     15          6           0       -2.830059   -0.172134    5.098998
     16          1           0       -3.564993    0.495951    5.545121
     17          6           0       -0.954030   -1.930663    4.018524
     18          1           0       -0.232568   -2.628013    3.602800
     19          6           0       -1.576097   -0.304740    5.694427
     20          1           0       -1.338538    0.269082    6.585188
     21          6           0       -0.636598   -1.186140    5.155165
     22          1           0        0.335110   -1.299113    5.626642
     23          7           0       -2.637560    1.106740    1.451010
     24          1           0       -2.179454    1.193062    2.360262
     25          6           0       -1.720665    1.306238    0.319869
     26          1           0       -1.898348    0.513285   -0.411921
     27          6           0       -0.319262    1.177310    0.945181
     28          6           0       -1.951533    2.693622   -0.333225
     29          1           0       -3.024768    2.764540   -0.551038
     30          1           0       -1.722103    3.458417    0.420602
     31          8           0       -0.157595    1.399629    2.150505
     32          6           0       -1.170881    2.985287   -1.632220
     33          1           0       -0.095150    2.915743   -1.420394
     34          6           0       -1.501041    2.002544   -2.767409
     35          1           0       -2.577618    2.005237   -2.983860
     36          1           0       -0.967288    2.296273   -3.677627
     37          1           0       -1.217093    0.967216   -2.534652
     38          6           0       -1.450286    4.428123   -2.082050
     39          1           0       -2.513915    4.566439   -2.317215
     40          1           0       -1.181271    5.152805   -1.303598
     41          1           0       -0.871837    4.652419   -2.983581
     42          7           0        0.674077    0.831463    0.110406
     43          1           0        0.529401    0.694553   -0.888430
     44          6           0        2.073197    0.812683    0.508131
     45          1           0        2.271713    1.700359    1.118192
     46          6           0        2.874518    0.899747   -0.808904
     47          6           0        2.397514   -0.463003    1.328533
     48          1           0        1.700942   -0.484116    2.175762
     49          1           0        2.223765   -1.352527    0.718597
     50          8           0        2.309672    0.695133   -1.887189
     51          6           0        3.828831   -0.552341    1.854267
     52          7           0        4.290354    0.586793    2.497108
     53          1           0        5.172900    0.468011    2.982576
     54          1           0        3.625568    1.194998    2.960674
     55          8           0        4.534165   -1.527045    1.677999
     56          7           0        4.181821    1.211196   -0.706974
     57          1           0        4.619208    1.317935    0.202447
     58          6           0        5.008827    1.240512   -1.914235
     59          1           0        4.788166    0.325239   -2.477700
     60          6           0        6.494777    1.183599   -1.599373
     61          6           0        4.682319    2.455514   -2.829906
     62          1           0        5.416943    3.254418   -2.675605
     63          1           0        3.713678    2.849902   -2.517109
     64          8           0        7.350672    1.226732   -2.450278
     65          6           0        4.615482    2.076752   -4.315892
     66          1           0        5.621147    1.875335   -4.700018
     67          1           0        4.042565    1.144605   -4.419998
     68          6           0        3.947903    3.148065   -5.182642
     69          1           0        4.530284    4.078701   -5.118491
     70          1           0        3.965821    2.830448   -6.235212
     71          7           0        2.582662    3.391828   -4.712404
     72          1           0        2.140404    2.595480   -4.265894
     73          7           0        2.192973    5.048627   -6.315040
     74          1           0        1.536843    5.737953   -6.657985
     75          1           0        3.078741    5.460853   -6.048526
     76          7           0        0.393991    3.864539   -5.263614
     77          1           0       -0.185204    4.512122   -5.799410
     78          6           0        1.648672    4.117893   -5.433072
     79          8           0        6.765277    1.090294   -0.275234
     80          1           0        7.737234    1.045700   -0.191324
 ---------------------------------------------------------------------
 Rotational constants (GHZ):           0.1150193           0.0512563           0.0370555
 Standard basis: 6-31G(d) (6D, 7F)
   667 basis functions,  1256 primitive gaussians,   667 cartesian basis functions
   147 alpha electrons      147 beta electrons
       nuclear repulsion energy      4638.6685519661 Hartrees.
 NAtoms=   80 NActive=   80 NUniq=   80 SFac= 1.00D+00 NAtFMM=   60 NAOKFM=T Big=T
 Integral buffers will be    131072 words long.
 Raffenetti 2 integral format.
 Two-electron integral symmetry is turned off.
 One-electron integrals computed using PRISM.
 NBasis=   667 RedAO= T EigKep=  4.71D-04  NBF=   667
 NBsUse=   667 1.00D-06 EigRej= -1.00D+00 NBFU=   667
 Initial guess from the checkpoint file:  "conf-496.chk"
 B after Tr=     0.000000    0.000000    0.000000
         Rot=    1.000000    0.000000    0.000000    0.000000 Ang=   0.00 deg.
 Requested convergence on RMS density matrix=1.00D-08 within 128 cycles.
 Requested convergence on MAX density matrix=1.00D-06.
 Requested convergence on             energy=1.00D-06.
 No special actions if energy rises.
 SCF Done:  E(RB3LYP) =  -1866.57829454     A.U. after    1 cycles
            NFock=  1  Conv=0.59D-08     -V/T= 2.0094

 **********************************************************************

            Population analysis using the SCF Density.

 **********************************************************************

 Alpha  occ. eigenvalues --  -19.27704 -19.26805 -19.22045 -19.21299 -19.20943
 Alpha  occ. eigenvalues --  -19.19819 -14.60152 -14.49368 -14.45754 -14.44733
 Alpha  occ. eigenvalues --  -14.44104 -14.40258 -14.39418 -14.33288 -10.43509
 Alpha  occ. eigenvalues --  -10.41151 -10.39818 -10.39065 -10.37930 -10.37428
 Alpha  occ. eigenvalues --  -10.34576 -10.34111 -10.33561 -10.33299 -10.31709
 Alpha  occ. eigenvalues --  -10.31394 -10.29955 -10.29721 -10.29284 -10.29178
 Alpha  occ. eigenvalues --  -10.29063 -10.28510 -10.27836 -10.27612 -10.26179
 Alpha  occ. eigenvalues --  -10.25635 -10.24875 -10.23190 -10.23149  -1.19304
 Alpha  occ. eigenvalues --   -1.18336  -1.14250  -1.13723  -1.12720  -1.11666
 Alpha  occ. eigenvalues --   -1.09236  -1.05895  -1.02676  -1.02475  -1.01260
 Alpha  occ. eigenvalues --   -0.98636  -0.97058  -0.93963  -0.93118  -0.89922
 Alpha  occ. eigenvalues --   -0.89366  -0.87772  -0.86231  -0.85738  -0.84928
 Alpha  occ. eigenvalues --   -0.83544  -0.81108  -0.79938  -0.77457  -0.75325
 Alpha  occ. eigenvalues --   -0.74378  -0.74235  -0.73973  -0.73360  -0.71249
 Alpha  occ. eigenvalues --   -0.70693  -0.69151  -0.68762  -0.68580  -0.67424
 Alpha  occ. eigenvalues --   -0.66530  -0.66220  -0.65866  -0.65262  -0.63910
 Alpha  occ. eigenvalues --   -0.62961  -0.62530  -0.61968  -0.61566  -0.59718
 Alpha  occ. eigenvalues --   -0.58962  -0.58422  -0.57758  -0.57126  -0.56838
 Alpha  occ. eigenvalues --   -0.56740  -0.56261  -0.55941  -0.55597  -0.55215
 Alpha  occ. eigenvalues --   -0.54914  -0.54145  -0.53581  -0.52961  -0.52654
 Alpha  occ. eigenvalues --   -0.52415  -0.52351  -0.52023  -0.51875  -0.50989
 Alpha  occ. eigenvalues --   -0.50665  -0.50522  -0.50369  -0.49945  -0.49499
 Alpha  occ. eigenvalues --   -0.49349  -0.48698  -0.48067  -0.47769  -0.47330
 Alpha  occ. eigenvalues --   -0.46370  -0.46197  -0.46094  -0.45487  -0.45078
 Alpha  occ. eigenvalues --   -0.44651  -0.44629  -0.44547  -0.44184  -0.43223
 Alpha  occ. eigenvalues --   -0.43060  -0.41764  -0.41381  -0.41018  -0.40984
 Alpha  occ. eigenvalues --   -0.40135  -0.39630  -0.39417  -0.39283  -0.37982
 Alpha  occ. eigenvalues --   -0.36588  -0.36210  -0.35629  -0.35415  -0.35300
 Alpha  occ. eigenvalues --   -0.35221  -0.34698  -0.33725  -0.32860  -0.31796
 Alpha  occ. eigenvalues --   -0.30975  -0.26875
 Alpha virt. eigenvalues --   -0.12636  -0.11424  -0.11341  -0.10687  -0.08319
 Alpha virt. eigenvalues --   -0.06868  -0.06419  -0.06247  -0.05943  -0.03272
 Alpha virt. eigenvalues --   -0.01893  -0.01368  -0.01208  -0.00205   0.00014
 Alpha virt. eigenvalues --    0.00156   0.00584   0.01421   0.01803   0.01865
 Alpha virt. eigenvalues --    0.02489   0.03439   0.03798   0.04037   0.04225
 Alpha virt. eigenvalues --    0.04674   0.04899   0.05396   0.05496   0.05643
 Alpha virt. eigenvalues --    0.05844   0.06209   0.06583   0.06898   0.07271
 Alpha virt. eigenvalues --    0.07460   0.07762   0.08518   0.08816   0.08920
 Alpha virt. eigenvalues --    0.09441   0.09823   0.09993   0.10118   0.10485
 Alpha virt. eigenvalues --    0.10870   0.11407   0.11514   0.11867   0.12286
 Alpha virt. eigenvalues --    0.12870   0.13108   0.13276   0.13748   0.14815
 Alpha virt. eigenvalues --    0.14903   0.15564   0.15699   0.16097   0.16189
 Alpha virt. eigenvalues --    0.16606   0.17529   0.17937   0.18204   0.19173
 Alpha virt. eigenvalues --    0.19573   0.20099   0.20414   0.20492   0.21350
 Alpha virt. eigenvalues --    0.21496   0.21655   0.22290   0.23048   0.24037
 Alpha virt. eigenvalues --    0.24068   0.24343   0.25200   0.26581   0.27147
 Alpha virt. eigenvalues --    0.29265   0.29793   0.30527   0.31302   0.32456
 Alpha virt. eigenvalues --    0.34027   0.35437   0.36704   0.38358   0.38810
 Alpha virt. eigenvalues --    0.39053   0.41001   0.41998   0.42559   0.42978
 Alpha virt. eigenvalues --    0.43438   0.43802   0.44146   0.44501   0.44803
 Alpha virt. eigenvalues --    0.45115   0.45334   0.45485   0.46121   0.46321
 Alpha virt. eigenvalues --    0.46997   0.47497   0.47948   0.48190   0.48722
 Alpha virt. eigenvalues --    0.48867   0.49440   0.49770   0.50105   0.50537
 Alpha virt. eigenvalues --    0.50804   0.51512   0.51816   0.52071   0.52289
 Alpha virt. eigenvalues --    0.52596   0.52854   0.53263   0.53431   0.53975
 Alpha virt. eigenvalues --    0.54444   0.54940   0.55660   0.55875   0.56391
 Alpha virt. eigenvalues --    0.56504   0.57529   0.57952   0.58255   0.58703
 Alpha virt. eigenvalues --    0.59205   0.59578   0.59998   0.60213   0.60680
 Alpha virt. eigenvalues --    0.61285   0.61430   0.62220   0.62908   0.63718
 Alpha virt. eigenvalues --    0.63860   0.64143   0.64531   0.64905   0.65485
 Alpha virt. eigenvalues --    0.65633   0.66103   0.66467   0.67507   0.68183
 Alpha virt. eigenvalues --    0.68425   0.68717   0.69425   0.69752   0.70190
 Alpha virt. eigenvalues --    0.70264   0.71106   0.71256   0.71450   0.72131
 Alpha virt. eigenvalues --    0.72455   0.73304   0.73597   0.74200   0.74310
 Alpha virt. eigenvalues --    0.74551   0.74681   0.75089   0.75689   0.75768
 Alpha virt. eigenvalues --    0.76345   0.76416   0.77414   0.77487   0.77903
 Alpha virt. eigenvalues --    0.78137   0.78780   0.78976   0.79517   0.79539
 Alpha virt. eigenvalues --    0.79963   0.80451   0.80667   0.80841   0.81234
 Alpha virt. eigenvalues --    0.81322   0.82256   0.82386   0.82670   0.83083
 Alpha virt. eigenvalues --    0.83250   0.83444   0.83858   0.84142   0.84358
 Alpha virt. eigenvalues --    0.84508   0.84828   0.84876   0.85380   0.85648
 Alpha virt. eigenvalues --    0.86061   0.86383   0.87084   0.87464   0.87600
 Alpha virt. eigenvalues --    0.88125   0.88508   0.88963   0.89494   0.90219
 Alpha virt. eigenvalues --    0.90521   0.91339   0.91790   0.92214   0.93175
 Alpha virt. eigenvalues --    0.93291   0.93447   0.94685   0.95257   0.96508
 Alpha virt. eigenvalues --    0.96932   0.97663   0.97780   0.98535   0.98865
 Alpha virt. eigenvalues --    0.99713   1.00725   1.01263   1.01673   1.02771
 Alpha virt. eigenvalues --    1.03446   1.04477   1.04988   1.05567   1.05887
 Alpha virt. eigenvalues --    1.06167   1.07202   1.08031   1.08468   1.09704
 Alpha virt. eigenvalues --    1.10395   1.11431   1.12104   1.13194   1.14745
 Alpha virt. eigenvalues --    1.15392   1.15584   1.15947   1.16840   1.18865
 Alpha virt. eigenvalues --    1.20302   1.21209   1.22504   1.22984   1.23732
 Alpha virt. eigenvalues --    1.25208   1.26358   1.27177   1.27909   1.28450
 Alpha virt. eigenvalues --    1.29717   1.29820   1.31469   1.31963   1.32252
 Alpha virt. eigenvalues --    1.33669   1.33918   1.34225   1.34932   1.35428
 Alpha virt. eigenvalues --    1.35879   1.36597   1.37048   1.37596   1.38344
 Alpha virt. eigenvalues --    1.38522   1.39400   1.40481   1.40850   1.41948
 Alpha virt. eigenvalues --    1.42706   1.43757   1.45297   1.45443   1.46459
 Alpha virt. eigenvalues --    1.48089   1.49216   1.50156   1.52125   1.52989
 Alpha virt. eigenvalues --    1.53940   1.54327   1.55278   1.56019   1.57687
 Alpha virt. eigenvalues --    1.57890   1.58443   1.60537   1.61213   1.61624
 Alpha virt. eigenvalues --    1.62575   1.63007   1.63732   1.64496   1.65092
 Alpha virt. eigenvalues --    1.66266   1.66581   1.66910   1.68575   1.68964
 Alpha virt. eigenvalues --    1.69408   1.69750   1.70008   1.70165   1.70947
 Alpha virt. eigenvalues --    1.71259   1.71645   1.72266   1.72664   1.73368
 Alpha virt. eigenvalues --    1.73813   1.74069   1.74451   1.74917   1.75203
 Alpha virt. eigenvalues --    1.75366   1.76362   1.76624   1.77014   1.77870
 Alpha virt. eigenvalues --    1.78890   1.79201   1.79730   1.80244   1.80461
 Alpha virt. eigenvalues --    1.81092   1.81329   1.82242   1.83062   1.83553
 Alpha virt. eigenvalues --    1.84211   1.84661   1.85610   1.86044   1.86523
 Alpha virt. eigenvalues --    1.87222   1.87371   1.88116   1.88388   1.88765
 Alpha virt. eigenvalues --    1.89558   1.90431   1.90766   1.91597   1.92194
 Alpha virt. eigenvalues --    1.92565   1.92821   1.93789   1.94923   1.95367
 Alpha virt. eigenvalues --    1.95706   1.96143   1.96926   1.98110   1.98475
 Alpha virt. eigenvalues --    1.99843   2.00205   2.01370   2.01688   2.01929
 Alpha virt. eigenvalues --    2.02352   2.02825   2.04103   2.04502   2.05092
 Alpha virt. eigenvalues --    2.05325   2.05982   2.07482   2.07990   2.09554
 Alpha virt. eigenvalues --    2.10394   2.10638   2.12172   2.13244   2.13814
 Alpha virt. eigenvalues --    2.15030   2.16340   2.17855   2.18132   2.18764
 Alpha virt. eigenvalues --    2.19509   2.19959   2.20544   2.20950   2.21423
 Alpha virt. eigenvalues --    2.21444   2.23221   2.23604   2.23909   2.25529
 Alpha virt. eigenvalues --    2.25952   2.26255   2.27494   2.28308   2.29384
 Alpha virt. eigenvalues --    2.30515   2.31098   2.32167   2.32423   2.34091
 Alpha virt. eigenvalues --    2.34839   2.36008   2.37022   2.38038   2.38803
 Alpha virt. eigenvalues --    2.39336   2.40591   2.41734   2.41791   2.43225
 Alpha virt. eigenvalues --    2.44881   2.45368   2.45636   2.46364   2.47569
 Alpha virt. eigenvalues --    2.48330   2.49286   2.50173   2.51446   2.52871
 Alpha virt. eigenvalues --    2.54066   2.54530   2.54995   2.55582   2.55848
 Alpha virt. eigenvalues --    2.56326   2.57409   2.57773   2.58384   2.59443
 Alpha virt. eigenvalues --    2.60484   2.61912   2.62628   2.63282   2.63835
 Alpha virt. eigenvalues --    2.64515   2.64687   2.65358   2.65621   2.67043
 Alpha virt. eigenvalues --    2.69810   2.70201   2.71806   2.72290   2.72826
 Alpha virt. eigenvalues --    2.74473   2.76617   2.78432   2.79478   2.81323
 Alpha virt. eigenvalues --    2.83068   2.85798   2.87763   2.89767   2.90872
 Alpha virt. eigenvalues --    2.91817   2.93980   2.94767   2.96102   2.97915
 Alpha virt. eigenvalues --    3.01677   3.02724   3.06590   3.10912   3.13727
 Alpha virt. eigenvalues --    3.30324   3.63841   3.75594   3.77153   3.81799
 Alpha virt. eigenvalues --    3.86952   3.92277   3.92864   3.93407   3.97509
 Alpha virt. eigenvalues --    3.99153   3.99514   4.01466   4.02292   4.03795
 Alpha virt. eigenvalues --    4.05661   4.07714   4.12408   4.13920   4.16245
 Alpha virt. eigenvalues --    4.17033   4.18587   4.21182   4.23640   4.24148
 Alpha virt. eigenvalues --    4.24776   4.25248   4.28417   4.31948   4.33788
 Alpha virt. eigenvalues --    4.36074   4.39295   4.46288   4.47477   4.48034
 Alpha virt. eigenvalues --    4.51808   4.55628   4.57536   4.59306   4.59764
          Condensed to atoms (all electrons):
 Mulliken charges:
               1
     1  N   -0.759622
     2  H    0.416386
     3  H    0.435833
     4  H    0.412446
     5  C   -0.108353
     6  H    0.215305
     7  C    0.658820
     8  C   -0.382289
     9  H    0.187963
    10  H    0.182776
    11  O   -0.548677
    12  C    0.149517
    13  C   -0.178846
    14  H    0.145026
    15  C   -0.189950
    16  H    0.131102
    17  C   -0.123959
    18  H    0.160448
    19  C   -0.118048
    20  H    0.159341
    21  C   -0.118073
    22  H    0.158201
    23  N   -0.607029
    24  H    0.380666
    25  C   -0.060200
    26  H    0.191604
    27  C    0.626575
    28  C   -0.258364
    29  H    0.156378
    30  H    0.146229
    31  O   -0.555433
    32  C   -0.086005
    33  H    0.130726
    34  C   -0.482101
    35  H    0.139798
    36  H    0.219572
    37  H    0.120812
    38  C   -0.459344
    39  H    0.135438
    40  H    0.133311
    41  H    0.190101
    42  N   -0.625548
    43  H    0.382538
    44  C   -0.054708
    45  H    0.176797
    46  C    0.633087
    47  C   -0.363563
    48  H    0.191381
    49  H    0.191306
    50  O   -0.544866
    51  C    0.545679
    52  N   -0.748729
    53  H    0.353170
    54  H    0.342851
    55  O   -0.458576
    56  N   -0.643648
    57  H    0.382413
    58  C   -0.024217
    59  H    0.210434
    60  C    0.580461
    61  C   -0.268846
    62  H    0.156322
    63  H    0.176897
    64  O   -0.443145
    65  C   -0.313492
    66  H    0.177478
    67  H    0.158373
    68  C   -0.118823
    69  H    0.137194
    70  H    0.164249
    71  N   -0.602938
    72  H    0.340603
    73  N   -0.746288
    74  H    0.329334
    75  H    0.330920
    76  N   -0.663628
    77  H    0.267680
    78  C    0.596330
    79  O   -0.579648
    80  H    0.427087
 Sum of Mulliken charges =   1.00000
 Mulliken charges with hydrogens summed into heavy atoms:
               1
     1  N    0.505043
     5  C    0.106952
     7  C    0.658820
     8  C   -0.011550
    11  O   -0.548677
    12  C    0.149517
    13  C   -0.033820
    15  C   -0.058848
    17  C    0.036489
    19  C    0.041293
    21  C    0.040128
    23  N   -0.226363
    25  C    0.131404
    27  C    0.626575
    28  C    0.044243
    31  O   -0.555433
    32  C    0.044720
    34  C   -0.001919
    38  C   -0.000494
    42  N   -0.243011
    44  C    0.122089
    46  C    0.633087
    47  C    0.019124
    50  O   -0.544866
    51  C    0.545679
    52  N   -0.052708
    55  O   -0.458576
    56  N   -0.261235
    58  C    0.186216
    60  C    0.580461
    61  C    0.064373
    64  O   -0.443145
    65  C    0.022359
    68  C    0.182620
    71  N   -0.262335
    73  N   -0.086034
    76  N   -0.395949
    78  C    0.596330
    79  O   -0.152561
 Electronic spatial extent (au):  <R**2>=          29494.3991
 Charge=              1.0000 electrons
 Dipole moment (field-independent basis, Debye):
    X=            -13.7993    Y=              7.7794    Z=             11.4681  Tot=             19.5565
 Quadrupole moment (field-independent basis, Debye-Ang):
   XX=            -75.7087   YY=           -198.2171   ZZ=           -172.7876
   XY=             12.6237   XZ=            -50.0164   YZ=            -12.8815
 Traceless Quadrupole moment (field-independent basis, Debye-Ang):
   XX=             73.1958   YY=            -49.3126   ZZ=            -23.8832
   XY=             12.6237   XZ=            -50.0164   YZ=            -12.8815
 Octapole moment (field-independent basis, Debye-Ang**2):
  XXX=          -1083.5643  YYY=           -633.0149  ZZZ=            158.8356  XYY=           -121.5044
  XXY=            -59.7457  XXZ=            416.3473  XZZ=           -201.2282  YZZ=            -93.2841
  YYZ=           -145.2167  XYZ=            -73.6358
 Hexadecapole moment (field-independent basis, Debye-Ang**3):
 XXXX=         -11347.3392 YYYY=          -5204.4499 ZZZZ=         -12536.7564 XXXY=          -1267.8279
 XXXZ=           2239.4197 YYYX=           -891.9177 YYYZ=           2058.4969 ZZZX=           3079.7705
 ZZZY=           2412.7643 XXYY=          -3628.0486 XXZZ=          -4234.3612 YYZZ=          -2252.9121
 XXYZ=           1270.4690 YYXZ=            745.4869 ZZXY=           -197.5342
 N-N= 4.638668551966D+03 E-N=-1.359780599004D+04  KE= 1.849119725585D+03
 Unable to Open any file for archive entry.
 1\1\GINC-LAC-307\SP\RB3LYP\6-31G(d)\C25H41N8O6(1+)\KENGMITH\19-Jun-202
 2\0\\# B3LYP/6-31G* guess=read geom=check nosymm integral(ultrafinegri
 d)\\Candidate Structure: Conf:496 Charge calc in gas phase\\1,1\N,0,-6
 .1661105913,0.6757869705,2.10465397\H,0,-6.6022926216,1.5898586966,2.2
 552770372\H,0,-6.0017612217,0.5397120201,1.0547192306\H,0,-6.779967051
 9,-0.0482010107,2.4884415055\C,0,-4.7429814193,0.5940235819,2.62802483
 06\H,0,-4.5875992445,1.4122850684,3.3338905897\C,0,-3.9153404042,0.790
 3900561,1.3245508386\C,0,-4.5233721758,-0.7731165994,3.3147362061\H,0,
 -4.6762660969,-1.565860628,2.5722882604\H,0,-5.3012310519,-0.887843397
 9,4.0830984429\O,0,-4.5248624512,0.6328409761,0.2501915878\C,0,-3.1550
 515113,-0.9118984743,3.9523998605\C,0,-2.2058436747,-1.7907602577,3.41
 7312028\H,0,-2.4497012261,-2.3789347987,2.5357871143\C,0,-2.8300593399
 ,-0.1721342004,5.0989984616\H,0,-3.5649932201,0.4959505431,5.545121309
 1\C,0,-0.9540299168,-1.9306631284,4.0185236894\H,0,-0.2325675885,-2.62
 80131428,3.602800341\C,0,-1.5760968496,-0.3047398317,5.6944274814\H,0,
 -1.338538408,0.2690816883,6.5851880735\C,0,-0.6365975382,-1.1861401109
 ,5.155164627\H,0,0.3351101831,-1.2991132854,5.6266422346\N,0,-2.637559
 7921,1.1067395276,1.4510104246\H,0,-2.1794538612,1.1930618875,2.360262
 043\C,0,-1.720665471,1.3062379338,0.3198691904\H,0,-1.8983479323,0.513
 28511,-0.4119214595\C,0,-0.3192620304,1.1773102454,0.9451806363\C,0,-1
 .9515327928,2.6936218386,-0.3332249681\H,0,-3.0247675591,2.7645402845,
 -0.5510380258\H,0,-1.7221031052,3.4584166634,0.4206023575\O,0,-0.15759
 45404,1.3996292949,2.1505052214\C,0,-1.1708805418,2.9852869552,-1.6322
 196214\H,0,-0.0951497561,2.9157427218,-1.4203942253\C,0,-1.5010405538,
 2.0025441509,-2.7674085061\H,0,-2.5776180553,2.0052367675,-2.983859722
 8\H,0,-0.9672883364,2.2962733651,-3.6776271011\H,0,-1.2170934182,0.967
 2157208,-2.5346522319\C,0,-1.450286422,4.4281231477,-2.0820496676\H,0,
 -2.5139146009,4.5664389798,-2.3172150068\H,0,-1.1812708805,5.152804744
 4,-1.3035979222\H,0,-0.871836858,4.6524191048,-2.9835814211\N,0,0.6740
 7666,0.831462601,0.1104059\H,0,0.5294010663,0.6945525783,-0.8884304267
 \C,0,2.0731965501,0.8126825678,0.5081311728\H,0,2.271712916,1.70035939
 36,1.1181918897\C,0,2.8745176022,0.8997467642,-0.8089035476\C,0,2.3975
 144586,-0.4630026512,1.3285329121\H,0,1.7009424721,-0.4841162333,2.175
 7616874\H,0,2.2237647415,-1.3525272207,0.7185969\O,0,2.3096723412,0.69
 51332788,-1.8871893334\C,0,3.8288312556,-0.55234113,1.854266608\N,0,4.
 2903541147,0.5867933436,2.497107705\H,0,5.1729003265,0.4680110141,2.98
 25764953\H,0,3.6255684962,1.1949975262,2.9606739417\O,0,4.5341654824,-
 1.5270450947,1.6779989309\N,0,4.1818209986,1.2111956373,-0.7069740577\
 H,0,4.6192077431,1.317935304,0.2024472734\C,0,5.0088265775,1.240512099
 6,-1.9142349673\H,0,4.7881662748,0.3252387983,-2.4777002124\C,0,6.4947
 769941,1.1835990019,-1.5993728046\C,0,4.6823194036,2.4555141361,-2.829
 9063135\H,0,5.4169433952,3.2544180968,-2.6756047684\H,0,3.7136776967,2
 .8499019232,-2.5171087573\O,0,7.3506722451,1.2267320223,-2.4502779117\
 C,0,4.6154819304,2.0767516036,-4.3158923521\H,0,5.6211471461,1.8753352
 573,-4.7000183592\H,0,4.0425650515,1.1446053463,-4.4199979827\C,0,3.94
 79026161,3.1480648473,-5.1826423741\H,0,4.5302844483,4.0787005671,-5.1
 184913806\H,0,3.9658212562,2.8304483012,-6.2352124534\N,0,2.5826617166
 ,3.3918275784,-4.7124039068\H,0,2.1404035198,2.5954801523,-4.265893532
 \N,0,2.1929729349,5.0486271302,-6.3150404861\H,0,1.5368432397,5.737953
 342,-6.6579847569\H,0,3.0787407259,5.4608527522,-6.0485263526\N,0,0.39
 39906215,3.864539025,-5.2636138589\H,0,-0.1852038016,4.5121218445,-5.7
 99409509\C,0,1.648671701,4.1178932416,-5.4330715503\O,0,6.7652771081,1
 .0902944697,-0.2752335676\H,0,7.7372340513,1.0456995351,-0.1913242164\
 \Version=ES64L-G16RevC.01\HF=-1866.5782945\RMSD=5.880e-09\Dipole=-6.74
 4815,0.797068,4.7278152\Quadrupole=54.419289,-36.6627359,-17.756553,9.
 3854352,-37.1859538,-9.577105\PG=C01 [X(C25H41N8O6)]\\@
 The archive entry for this job was punched.


 THERE'S A SUCKER BORN EVERY MINUTE

              -- PHINEAS TAYLOR (P.T.) BARNUM
 Job cpu time:       0 days  0 hours  2 minutes  3.3 seconds.
 Elapsed time:       0 days  0 hours  0 minutes 32.1 seconds.
 File lengths (MBytes):  RWF=    344 Int=      0 D2E=      0 Chk=     48 Scr=     16
 Normal termination of Gaussian 16 at Sun Jun 19 01:55:13 2022.
