 Entering Gaussian System, Link 0=/opt/software/Gaussian/g16-AVX2-C.01/g16/g16
 Input=charge-conf-950.com
 Output=charge-conf-950.log
 Initial command:
 /opt/software/Gaussian/g16-AVX2-C.01/g16/l1.exe "/mnt/gs18/scratch/users/kengmith/Gau-15669.inp" -scrdir="/mnt/gs18/scratch/users/kengmith/"
 Entering Link 1 = /opt/software/Gaussian/g16-AVX2-C.01/g16/l1.exe PID=     15680.
  
 Copyright (c) 1988-2019, Gaussian, Inc.  All Rights Reserved.
  
 This is part of the Gaussian(R) 16 program.  It is based on
 the Gaussian(R) 09 system (copyright 2009, Gaussian, Inc.),
 the Gaussian(R) 03 system (copyright 2003, Gaussian, Inc.),
 the Gaussian(R) 98 system (copyright 1998, Gaussian, Inc.),
 the Gaussian(R) 94 system (copyright 1995, Gaussian, Inc.),
 the Gaussian 92(TM) system (copyright 1992, Gaussian, Inc.),
 the Gaussian 90(TM) system (copyright 1990, Gaussian, Inc.),
 the Gaussian 88(TM) system (copyright 1988, Gaussian, Inc.),
 the Gaussian 86(TM) system (copyright 1986, Carnegie Mellon
 University), and the Gaussian 82(TM) system (copyright 1983,
 Carnegie Mellon University). Gaussian is a federally registered
 trademark of Gaussian, Inc.
  
 This software contains proprietary and confidential information,
 including trade secrets, belonging to Gaussian, Inc.
  
 This software is provided under written license and may be
 used, copied, transmitted, or stored only in accord with that
 written license.
  
 The following legend is applicable only to US Government
 contracts under FAR:
  
                    RESTRICTED RIGHTS LEGEND
  
 Use, reproduction and disclosure by the US Government is
 subject to restrictions as set forth in subparagraphs (a)
 and (c) of the Commercial Computer Software - Restricted
 Rights clause in FAR 52.227-19.
  
 Gaussian, Inc.
 340 Quinnipiac St., Bldg. 40, Wallingford CT 06492
  
  
 ---------------------------------------------------------------
 Warning -- This program may not be used in any manner that
 competes with the business of Gaussian, Inc. or will provide
 assistance to any competitor of Gaussian, Inc.  The licensee
 of this program is prohibited from giving any competitor of
 Gaussian, Inc. access to this program.  By using this program,
 the user acknowledges that Gaussian, Inc. is engaged in the
 business of creating and licensing software in the field of
 computational chemistry and represents and warrants to the
 licensee that it is not a competitor of Gaussian, Inc. and that
 it will not use this program in any manner prohibited above.
 ---------------------------------------------------------------
  

 Cite this work as:
 Gaussian 16, Revision C.01,
 M. J. Frisch, G. W. Trucks, H. B. Schlegel, G. E. Scuseria, 
 M. A. Robb, J. R. Cheeseman, G. Scalmani, V. Barone, 
 G. A. Petersson, H. Nakatsuji, X. Li, M. Caricato, A. V. Marenich, 
 J. Bloino, B. G. Janesko, R. Gomperts, B. Mennucci, H. P. Hratchian, 
 J. V. Ortiz, A. F. Izmaylov, J. L. Sonnenberg, D. Williams-Young, 
 F. Ding, F. Lipparini, F. Egidi, J. Goings, B. Peng, A. Petrone, 
 T. Henderson, D. Ranasinghe, V. G. Zakrzewski, J. Gao, N. Rega, 
 G. Zheng, W. Liang, M. Hada, M. Ehara, K. Toyota, R. Fukuda, 
 J. Hasegawa, M. Ishida, T. Nakajima, Y. Honda, O. Kitao, H. Nakai, 
 T. Vreven, K. Throssell, J. A. Montgomery, Jr., J. E. Peralta, 
 F. Ogliaro, M. J. Bearpark, J. J. Heyd, E. N. Brothers, K. N. Kudin, 
 V. N. Staroverov, T. A. Keith, R. Kobayashi, J. Normand, 
 K. Raghavachari, A. P. Rendell, J. C. Burant, S. S. Iyengar, 
 J. Tomasi, M. Cossi, J. M. Millam, M. Klene, C. Adamo, R. Cammi, 
 J. W. Ochterski, R. L. Martin, K. Morokuma, O. Farkas, 
 J. B. Foresman, and D. J. Fox, Gaussian, Inc., Wallingford CT, 2019.
 
 ******************************************
 Gaussian 16:  ES64L-G16RevC.01  3-Jul-2019
                29-Jun-2022 
 ******************************************
 %mem=8gb
 %nproc=4
 Will use up to    4 processors via shared memory.
 %chk=conf-950.chk
 ----------------------------------------------------------------------
 # B3LYP/6-31G* empiricaldispersion=gd3bj guess=read geom=check nosymm 
 integral(ultrafinegrid)
 ----------------------------------------------------------------------
 1/29=2,38=1,172=1/1;
 2/12=2,15=1,40=1/2;
 3/5=1,6=6,7=1,11=2,14=-4,25=1,30=1,74=-5,75=-5,116=-2,124=41/1,2,3;
 4/5=1/1;
 5/5=2,38=6/2;
 6/7=2,8=2,9=2,10=2,28=1/1;
 99/5=1,9=1/99;
 ------------------------------------------------------
 Candidate Structure: Conf:950 Charge calc in gas phase
 ------------------------------------------------------
 Structure from the checkpoint file:  "conf-950.chk"
 Charge =  1 Multiplicity = 1
 Redundant internal coordinates found in file.  (old form).
 N,0,-6.959146041,3.0082080155,3.8313185286
 H,0,-7.1970496579,3.5534612243,4.6645509458
 H,0,-7.8171223999,2.8164764041,3.3083402495
 H,0,-6.2576277687,3.5625720825,3.2410064404
 C,0,-6.14894058,1.7729629954,4.1479251323
 H,0,-6.2500039154,1.5228866184,5.2037985681
 C,0,-4.7133917486,2.213375268,3.7642242934
 C,0,-6.6005509561,0.594196988,3.2751976845
 H,0,-7.686108076,0.4543334908,3.367626653
 H,0,-6.3509500981,0.7800279483,2.226772979
 O,0,-4.6077715543,3.2309215446,3.0648215947
 C,0,-5.9234100785,-0.6936853402,3.7597272445
 N,0,-5.9908333041,-1.7396030097,2.9139386981
 H,0,-5.4937249916,-2.5798111433,3.1826199236
 H,0,-6.1448913429,-1.5942492149,1.9257858854
 O,0,-5.422433447,-0.7552299016,4.8834555598
 N,0,-3.7158292453,1.4340415703,4.1756729504
 H,0,-3.9975392162,0.5790885544,4.652762182
 C,0,-2.4749795502,1.3927609281,3.4102454863
 H,0,-2.1030544981,2.4177285334,3.3183362693
 C,0,-2.8169886996,0.8655065071,1.9917981986
 C,0,-1.4146944391,0.5224200553,4.1233455731
 H,0,-0.5165138482,0.5766963415,3.493735074
 O,0,-3.9262657884,0.3914645566,1.7236691063
 C,0,-1.8342517532,-0.9599426157,4.1966359196
 H,0,-2.1648979562,-1.2871706045,3.2026996846
 H,0,-2.702092572,-1.0769936428,4.8603281462
 C,0,-1.0678509645,1.1166154749,5.4940145884
 H,0,-1.9125013037,1.0374217566,6.1876418978
 H,0,-0.2187129521,0.5944874753,5.9418413821
 H,0,-0.8004129516,2.1754334799,5.4091466613
 C,0,-0.7115169644,-1.8842982176,4.6759139236
 H,0,-1.0297517461,-2.9308358997,4.6365941894
 H,0,0.1787794885,-1.7816669659,4.0444258107
 H,0,-0.4179030955,-1.6699578476,5.7079695761
 N,0,-1.8098075058,0.9495557619,1.1119602107
 H,0,-0.9183546471,1.3734306783,1.353163723
 C,0,-1.9098986551,0.5280426837,-0.2753451859
 H,0,-2.3557611824,-0.4716377753,-0.3114754406
 C,0,-0.4790940806,0.5120220867,-0.8200943846
 C,0,-2.7512292681,1.5106244812,-1.1139766181
 H,0,-2.8509688162,1.1531622478,-2.1438256406
 H,0,-3.7475465653,1.5953778737,-0.6742769324
 H,0,-2.2750522532,2.4961997871,-1.1331007613
 O,0,0.4070010368,1.1700176625,-0.2534508652
 N,0,-0.295280341,-0.1725330881,-1.9615392121
 H,0,-1.088010064,-0.601481112,-2.4334863414
 C,0,0.8265471233,0.0744556932,-2.876383631
 H,0,1.7656615143,0.0520909667,-2.3197520316
 C,0,0.5846210481,1.4652155066,-3.477861933
 C,0,0.80392059,-1.0030180938,-3.9750118782
 H,0,1.5079692543,-0.6733629007,-4.7491429655
 O,0,-0.0617747942,1.625507922,-4.5246563678
 C,0,1.1986557732,-2.3772240765,-3.4609408121
 H,0,2.2304411407,-2.369853928,-3.094724032
 H,0,1.1178309824,-3.1078410124,-4.2703437463
 H,0,0.5415085012,-2.6962096005,-2.6450300499
 O,0,-0.5214075359,-1.0847340763,-4.499609288
 H,0,-0.6769907871,-0.2029252362,-4.8970774637
 N,0,1.0087089034,2.4785665576,-2.7081381044
 H,0,1.6360000232,2.2547895301,-1.9465668815
 C,0,0.7965644069,3.8865380411,-3.0256947762
 H,0,-0.1438274725,3.9449241805,-3.580578668
 C,0,1.9817526036,4.3124790781,-3.9096048755
 C,0,0.691018429,4.6669993602,-1.7130811677
 H,0,0.3941663882,5.6966325082,-1.9242115996
 H,0,1.6781564186,4.7033910375,-1.2332736351
 O,0,2.9153662682,4.9745434428,-3.4810833448
 O,0,-0.2967016348,4.1141400997,-0.851148909
 H,0,0.0140775362,3.2335714664,-0.5746864461
 N,0,1.9167748845,3.7877089822,-5.1749576239
 H,0,1.1658597644,3.1168952837,-5.3228461644
 C,0,3.1455230695,3.5094842297,-5.8820134067
 H,0,3.0139867018,3.6554524449,-6.9600124407
 H,0,3.8971321604,4.2241618768,-5.5337976195
 C,0,3.6340017623,2.0761396587,-5.5944472907
 O,0,3.170851914,1.3931117522,-4.6778896731
 N,0,4.6116278135,1.6395960526,-6.4136616108
 H,0,4.9715818492,2.2127463716,-7.1694368756
 C,0,5.2422849374,0.3396400061,-6.2699081228
 H,0,5.3964836714,0.1309246429,-5.2090901603
 C,0,6.5842100138,0.3832742122,-6.9785355251
 C,0,4.3649725549,-0.7945933905,-6.892159187
 H,0,3.5853931885,-1.0224590608,-6.1588373972
 H,0,3.8588151698,-0.3705236971,-7.7674472474
 O,0,7.4336965287,-0.5049952458,-6.4849928933
 C,0,5.1132502527,-2.0790540402,-7.3064619699
 H,0,5.8965770047,-2.2960438162,-6.5749785593
 H,0,4.4101563153,-2.9185153785,-7.2635476226
 C,0,5.7129477419,-2.0104177132,-8.7378252476
 H,0,5.790495993,-0.9680176974,-9.0675925292
 H,0,5.0078447625,-2.4821437101,-9.4315614042
 C,0,7.0881810223,-2.6754130891,-8.9305134558
 H,0,7.2014630057,-3.5233882343,-8.246220066
 H,0,7.1642172908,-3.0736572475,-9.9515020293
 N,0,8.2037453074,-1.7327294457,-8.6588288416
 H,0,9.0998737847,-2.2099256669,-8.7449181639
 H,0,7.9747342439,-0.8999510681,-7.2725518454
 H,0,8.1984754401,-0.9863067542,-9.3545511237
 O,0,6.7787087185,1.0851327382,-7.9601349675
 Recover connectivity data from disk.
                           ----------------------------
                           !    Current Parameters    !
                           ! (Angstroms and Degrees)  !
 --------------------------                            --------------------------
 ! Name  Definition              Value                                          !
 --------------------------------------------------------------------------------
 ! R1    R(1,2)                  1.0238                                         !
 ! R2    R(1,3)                  1.0229                                         !
 ! R3    R(1,4)                  1.0714                                         !
 ! R4    R(1,5)                  1.5108                                         !
 ! R5    R(5,6)                  1.0898                                         !
 ! R6    R(5,7)                  1.5498                                         !
 ! R7    R(5,8)                  1.5346                                         !
 ! R8    R(7,11)                 1.2392                                         !
 ! R9    R(7,17)                 1.3311                                         !
 ! R10   R(8,9)                  1.0984                                         !
 ! R11   R(8,10)                 1.0936                                         !
 ! R12   R(8,12)                 1.5336                                         !
 ! R13   R(12,13)                1.3468                                         !
 ! R14   R(12,16)                1.2319                                         !
 ! R15   R(13,14)                1.0125                                         !
 ! R16   R(13,15)                1.0106                                         !
 ! R17   R(17,18)                1.0188                                         !
 ! R18   R(17,19)                1.4585                                         !
 ! R19   R(19,20)                1.0942                                         !
 ! R20   R(19,21)                1.5514                                         !
 ! R21   R(19,22)                1.546                                          !
 ! R22   R(21,24)                1.2358                                         !
 ! R23   R(21,36)                1.34                                           !
 ! R24   R(22,23)                1.0982                                         !
 ! R25   R(22,25)                1.5423                                         !
 ! R26   R(22,28)                1.5337                                         !
 ! R27   R(25,26)                1.0974                                         !
 ! R28   R(25,27)                1.0988                                         !
 ! R29   R(25,32)                1.5312                                         !
 ! R30   R(28,29)                1.0958                                         !
 ! R31   R(28,30)                1.0928                                         !
 ! R32   R(28,31)                1.0954                                         !
 ! R33   R(32,33)                1.0946                                         !
 ! R34   R(32,34)                1.0963                                         !
 ! R35   R(32,35)                1.0942                                         !
 ! R36   R(36,37)                1.0161                                         !
 ! R37   R(36,38)                1.4534                                         !
 ! R38   R(38,39)                1.0952                                         !
 ! R39   R(38,40)                1.5311                                         !
 ! R40   R(38,41)                1.5416                                         !
 ! R41   R(40,45)                1.2406                                         !
 ! R42   R(40,46)                1.3436                                         !
 ! R43   R(41,42)                1.0947                                         !
 ! R44   R(41,43)                1.0923                                         !
 ! R45   R(41,44)                1.0947                                         !
 ! R46   R(46,47)                1.0174                                         !
 ! R47   R(46,48)                1.4685                                         !
 ! R48   R(48,49)                1.0919                                         !
 ! R49   R(48,50)                1.5344                                         !
 ! R50   R(48,51)                1.539                                          !
 ! R51   R(50,53)                1.2407                                         !
 ! R52   R(50,60)                1.3413                                         !
 ! R53   R(51,52)                1.0971                                         !
 ! R54   R(51,54)                1.5194                                         !
 ! R55   R(51,58)                1.4277                                         !
 ! R56   R(54,55)                1.0949                                         !
 ! R57   R(54,56)                1.0934                                         !
 ! R58   R(54,57)                1.0951                                         !
 ! R59   R(58,59)                0.9797                                         !
 ! R60   R(60,61)                1.0117                                         !
 ! R61   R(60,62)                1.4588                                         !
 ! R62   R(62,63)                1.0935                                         !
 ! R63   R(62,64)                1.5386                                         !
 ! R64   R(62,65)                1.5308                                         !
 ! R65   R(64,68)                1.2221                                         !
 ! R66   R(64,71)                1.3714                                         !
 ! R67   R(65,66)                1.0922                                         !
 ! R68   R(65,67)                1.0982                                         !
 ! R69   R(65,69)                1.4227                                         !
 ! R70   R(69,70)                0.9739                                         !
 ! R71   R(71,72)                1.0177                                         !
 ! R72   R(71,73)                1.4447                                         !
 ! R73   R(73,74)                1.0958                                         !
 ! R74   R(73,75)                1.094                                          !
 ! R75   R(73,76)                1.5414                                         !
 ! R76   R(76,77)                1.2333                                         !
 ! R77   R(76,78)                1.3481                                         !
 ! R78   R(78,79)                1.0145                                         !
 ! R79   R(78,80)                1.452                                          !
 ! R80   R(80,81)                1.0921                                         !
 ! R81   R(80,82)                1.5182                                         !
 ! R82   R(80,83)                1.5631                                         !
 ! R83   R(82,86)                1.3245                                         !
 ! R84   R(82,100)               1.2223                                         !
 ! R85   R(83,84)                1.0943                                         !
 ! R86   R(83,85)                1.0964                                         !
 ! R87   R(83,87)                1.5432                                         !
 ! R88   R(87,88)                1.0935                                         !
 ! R89   R(87,89)                1.0958                                         !
 ! R90   R(87,90)                1.5534                                         !
 ! R91   R(90,91)                1.0961                                         !
 ! R92   R(90,92)                1.0959                                         !
 ! R93   R(90,93)                1.5397                                         !
 ! R94   R(93,94)                1.0955                                         !
 ! R95   R(93,95)                1.0985                                         !
 ! R96   R(93,96)                1.4856                                         !
 ! R97   R(96,97)                1.0189                                         !
 ! R98   R(96,98)                1.6333                                         !
 ! R99   R(96,99)                1.0204                                         !
 ! A1    A(2,1,3)              108.7241                                         !
 ! A2    A(2,1,4)              108.9653                                         !
 ! A3    A(2,1,5)              112.9235                                         !
 ! A4    A(3,1,4)              111.3752                                         !
 ! A5    A(3,1,5)              113.8091                                         !
 ! A6    A(4,1,5)              100.7996                                         !
 ! A7    A(1,5,6)              109.9336                                         !
 ! A8    A(1,5,7)              102.2695                                         !
 ! A9    A(1,5,8)              110.55                                           !
 ! A10   A(6,5,7)              113.0155                                         !
 ! A11   A(6,5,8)              110.331                                          !
 ! A12   A(7,5,8)              110.4908                                         !
 ! A13   A(5,7,11)             116.8722                                         !
 ! A14   A(5,7,17)             116.8251                                         !
 ! A15   A(11,7,17)            126.2512                                         !
 ! A16   A(5,8,9)              109.9246                                         !
 ! A17   A(5,8,10)             110.3344                                         !
 ! A18   A(5,8,12)             109.5989                                         !
 ! A19   A(9,8,10)             109.1391                                         !
 ! A20   A(9,8,12)             107.6288                                         !
 ! A21   A(10,8,12)            110.17                                           !
 ! A22   A(8,12,13)            115.5725                                         !
 ! A23   A(8,12,16)            120.6453                                         !
 ! A24   A(13,12,16)           123.6713                                         !
 ! A25   A(12,13,14)           116.9491                                         !
 ! A26   A(12,13,15)           120.6631                                         !
 ! A27   A(14,13,15)           116.978                                          !
 ! A28   A(7,17,18)            115.3951                                         !
 ! A29   A(7,17,19)            119.4682                                         !
 ! A30   A(18,17,19)           117.2101                                         !
 ! A31   A(17,19,20)           107.8628                                         !
 ! A32   A(17,19,21)           107.5707                                         !
 ! A33   A(17,19,22)           110.9365                                         !
 ! A34   A(20,19,21)           108.4497                                         !
 ! A35   A(20,19,22)           109.4483                                         !
 ! A36   A(21,19,22)           112.4312                                         !
 ! A37   A(19,21,24)           121.7778                                         !
 ! A38   A(19,21,36)           114.4124                                         !
 ! A39   A(24,21,36)           123.7999                                         !
 ! A40   A(19,22,23)           105.5832                                         !
 ! A41   A(19,22,25)           112.1121                                         !
 ! A42   A(19,22,28)           110.4395                                         !
 ! A43   A(23,22,25)           107.2908                                         !
 ! A44   A(23,22,28)           107.9547                                         !
 ! A45   A(25,22,28)           113.0431                                         !
 ! A46   A(22,25,26)           108.9964                                         !
 ! A47   A(22,25,27)           110.2391                                         !
 ! A48   A(22,25,32)           113.3041                                         !
 ! A49   A(26,25,27)           106.1012                                         !
 ! A50   A(26,25,32)           108.9294                                         !
 ! A51   A(27,25,32)           109.0107                                         !
 ! A52   A(22,28,29)           111.3084                                         !
 ! A53   A(22,28,30)           110.9077                                         !
 ! A54   A(22,28,31)           111.1298                                         !
 ! A55   A(29,28,30)           107.7587                                         !
 ! A56   A(29,28,31)           107.8841                                         !
 ! A57   A(30,28,31)           107.6911                                         !
 ! A58   A(25,32,33)           110.6562                                         !
 ! A59   A(25,32,34)           111.0159                                         !
 ! A60   A(25,32,35)           111.9453                                         !
 ! A61   A(33,32,34)           107.7532                                         !
 ! A62   A(33,32,35)           107.409                                          !
 ! A63   A(34,32,35)           107.881                                          !
 ! A64   A(21,36,37)           121.9856                                         !
 ! A65   A(21,36,38)           123.8343                                         !
 ! A66   A(37,36,38)           114.078                                          !
 ! A67   A(36,38,39)           108.9205                                         !
 ! A68   A(36,38,40)           106.1585                                         !
 ! A69   A(36,38,41)           111.8387                                         !
 ! A70   A(39,38,40)           111.0483                                         !
 ! A71   A(39,38,41)           109.9779                                         !
 ! A72   A(40,38,41)           108.8517                                         !
 ! A73   A(38,40,45)           119.9597                                         !
 ! A74   A(38,40,46)           115.813                                          !
 ! A75   A(45,40,46)           124.0913                                         !
 ! A76   A(38,41,42)           110.6936                                         !
 ! A77   A(38,41,43)           109.1628                                         !
 ! A78   A(38,41,44)           110.2387                                         !
 ! A79   A(42,41,43)           108.7192                                         !
 ! A80   A(42,41,44)           108.4924                                         !
 ! A81   A(43,41,44)           109.5066                                         !
 ! A82   A(40,46,47)           120.1508                                         !
 ! A83   A(40,46,48)           123.2344                                         !
 ! A84   A(47,46,48)           112.1575                                         !
 ! A85   A(46,48,49)           109.6337                                         !
 ! A86   A(46,48,50)           106.0335                                         !
 ! A87   A(46,48,51)           108.4057                                         !
 ! A88   A(49,48,50)           110.7315                                         !
 ! A89   A(49,48,51)           111.2365                                         !
 ! A90   A(50,48,51)           110.6355                                         !
 ! A91   A(48,50,53)           122.0033                                         !
 ! A92   A(48,50,60)           114.2014                                         !
 ! A93   A(53,50,60)           123.4551                                         !
 ! A94   A(48,51,52)           106.4937                                         !
 ! A95   A(48,51,54)           112.8224                                         !
 ! A96   A(48,51,58)           108.4226                                         !
 ! A97   A(52,51,54)           110.1075                                         !
 ! A98   A(52,51,58)           110.7102                                         !
 ! A99   A(54,51,58)           108.2836                                         !
 ! A100  A(51,54,55)           110.6042                                         !
 ! A101  A(51,54,56)           109.5543                                         !
 ! A102  A(51,54,57)           111.0772                                         !
 ! A103  A(55,54,56)           108.7701                                         !
 ! A104  A(55,54,57)           108.5569                                         !
 ! A105  A(56,54,57)           108.2124                                         !
 ! A106  A(51,58,59)           104.1805                                         !
 ! A107  A(50,60,61)           117.445                                          !
 ! A108  A(50,60,62)           123.9341                                         !
 ! A109  A(61,60,62)           117.8718                                         !
 ! A110  A(60,62,63)           106.682                                          !
 ! A111  A(60,62,64)           106.2729                                         !
 ! A112  A(60,62,65)           108.3876                                         !
 ! A113  A(63,62,64)           110.8643                                         !
 ! A114  A(63,62,65)           110.403                                          !
 ! A115  A(64,62,65)           113.8647                                         !
 ! A116  A(62,64,68)           122.4781                                         !
 ! A117  A(62,64,71)           112.8071                                         !
 ! A118  A(68,64,71)           124.5423                                         !
 ! A119  A(62,65,66)           109.4896                                         !
 ! A120  A(62,65,67)           109.2426                                         !
 ! A121  A(62,65,69)           111.6686                                         !
 ! A122  A(66,65,67)           107.3098                                         !
 ! A123  A(66,65,69)           107.143                                          !
 ! A124  A(67,65,69)           111.8532                                         !
 ! A125  A(65,69,70)           107.5657                                         !
 ! A126  A(64,71,72)           114.9142                                         !
 ! A127  A(64,71,73)           119.0101                                         !
 ! A128  A(72,71,73)           115.4356                                         !
 ! A129  A(71,73,74)           110.7155                                         !
 ! A130  A(71,73,75)           107.6218                                         !
 ! A131  A(71,73,76)           110.9358                                         !
 ! A132  A(74,73,75)           107.9732                                         !
 ! A133  A(74,73,76)           110.21                                           !
 ! A134  A(75,73,76)           109.2909                                         !
 ! A135  A(73,76,77)           122.3192                                         !
 ! A136  A(73,76,78)           114.6814                                         !
 ! A137  A(77,76,78)           122.9963                                         !
 ! A138  A(76,78,79)           121.8057                                         !
 ! A139  A(76,78,80)           123.0055                                         !
 ! A140  A(79,78,80)           115.1785                                         !
 ! A141  A(78,80,81)           109.1837                                         !
 ! A142  A(78,80,82)           108.1783                                         !
 ! A143  A(78,80,83)           111.4971                                         !
 ! A144  A(81,80,82)           109.517                                          !
 ! A145  A(81,80,83)           109.102                                          !
 ! A146  A(82,80,83)           109.3383                                         !
 ! A147  A(80,82,86)           111.9448                                         !
 ! A148  A(80,82,100)          122.1416                                         !
 ! A149  A(86,82,100)          125.6126                                         !
 ! A150  A(80,83,84)           106.5096                                         !
 ! A151  A(80,83,85)           107.2319                                         !
 ! A152  A(80,83,87)           116.0204                                         !
 ! A153  A(84,83,85)           106.6569                                         !
 ! A154  A(84,83,87)           110.6121                                         !
 ! A155  A(85,83,87)           109.3569                                         !
 ! A156  A(83,87,88)           109.4465                                         !
 ! A157  A(83,87,89)           108.4206                                         !
 ! A158  A(83,87,90)           113.4402                                         !
 ! A159  A(88,87,89)           106.3438                                         !
 ! A160  A(88,87,90)           110.4014                                         !
 ! A161  A(89,87,90)           108.5189                                         !
 ! A162  A(87,90,91)           110.2769                                         !
 ! A163  A(87,90,92)           108.4144                                         !
 ! A164  A(87,90,93)           116.1706                                         !
 ! A165  A(91,90,92)           105.3337                                         !
 ! A166  A(91,90,93)           108.0539                                         !
 ! A167  A(92,90,93)           108.0322                                         !
 ! A168  A(90,93,94)           110.3957                                         !
 ! A169  A(90,93,95)           109.5549                                         !
 ! A170  A(90,93,96)           111.9483                                         !
 ! A171  A(94,93,95)           107.0239                                         !
 ! A172  A(94,93,96)           107.415                                          !
 ! A173  A(95,93,96)           110.3671                                         !
 ! A174  A(93,96,97)           110.3528                                         !
 ! A175  A(93,96,98)           111.9299                                         !
 ! A176  A(93,96,99)           109.6097                                         !
 ! A177  A(97,96,98)           115.7103                                         !
 ! A178  A(97,96,99)           106.8297                                         !
 ! A179  A(98,96,99)           101.8293                                         !
 ! D1    D(2,1,5,6)             18.5904                                         !
 ! D2    D(2,1,5,7)           -101.707                                          !
 ! D3    D(2,1,5,8)            140.6401                                         !
 ! D4    D(3,1,5,6)           -105.9897                                         !
 ! D5    D(3,1,5,7)            133.7128                                         !
 ! D6    D(3,1,5,8)             16.06                                           !
 ! D7    D(4,1,5,6)            134.6876                                         !
 ! D8    D(4,1,5,7)             14.3901                                         !
 ! D9    D(4,1,5,8)           -103.2627                                         !
 ! D10   D(1,5,7,11)           -15.4938                                         !
 ! D11   D(1,5,7,17)           166.9508                                         !
 ! D12   D(6,5,7,11)          -133.6228                                         !
 ! D13   D(6,5,7,17)            48.8218                                         !
 ! D14   D(8,5,7,11)           102.2013                                         !
 ! D15   D(8,5,7,17)           -75.3541                                         !
 ! D16   D(1,5,8,9)            -53.1556                                         !
 ! D17   D(1,5,8,10)            67.2586                                         !
 ! D18   D(1,5,8,12)          -171.2553                                         !
 ! D19   D(6,5,8,9)             68.6603                                         !
 ! D20   D(6,5,8,10)          -170.9255                                         !
 ! D21   D(6,5,8,12)           -49.4394                                         !
 ! D22   D(7,5,8,9)           -165.6365                                         !
 ! D23   D(7,5,8,10)           -45.2223                                         !
 ! D24   D(7,5,8,12)            76.2638                                         !
 ! D25   D(5,7,17,18)            4.1313                                         !
 ! D26   D(5,7,17,19)          152.3018                                         !
 ! D27   D(11,7,17,18)        -173.1644                                         !
 ! D28   D(11,7,17,19)         -24.994                                          !
 ! D29   D(5,8,12,13)         -165.7393                                         !
 ! D30   D(5,8,12,16)           17.951                                          !
 ! D31   D(9,8,12,13)           74.7417                                         !
 ! D32   D(9,8,12,16)         -101.568                                          !
 ! D33   D(10,8,12,13)         -44.1543                                         !
 ! D34   D(10,8,12,16)         139.536                                          !
 ! D35   D(8,12,13,14)         175.7017                                         !
 ! D36   D(8,12,13,15)          22.4414                                         !
 ! D37   D(16,12,13,14)         -8.1134                                         !
 ! D38   D(16,12,13,15)       -161.3737                                         !
 ! D39   D(7,17,19,20)          55.3992                                         !
 ! D40   D(7,17,19,21)         -61.3973                                         !
 ! D41   D(7,17,19,22)         175.2569                                         !
 ! D42   D(18,17,19,20)       -156.9934                                         !
 ! D43   D(18,17,19,21)         86.2101                                         !
 ! D44   D(18,17,19,22)        -37.1357                                         !
 ! D45   D(17,19,21,24)        -10.0769                                         !
 ! D46   D(17,19,21,36)        171.0283                                         !
 ! D47   D(20,19,21,24)       -126.4891                                         !
 ! D48   D(20,19,21,36)         54.6161                                         !
 ! D49   D(22,19,21,24)        112.3497                                         !
 ! D50   D(22,19,21,36)        -66.5451                                         !
 ! D51   D(17,19,22,23)       -178.3418                                         !
 ! D52   D(17,19,22,25)         65.1469                                         !
 ! D53   D(17,19,22,28)        -61.8884                                         !
 ! D54   D(20,19,22,23)        -59.4348                                         !
 ! D55   D(20,19,22,25)       -175.9461                                         !
 ! D56   D(20,19,22,28)         57.0186                                         !
 ! D57   D(21,19,22,23)         61.1531                                         !
 ! D58   D(21,19,22,25)        -55.3582                                         !
 ! D59   D(21,19,22,28)        177.6064                                         !
 ! D60   D(19,21,36,37)         -3.2372                                         !
 ! D61   D(19,21,36,38)       -179.3438                                         !
 ! D62   D(24,21,36,37)        177.8934                                         !
 ! D63   D(24,21,36,38)          1.7869                                         !
 ! D64   D(19,22,25,26)         48.6219                                         !
 ! D65   D(19,22,25,27)        -67.4526                                         !
 ! D66   D(19,22,25,32)        170.0786                                         !
 ! D67   D(23,22,25,26)        -66.8562                                         !
 ! D68   D(23,22,25,27)        177.0693                                         !
 ! D69   D(23,22,25,32)         54.6005                                         !
 ! D70   D(28,22,25,26)        174.2452                                         !
 ! D71   D(28,22,25,27)         58.1707                                         !
 ! D72   D(28,22,25,32)        -64.2981                                         !
 ! D73   D(19,22,28,29)         68.2932                                         !
 ! D74   D(19,22,28,30)       -171.7417                                         !
 ! D75   D(19,22,28,31)        -51.9803                                         !
 ! D76   D(23,22,28,29)       -176.7377                                         !
 ! D77   D(23,22,28,30)        -56.7726                                         !
 ! D78   D(23,22,28,31)         62.9888                                         !
 ! D79   D(25,22,28,29)        -58.2243                                         !
 ! D80   D(25,22,28,30)         61.7408                                         !
 ! D81   D(25,22,28,31)       -178.4978                                         !
 ! D82   D(22,25,32,33)       -175.541                                          !
 ! D83   D(22,25,32,34)        -55.9422                                         !
 ! D84   D(22,25,32,35)         64.6822                                         !
 ! D85   D(26,25,32,33)        -54.0467                                         !
 ! D86   D(26,25,32,34)         65.5521                                         !
 ! D87   D(26,25,32,35)       -173.8235                                         !
 ! D88   D(27,25,32,33)         61.3107                                         !
 ! D89   D(27,25,32,34)       -179.0905                                         !
 ! D90   D(27,25,32,35)        -58.4661                                         !
 ! D91   D(21,36,38,39)        -48.3577                                         !
 ! D92   D(21,36,38,40)       -168.0011                                         !
 ! D93   D(21,36,38,41)         73.4092                                         !
 ! D94   D(37,36,38,39)        135.259                                          !
 ! D95   D(37,36,38,40)         15.6156                                         !
 ! D96   D(37,36,38,41)       -102.9741                                         !
 ! D97   D(36,38,40,45)        -20.7932                                         !
 ! D98   D(36,38,40,46)        163.2737                                         !
 ! D99   D(39,38,40,45)       -139.0373                                         !
 ! D100  D(39,38,40,46)         45.0296                                         !
 ! D101  D(41,38,40,45)         99.7492                                         !
 ! D102  D(41,38,40,46)        -76.184                                          !
 ! D103  D(36,38,41,42)       -177.526                                          !
 ! D104  D(36,38,41,43)        -57.8921                                         !
 ! D105  D(36,38,41,44)         62.4319                                         !
 ! D106  D(39,38,41,42)        -56.3694                                         !
 ! D107  D(39,38,41,43)         63.2645                                         !
 ! D108  D(39,38,41,44)       -176.4115                                         !
 ! D109  D(40,38,41,42)         65.4967                                         !
 ! D110  D(40,38,41,43)       -174.8694                                         !
 ! D111  D(40,38,41,44)        -54.5454                                         !
 ! D112  D(38,40,46,47)          2.9689                                         !
 ! D113  D(38,40,46,48)        157.3992                                         !
 ! D114  D(45,40,46,47)       -172.7761                                         !
 ! D115  D(45,40,46,48)        -18.3459                                         !
 ! D116  D(40,46,48,49)         51.62                                           !
 ! D117  D(40,46,48,50)        -67.9558                                         !
 ! D118  D(40,46,48,51)        173.2226                                         !
 ! D119  D(47,46,48,49)       -152.1443                                         !
 ! D120  D(47,46,48,50)         88.2799                                         !
 ! D121  D(47,46,48,51)        -30.5417                                         !
 ! D122  D(46,48,50,53)        -90.2088                                         !
 ! D123  D(46,48,50,60)         83.3098                                         !
 ! D124  D(49,48,50,53)        150.9371                                         !
 ! D125  D(49,48,50,60)        -35.5443                                         !
 ! D126  D(51,48,50,53)         27.131                                          !
 ! D127  D(51,48,50,60)       -159.3504                                         !
 ! D128  D(46,48,51,52)        168.2473                                         !
 ! D129  D(46,48,51,54)        -70.8493                                         !
 ! D130  D(46,48,51,58)         49.0797                                         !
 ! D131  D(49,48,51,52)        -71.1398                                         !
 ! D132  D(49,48,51,54)         49.7636                                         !
 ! D133  D(49,48,51,58)        169.6925                                         !
 ! D134  D(50,48,51,52)         52.3754                                         !
 ! D135  D(50,48,51,54)        173.2788                                         !
 ! D136  D(50,48,51,58)        -66.7922                                         !
 ! D137  D(48,50,60,61)         14.8991                                         !
 ! D138  D(48,50,60,62)       -175.2487                                         !
 ! D139  D(53,50,60,61)       -171.6892                                         !
 ! D140  D(53,50,60,62)         -1.8369                                         !
 ! D141  D(48,51,54,55)        -62.8388                                         !
 ! D142  D(48,51,54,56)        177.2712                                         !
 ! D143  D(48,51,54,57)         57.7765                                         !
 ! D144  D(52,51,54,55)         55.9824                                         !
 ! D145  D(52,51,54,56)        -63.9076                                         !
 ! D146  D(52,51,54,57)        176.5977                                         !
 ! D147  D(58,51,54,55)        177.1523                                         !
 ! D148  D(58,51,54,56)         57.2623                                         !
 ! D149  D(58,51,54,57)        -62.2324                                         !
 ! D150  D(48,51,58,59)         63.137                                          !
 ! D151  D(52,51,58,59)        -53.3408                                         !
 ! D152  D(54,51,58,59)       -174.1373                                         !
 ! D153  D(50,60,62,63)         30.7503                                         !
 ! D154  D(50,60,62,64)        -87.5958                                         !
 ! D155  D(50,60,62,65)        149.6406                                         !
 ! D156  D(61,60,62,63)       -159.4376                                         !
 ! D157  D(61,60,62,64)         82.2163                                         !
 ! D158  D(61,60,62,65)        -40.5472                                         !
 ! D159  D(60,62,64,68)       -103.2028                                         !
 ! D160  D(60,62,64,71)         72.2212                                         !
 ! D161  D(63,62,64,68)        141.2481                                         !
 ! D162  D(63,62,64,71)        -43.3279                                         !
 ! D163  D(65,62,64,68)         16.0373                                         !
 ! D164  D(65,62,64,71)       -168.5387                                         !
 ! D165  D(60,62,65,66)       -172.1662                                         !
 ! D166  D(60,62,65,67)         70.5859                                         !
 ! D167  D(60,62,65,69)        -53.6724                                         !
 ! D168  D(63,62,65,66)        -55.6535                                         !
 ! D169  D(63,62,65,67)       -172.9014                                         !
 ! D170  D(63,62,65,69)         62.8403                                         !
 ! D171  D(64,62,65,66)         69.8023                                         !
 ! D172  D(64,62,65,67)        -47.4456                                         !
 ! D173  D(64,62,65,69)       -171.7039                                         !
 ! D174  D(62,64,71,72)         -6.5123                                         !
 ! D175  D(62,64,71,73)       -149.555                                          !
 ! D176  D(68,64,71,72)        168.801                                          !
 ! D177  D(68,64,71,73)         25.7583                                         !
 ! D178  D(62,65,69,70)         66.66                                           !
 ! D179  D(66,65,69,70)       -173.4556                                         !
 ! D180  D(67,65,69,70)        -56.1209                                         !
 ! D181  D(64,71,73,74)       -147.6305                                         !
 ! D182  D(64,71,73,75)        -29.8382                                         !
 ! D183  D(64,71,73,76)         89.6769                                         !
 ! D184  D(72,71,73,74)         69.5118                                         !
 ! D185  D(72,71,73,75)       -172.6959                                         !
 ! D186  D(72,71,73,76)        -53.1808                                         !
 ! D187  D(71,73,76,77)        -13.4991                                         !
 ! D188  D(71,73,76,78)        167.1291                                         !
 ! D189  D(74,73,76,77)       -136.4839                                         !
 ! D190  D(74,73,76,78)         44.1442                                         !
 ! D191  D(75,73,76,77)        105.0116                                         !
 ! D192  D(75,73,76,78)        -74.3603                                         !
 ! D193  D(73,76,78,79)         -1.392                                          !
 ! D194  D(73,76,78,80)        177.3869                                         !
 ! D195  D(77,76,78,79)        179.2408                                         !
 ! D196  D(77,76,78,80)         -1.9803                                         !
 ! D197  D(76,78,80,81)        -40.1978                                         !
 ! D198  D(76,78,80,82)       -159.3122                                         !
 ! D199  D(76,78,80,83)         80.4277                                         !
 ! D200  D(79,78,80,81)        138.6555                                         !
 ! D201  D(79,78,80,82)         19.5411                                         !
 ! D202  D(79,78,80,83)       -100.719                                          !
 ! D203  D(78,80,82,86)        155.0968                                         !
 ! D204  D(78,80,82,100)       -30.8764                                         !
 ! D205  D(81,80,82,86)         36.1934                                         !
 ! D206  D(81,80,82,100)      -149.7797                                         !
 ! D207  D(83,80,82,86)        -83.302                                          !
 ! D208  D(83,80,82,100)        90.7249                                         !
 ! D209  D(78,80,83,84)        -79.6161                                         !
 ! D210  D(78,80,83,85)         34.2717                                         !
 ! D211  D(78,80,83,87)        156.7911                                         !
 ! D212  D(81,80,83,84)         41.0573                                         !
 ! D213  D(81,80,83,85)        154.9451                                         !
 ! D214  D(81,80,83,87)        -82.5355                                         !
 ! D215  D(82,80,83,84)        160.8085                                         !
 ! D216  D(82,80,83,85)        -85.3037                                         !
 ! D217  D(82,80,83,87)         37.2157                                         !
 ! D218  D(80,83,87,88)         37.706                                          !
 ! D219  D(80,83,87,89)        153.309                                          !
 ! D220  D(80,83,87,90)        -86.0748                                         !
 ! D221  D(84,83,87,88)        -83.7248                                         !
 ! D222  D(84,83,87,89)         31.8782                                         !
 ! D223  D(84,83,87,90)        152.4944                                         !
 ! D224  D(85,83,87,88)        159.0991                                         !
 ! D225  D(85,83,87,89)        -85.2979                                         !
 ! D226  D(85,83,87,90)         35.3183                                         !
 ! D227  D(83,87,90,91)         18.8688                                         !
 ! D228  D(83,87,90,92)        -95.9738                                         !
 ! D229  D(83,87,90,93)        142.214                                          !
 ! D230  D(88,87,90,91)       -104.3894                                         !
 ! D231  D(88,87,90,92)        140.768                                          !
 ! D232  D(88,87,90,93)         18.9558                                         !
 ! D233  D(89,87,90,91)        139.4295                                         !
 ! D234  D(89,87,90,92)         24.5869                                         !
 ! D235  D(89,87,90,93)        -97.2253                                         !
 ! D236  D(87,90,93,94)         30.6719                                         !
 ! D237  D(87,90,93,95)        148.2876                                         !
 ! D238  D(87,90,93,96)        -88.9379                                         !
 ! D239  D(91,90,93,94)        155.1661                                         !
 ! D240  D(91,90,93,95)        -87.2182                                         !
 ! D241  D(91,90,93,96)         35.5562                                         !
 ! D242  D(92,90,93,94)        -91.3424                                         !
 ! D243  D(92,90,93,95)         26.2733                                         !
 ! D244  D(92,90,93,96)        149.0478                                         !
 ! D245  D(90,93,96,97)        176.9942                                         !
 ! D246  D(90,93,96,98)         46.592                                          !
 ! D247  D(90,93,96,99)        -65.6197                                         !
 ! D248  D(94,93,96,97)         55.6495                                         !
 ! D249  D(94,93,96,98)        -74.7528                                         !
 ! D250  D(94,93,96,99)        173.0355                                         !
 ! D251  D(95,93,96,97)        -60.6935                                         !
 ! D252  D(95,93,96,98)        168.9042                                         !
 ! D253  D(95,93,96,99)         56.6925                                         !
 --------------------------------------------------------------------------------
 Symmetry turned off by external request.
 Stoichiometry    C28H52N9O11(1+)
 Framework group  C1[X(C28H52N9O11)]
 Deg. of freedom   294
 Full point group                 C1      NOp   1
                          Input orientation:                          
 ---------------------------------------------------------------------
 Center     Atomic      Atomic             Coordinates (Angstroms)
 Number     Number       Type             X           Y           Z
 ---------------------------------------------------------------------
      1          7           0       -6.959146    3.008208    3.831319
      2          1           0       -7.197050    3.553461    4.664551
      3          1           0       -7.817122    2.816476    3.308340
      4          1           0       -6.257628    3.562572    3.241006
      5          6           0       -6.148941    1.772963    4.147925
      6          1           0       -6.250004    1.522887    5.203799
      7          6           0       -4.713392    2.213375    3.764224
      8          6           0       -6.600551    0.594197    3.275198
      9          1           0       -7.686108    0.454333    3.367627
     10          1           0       -6.350950    0.780028    2.226773
     11          8           0       -4.607772    3.230922    3.064822
     12          6           0       -5.923410   -0.693685    3.759727
     13          7           0       -5.990833   -1.739603    2.913939
     14          1           0       -5.493725   -2.579811    3.182620
     15          1           0       -6.144891   -1.594249    1.925786
     16          8           0       -5.422433   -0.755230    4.883456
     17          7           0       -3.715829    1.434042    4.175673
     18          1           0       -3.997539    0.579089    4.652762
     19          6           0       -2.474980    1.392761    3.410245
     20          1           0       -2.103054    2.417729    3.318336
     21          6           0       -2.816989    0.865507    1.991798
     22          6           0       -1.414694    0.522420    4.123346
     23          1           0       -0.516514    0.576696    3.493735
     24          8           0       -3.926266    0.391465    1.723669
     25          6           0       -1.834252   -0.959943    4.196636
     26          1           0       -2.164898   -1.287171    3.202700
     27          1           0       -2.702093   -1.076994    4.860328
     28          6           0       -1.067851    1.116615    5.494015
     29          1           0       -1.912501    1.037422    6.187642
     30          1           0       -0.218713    0.594487    5.941841
     31          1           0       -0.800413    2.175433    5.409147
     32          6           0       -0.711517   -1.884298    4.675914
     33          1           0       -1.029752   -2.930836    4.636594
     34          1           0        0.178779   -1.781667    4.044426
     35          1           0       -0.417903   -1.669958    5.707970
     36          7           0       -1.809808    0.949556    1.111960
     37          1           0       -0.918355    1.373431    1.353164
     38          6           0       -1.909899    0.528043   -0.275345
     39          1           0       -2.355761   -0.471638   -0.311475
     40          6           0       -0.479094    0.512022   -0.820094
     41          6           0       -2.751229    1.510624   -1.113977
     42          1           0       -2.850969    1.153162   -2.143826
     43          1           0       -3.747547    1.595378   -0.674277
     44          1           0       -2.275052    2.496200   -1.133101
     45          8           0        0.407001    1.170018   -0.253451
     46          7           0       -0.295280   -0.172533   -1.961539
     47          1           0       -1.088010   -0.601481   -2.433486
     48          6           0        0.826547    0.074456   -2.876384
     49          1           0        1.765662    0.052091   -2.319752
     50          6           0        0.584621    1.465216   -3.477862
     51          6           0        0.803921   -1.003018   -3.975012
     52          1           0        1.507969   -0.673363   -4.749143
     53          8           0       -0.061775    1.625508   -4.524656
     54          6           0        1.198656   -2.377224   -3.460941
     55          1           0        2.230441   -2.369854   -3.094724
     56          1           0        1.117831   -3.107841   -4.270344
     57          1           0        0.541509   -2.696210   -2.645030
     58          8           0       -0.521408   -1.084734   -4.499609
     59          1           0       -0.676991   -0.202925   -4.897077
     60          7           0        1.008709    2.478567   -2.708138
     61          1           0        1.636000    2.254790   -1.946567
     62          6           0        0.796564    3.886538   -3.025695
     63          1           0       -0.143827    3.944924   -3.580579
     64          6           0        1.981753    4.312479   -3.909605
     65          6           0        0.691018    4.666999   -1.713081
     66          1           0        0.394166    5.696633   -1.924212
     67          1           0        1.678156    4.703391   -1.233274
     68          8           0        2.915366    4.974543   -3.481083
     69          8           0       -0.296702    4.114140   -0.851149
     70          1           0        0.014078    3.233571   -0.574686
     71          7           0        1.916775    3.787709   -5.174958
     72          1           0        1.165860    3.116895   -5.322846
     73          6           0        3.145523    3.509484   -5.882013
     74          1           0        3.013987    3.655452   -6.960012
     75          1           0        3.897132    4.224162   -5.533798
     76          6           0        3.634002    2.076140   -5.594447
     77          8           0        3.170852    1.393112   -4.677890
     78          7           0        4.611628    1.639596   -6.413662
     79          1           0        4.971582    2.212746   -7.169437
     80          6           0        5.242285    0.339640   -6.269908
     81          1           0        5.396484    0.130925   -5.209090
     82          6           0        6.584210    0.383274   -6.978536
     83          6           0        4.364973   -0.794593   -6.892159
     84          1           0        3.585393   -1.022459   -6.158837
     85          1           0        3.858815   -0.370524   -7.767447
     86          8           0        7.433697   -0.504995   -6.484993
     87          6           0        5.113250   -2.079054   -7.306462
     88          1           0        5.896577   -2.296044   -6.574979
     89          1           0        4.410156   -2.918515   -7.263548
     90          6           0        5.712948   -2.010418   -8.737825
     91          1           0        5.790496   -0.968018   -9.067593
     92          1           0        5.007845   -2.482144   -9.431561
     93          6           0        7.088181   -2.675413   -8.930513
     94          1           0        7.201463   -3.523388   -8.246220
     95          1           0        7.164217   -3.073657   -9.951502
     96          7           0        8.203745   -1.732729   -8.658829
     97          1           0        9.099874   -2.209926   -8.744918
     98          1           0        7.974734   -0.899951   -7.272552
     99          1           0        8.198475   -0.986307   -9.354551
    100          8           0        6.778709    1.085133   -7.960135
 ---------------------------------------------------------------------
 Rotational constants (GHZ):           0.1270170           0.0201864           0.0191024
 Standard basis: 6-31G(d) (6D, 7F)
   824 basis functions,  1552 primitive gaussians,   824 cartesian basis functions
   185 alpha electrons      185 beta electrons
       nuclear repulsion energy      6580.5353866540 Hartrees.
 NAtoms=  100 NActive=  100 NUniq=  100 SFac= 1.00D+00 NAtFMM=   60 NAOKFM=T Big=T
 Integral buffers will be    131072 words long.
 Raffenetti 2 integral format.
 Two-electron integral symmetry is turned off.
 Nuclear repulsion after empirical dispersion term =     6580.3214442404 Hartrees.
 One-electron integrals computed using PRISM.
 NBasis=   824 RedAO= T EigKep=  1.69D-03  NBF=   824
 NBsUse=   824 1.00D-06 EigRej= -1.00D+00 NBFU=   824
 Initial guess from the checkpoint file:  "conf-950.chk"
 B after Tr=     0.000000    0.000000    0.000000
         Rot=    1.000000    0.000000    0.000000    0.000000 Ang=   0.00 deg.
 Requested convergence on RMS density matrix=1.00D-08 within 128 cycles.
 Requested convergence on MAX density matrix=1.00D-06.
 Requested convergence on             energy=1.00D-06.
 No special actions if energy rises.
 SCF Done:  E(RB3LYP) =  -2418.65862379     A.U. after    1 cycles
            NFock=  1  Conv=0.85D-08     -V/T= 2.0092

 **********************************************************************

            Population analysis using the SCF Density.

 **********************************************************************

 Alpha  occ. eigenvalues --  -19.26757 -19.24431 -19.21998 -19.21791 -19.20885
 Alpha  occ. eigenvalues --  -19.20231 -19.20179 -19.19712 -19.17982 -19.17221
 Alpha  occ. eigenvalues --  -19.17082 -14.60148 -14.48279 -14.47750 -14.45659
 Alpha  occ. eigenvalues --  -14.45269 -14.43411 -14.41293 -14.40414 -14.40366
 Alpha  occ. eigenvalues --  -10.43087 -10.42414 -10.40690 -10.38871 -10.38478
 Alpha  occ. eigenvalues --  -10.36367 -10.35809 -10.34813 -10.34320 -10.33958
 Alpha  occ. eigenvalues --  -10.33826 -10.32886 -10.30651 -10.30297 -10.29397
 Alpha  occ. eigenvalues --  -10.29124 -10.29011 -10.28320 -10.27995 -10.27527
 Alpha  occ. eigenvalues --  -10.27172 -10.26323 -10.26258 -10.25365 -10.24180
 Alpha  occ. eigenvalues --  -10.23816 -10.23773 -10.23479  -1.19390  -1.16264
 Alpha  occ. eigenvalues --   -1.14241  -1.13758  -1.13291  -1.13139  -1.11540
 Alpha  occ. eigenvalues --   -1.09263  -1.08532  -1.07841  -1.07384  -1.05832
 Alpha  occ. eigenvalues --   -1.04787  -1.02988  -1.02424  -1.01664  -0.99941
 Alpha  occ. eigenvalues --   -0.97884  -0.97183  -0.95888  -0.94009  -0.90961
 Alpha  occ. eigenvalues --   -0.87362  -0.85407  -0.84816  -0.83903  -0.82601
 Alpha  occ. eigenvalues --   -0.81988  -0.80960  -0.79440  -0.77935  -0.77250
 Alpha  occ. eigenvalues --   -0.74825  -0.74506  -0.74451  -0.73998  -0.72559
 Alpha  occ. eigenvalues --   -0.71863  -0.70731  -0.69938  -0.68902  -0.68107
 Alpha  occ. eigenvalues --   -0.67553  -0.67144  -0.66758  -0.65997  -0.65484
 Alpha  occ. eigenvalues --   -0.65341  -0.65038  -0.64393  -0.63664  -0.63221
 Alpha  occ. eigenvalues --   -0.62564  -0.62268  -0.60418  -0.59705  -0.59149
 Alpha  occ. eigenvalues --   -0.59043  -0.58559  -0.57817  -0.57657  -0.56778
 Alpha  occ. eigenvalues --   -0.56334  -0.56271  -0.55740  -0.55322  -0.54811
 Alpha  occ. eigenvalues --   -0.54732  -0.54383  -0.54221  -0.53675  -0.53505
 Alpha  occ. eigenvalues --   -0.53424  -0.52865  -0.52552  -0.52424  -0.52063
 Alpha  occ. eigenvalues --   -0.51390  -0.50925  -0.50843  -0.50583  -0.50331
 Alpha  occ. eigenvalues --   -0.50024  -0.49704  -0.49535  -0.49351  -0.49079
 Alpha  occ. eigenvalues --   -0.48395  -0.48189  -0.47817  -0.47476  -0.46888
 Alpha  occ. eigenvalues --   -0.46703  -0.46579  -0.46442  -0.46158  -0.46086
 Alpha  occ. eigenvalues --   -0.45649  -0.45513  -0.44947  -0.44827  -0.44607
 Alpha  occ. eigenvalues --   -0.44333  -0.44003  -0.43875  -0.42861  -0.42593
 Alpha  occ. eigenvalues --   -0.42374  -0.41772  -0.41755  -0.41568  -0.41499
 Alpha  occ. eigenvalues --   -0.41046  -0.40963  -0.39840  -0.39772  -0.39032
 Alpha  occ. eigenvalues --   -0.38984  -0.38882  -0.38568  -0.38272  -0.38201
 Alpha  occ. eigenvalues --   -0.36992  -0.36237  -0.35565  -0.35101  -0.34426
 Alpha  occ. eigenvalues --   -0.34105  -0.33729  -0.33230  -0.32662  -0.32422
 Alpha  occ. eigenvalues --   -0.32117  -0.31513  -0.30344  -0.30218  -0.29551
 Alpha virt. eigenvalues --   -0.12284  -0.11296  -0.10691  -0.08350  -0.07604
 Alpha virt. eigenvalues --   -0.06262  -0.05567  -0.04170  -0.03510  -0.03275
 Alpha virt. eigenvalues --   -0.02352  -0.02094  -0.01255  -0.00429   0.00311
 Alpha virt. eigenvalues --    0.00487   0.01136   0.01724   0.01905   0.02478
 Alpha virt. eigenvalues --    0.03107   0.03269   0.04129   0.04317   0.04583
 Alpha virt. eigenvalues --    0.04711   0.04965   0.05262   0.05719   0.06103
 Alpha virt. eigenvalues --    0.06292   0.06726   0.06908   0.07042   0.07275
 Alpha virt. eigenvalues --    0.07465   0.08074   0.08178   0.08546   0.08723
 Alpha virt. eigenvalues --    0.08835   0.08947   0.09091   0.09239   0.09536
 Alpha virt. eigenvalues --    0.09633   0.09795   0.10018   0.10176   0.10521
 Alpha virt. eigenvalues --    0.10690   0.10748   0.11044   0.11107   0.11655
 Alpha virt. eigenvalues --    0.11873   0.12205   0.12284   0.12704   0.13062
 Alpha virt. eigenvalues --    0.13510   0.13794   0.14140   0.14204   0.14415
 Alpha virt. eigenvalues --    0.14606   0.14955   0.15135   0.15473   0.15821
 Alpha virt. eigenvalues --    0.16014   0.16546   0.16951   0.17527   0.17790
 Alpha virt. eigenvalues --    0.18139   0.18234   0.18737   0.18901   0.19097
 Alpha virt. eigenvalues --    0.19738   0.20058   0.20408   0.20707   0.21217
 Alpha virt. eigenvalues --    0.22110   0.22385   0.22916   0.23144   0.24270
 Alpha virt. eigenvalues --    0.25070   0.25452   0.26106   0.26786   0.27487
 Alpha virt. eigenvalues --    0.27700   0.28084   0.28516   0.28929   0.29963
 Alpha virt. eigenvalues --    0.31402   0.31943   0.33543   0.34178   0.34428
 Alpha virt. eigenvalues --    0.35543   0.36854   0.37737   0.38085   0.39793
 Alpha virt. eigenvalues --    0.40981   0.41169   0.41509   0.42432   0.43307
 Alpha virt. eigenvalues --    0.43790   0.44020   0.44265   0.44773   0.44983
 Alpha virt. eigenvalues --    0.45922   0.45979   0.46406   0.46442   0.46918
 Alpha virt. eigenvalues --    0.47223   0.47791   0.48131   0.48720   0.48846
 Alpha virt. eigenvalues --    0.49008   0.49182   0.49431   0.49891   0.50307
 Alpha virt. eigenvalues --    0.50838   0.51034   0.51646   0.52130   0.52290
 Alpha virt. eigenvalues --    0.52310   0.52686   0.53257   0.53502   0.53812
 Alpha virt. eigenvalues --    0.54075   0.54204   0.54548   0.55200   0.55658
 Alpha virt. eigenvalues --    0.55945   0.56029   0.56159   0.56890   0.57520
 Alpha virt. eigenvalues --    0.58008   0.58306   0.58565   0.58754   0.58895
 Alpha virt. eigenvalues --    0.59453   0.59608   0.59935   0.60214   0.60578
 Alpha virt. eigenvalues --    0.60810   0.61035   0.61373   0.61754   0.62029
 Alpha virt. eigenvalues --    0.63016   0.63254   0.63524   0.63751   0.64011
 Alpha virt. eigenvalues --    0.64628   0.64855   0.65076   0.65584   0.66686
 Alpha virt. eigenvalues --    0.66814   0.67007   0.67303   0.67546   0.68559
 Alpha virt. eigenvalues --    0.68749   0.69248   0.70133   0.70921   0.71410
 Alpha virt. eigenvalues --    0.71609   0.71734   0.72095   0.72248   0.72748
 Alpha virt. eigenvalues --    0.72988   0.73142   0.73595   0.73977   0.74498
 Alpha virt. eigenvalues --    0.74552   0.74753   0.75072   0.75534   0.75661
 Alpha virt. eigenvalues --    0.76091   0.76251   0.76581   0.76908   0.77187
 Alpha virt. eigenvalues --    0.77524   0.78171   0.78392   0.78795   0.78904
 Alpha virt. eigenvalues --    0.79240   0.79516   0.79962   0.80216   0.80570
 Alpha virt. eigenvalues --    0.81111   0.81225   0.81364   0.81874   0.82065
 Alpha virt. eigenvalues --    0.82349   0.82452   0.82679   0.82759   0.82951
 Alpha virt. eigenvalues --    0.83248   0.83354   0.83720   0.83794   0.84206
 Alpha virt. eigenvalues --    0.84656   0.84710   0.84964   0.85098   0.85651
 Alpha virt. eigenvalues --    0.85767   0.85938   0.86776   0.87022   0.87481
 Alpha virt. eigenvalues --    0.87647   0.87740   0.88159   0.88561   0.88664
 Alpha virt. eigenvalues --    0.89176   0.89291   0.89718   0.89978   0.90327
 Alpha virt. eigenvalues --    0.90531   0.91677   0.92060   0.92449   0.92900
 Alpha virt. eigenvalues --    0.93110   0.93343   0.93484   0.94391   0.94496
 Alpha virt. eigenvalues --    0.94807   0.95643   0.95973   0.96334   0.96695
 Alpha virt. eigenvalues --    0.97750   0.97766   0.98662   0.99665   0.99918
 Alpha virt. eigenvalues --    1.00221   1.01777   1.02066   1.03185   1.04041
 Alpha virt. eigenvalues --    1.04688   1.05037   1.05882   1.06828   1.06990
 Alpha virt. eigenvalues --    1.07269   1.07512   1.08250   1.08902   1.09066
 Alpha virt. eigenvalues --    1.10166   1.10258   1.11027   1.11690   1.12217
 Alpha virt. eigenvalues --    1.12421   1.12917   1.13257   1.13475   1.15555
 Alpha virt. eigenvalues --    1.16148   1.16664   1.17308   1.18298   1.18925
 Alpha virt. eigenvalues --    1.19072   1.19491   1.20160   1.21795   1.21902
 Alpha virt. eigenvalues --    1.22493   1.22816   1.24629   1.24948   1.25165
 Alpha virt. eigenvalues --    1.25780   1.26582   1.27076   1.27191   1.27857
 Alpha virt. eigenvalues --    1.28578   1.29680   1.30433   1.30906   1.32292
 Alpha virt. eigenvalues --    1.32932   1.33068   1.33477   1.34114   1.34845
 Alpha virt. eigenvalues --    1.35734   1.36057   1.36158   1.36992   1.37482
 Alpha virt. eigenvalues --    1.38314   1.38624   1.40249   1.41115   1.41622
 Alpha virt. eigenvalues --    1.42516   1.42940   1.44756   1.45447   1.45709
 Alpha virt. eigenvalues --    1.46398   1.46810   1.47115   1.47262   1.47597
 Alpha virt. eigenvalues --    1.48040   1.49259   1.50208   1.50516   1.51027
 Alpha virt. eigenvalues --    1.51487   1.52405   1.53925   1.56175   1.57319
 Alpha virt. eigenvalues --    1.57390   1.58327   1.58958   1.59556   1.60225
 Alpha virt. eigenvalues --    1.60786   1.61284   1.61544   1.62566   1.62737
 Alpha virt. eigenvalues --    1.62934   1.63854   1.64114   1.64517   1.64775
 Alpha virt. eigenvalues --    1.66116   1.66476   1.66778   1.67237   1.67745
 Alpha virt. eigenvalues --    1.68356   1.68919   1.69381   1.69866   1.69896
 Alpha virt. eigenvalues --    1.70435   1.70925   1.70992   1.71618   1.72530
 Alpha virt. eigenvalues --    1.73119   1.73214   1.73750   1.74080   1.74212
 Alpha virt. eigenvalues --    1.74872   1.75063   1.75566   1.76419   1.76548
 Alpha virt. eigenvalues --    1.76880   1.77479   1.77586   1.78361   1.78802
 Alpha virt. eigenvalues --    1.79391   1.79649   1.80062   1.80544   1.80597
 Alpha virt. eigenvalues --    1.81502   1.81533   1.81720   1.82183   1.82470
 Alpha virt. eigenvalues --    1.83219   1.83497   1.84547   1.84591   1.85067
 Alpha virt. eigenvalues --    1.85267   1.85492   1.86473   1.87065   1.87293
 Alpha virt. eigenvalues --    1.87754   1.88133   1.88413   1.89032   1.89123
 Alpha virt. eigenvalues --    1.89327   1.89616   1.89813   1.90168   1.90497
 Alpha virt. eigenvalues --    1.92366   1.92475   1.93027   1.93863   1.93957
 Alpha virt. eigenvalues --    1.94561   1.95515   1.95910   1.96348   1.96936
 Alpha virt. eigenvalues --    1.97169   1.97686   1.98020   1.98450   1.99114
 Alpha virt. eigenvalues --    1.99266   2.00014   2.00442   2.00912   2.01238
 Alpha virt. eigenvalues --    2.01990   2.02314   2.02387   2.02831   2.03112
 Alpha virt. eigenvalues --    2.03494   2.04539   2.04942   2.05723   2.06237
 Alpha virt. eigenvalues --    2.06261   2.07028   2.07867   2.08148   2.08930
 Alpha virt. eigenvalues --    2.09139   2.10151   2.10490   2.11589   2.12681
 Alpha virt. eigenvalues --    2.13334   2.13788   2.14704   2.15499   2.15860
 Alpha virt. eigenvalues --    2.16639   2.17846   2.18102   2.18352   2.19009
 Alpha virt. eigenvalues --    2.19242   2.20214   2.20395   2.20577   2.22124
 Alpha virt. eigenvalues --    2.22817   2.23239   2.23706   2.25051   2.25960
 Alpha virt. eigenvalues --    2.26355   2.27054   2.28386   2.29083   2.29848
 Alpha virt. eigenvalues --    2.30411   2.30815   2.31523   2.32166   2.32574
 Alpha virt. eigenvalues --    2.33297   2.33545   2.34117   2.34369   2.34964
 Alpha virt. eigenvalues --    2.35632   2.35775   2.36439   2.37096   2.37344
 Alpha virt. eigenvalues --    2.38280   2.38797   2.39470   2.40285   2.41242
 Alpha virt. eigenvalues --    2.41629   2.41868   2.42390   2.42641   2.43380
 Alpha virt. eigenvalues --    2.44994   2.45923   2.46236   2.46775   2.47365
 Alpha virt. eigenvalues --    2.48463   2.48977   2.49782   2.50729   2.50985
 Alpha virt. eigenvalues --    2.52562   2.52670   2.54007   2.54306   2.55908
 Alpha virt. eigenvalues --    2.56308   2.56720   2.58383   2.58498   2.59382
 Alpha virt. eigenvalues --    2.60037   2.60764   2.61117   2.62834   2.64076
 Alpha virt. eigenvalues --    2.64664   2.65314   2.66047   2.67503   2.67864
 Alpha virt. eigenvalues --    2.69323   2.70578   2.71003   2.71357   2.71611
 Alpha virt. eigenvalues --    2.73421   2.74301   2.75808   2.78361   2.78723
 Alpha virt. eigenvalues --    2.79871   2.79914   2.82634   2.83127   2.85075
 Alpha virt. eigenvalues --    2.85839   2.86641   2.87837   2.89364   2.90450
 Alpha virt. eigenvalues --    2.91577   2.92081   2.92751   2.94591   2.95639
 Alpha virt. eigenvalues --    2.96395   2.96549   2.99000   3.01780   3.04317
 Alpha virt. eigenvalues --    3.06658   3.07797   3.08465   3.10582   3.11944
 Alpha virt. eigenvalues --    3.14905   3.63751   3.70967   3.78146   3.79504
 Alpha virt. eigenvalues --    3.81539   3.89458   3.90653   3.95194   3.96092
 Alpha virt. eigenvalues --    3.99653   4.00363   4.01516   4.03239   4.03453
 Alpha virt. eigenvalues --    4.05600   4.07063   4.09127   4.10909   4.14943
 Alpha virt. eigenvalues --    4.16146   4.17268   4.18219   4.19110   4.19472
 Alpha virt. eigenvalues --    4.20313   4.24568   4.26164   4.27547   4.28814
 Alpha virt. eigenvalues --    4.31272   4.32068   4.33824   4.34547   4.39040
 Alpha virt. eigenvalues --    4.40071   4.40392   4.41553   4.46741   4.47434
 Alpha virt. eigenvalues --    4.47935   4.49271   4.51555   4.52564   4.54600
 Alpha virt. eigenvalues --    4.56949   4.61356   4.63171   4.65978
          Condensed to atoms (all electrons):
 Mulliken charges:
               1
     1  N   -0.762357
     2  H    0.418910
     3  H    0.411898
     4  H    0.435526
     5  C   -0.114968
     6  H    0.238550
     7  C    0.653685
     8  C   -0.393496
     9  H    0.198136
    10  H    0.222206
    11  O   -0.538867
    12  C    0.641552
    13  N   -0.722757
    14  H    0.367866
    15  H    0.365180
    16  O   -0.523495
    17  N   -0.600728
    18  H    0.400440
    19  C   -0.081554
    20  H    0.197669
    21  C    0.658591
    22  C   -0.108752
    23  H    0.150242
    24  O   -0.587234
    25  C   -0.291896
    26  H    0.146582
    27  H    0.150656
    28  C   -0.453695
    29  H    0.151173
    30  H    0.174857
    31  H    0.157306
    32  C   -0.452403
    33  H    0.158090
    34  H    0.155155
    35  H    0.162205
    36  N   -0.612164
    37  H    0.364844
    38  C   -0.038414
    39  H    0.173224
    40  C    0.634907
    41  C   -0.471770
    42  H    0.162341
    43  H    0.173479
    44  H    0.197590
    45  O   -0.566114
    46  N   -0.597778
    47  H    0.355012
    48  C   -0.076202
    49  H    0.187313
    50  C    0.675390
    51  C    0.093940
    52  H    0.177856
    53  O   -0.582844
    54  C   -0.453511
    55  H    0.154646
    56  H    0.171665
    57  H    0.147412
    58  O   -0.656614
    59  H    0.422818
    60  N   -0.588708
    61  H    0.357122
    62  C   -0.093777
    63  H    0.186441
    64  C    0.617447
    65  C   -0.062577
    66  H    0.171345
    67  H    0.158371
    68  O   -0.508475
    69  O   -0.644348
    70  H    0.412802
    71  N   -0.582128
    72  H    0.363549
    73  C   -0.258659
    74  H    0.173242
    75  H    0.221514
    76  C    0.613466
    77  O   -0.551413
    78  N   -0.609702
    79  H    0.351098
    80  C    0.003503
    81  H    0.182228
    82  C    0.573221
    83  C   -0.287928
    84  H    0.165394
    85  H    0.149484
    86  O   -0.601754
    87  C   -0.284217
    88  H    0.169549
    89  H    0.141300
    90  C   -0.292333
    91  H    0.165315
    92  H    0.150185
    93  C   -0.141442
    94  H    0.161810
    95  H    0.148084
    96  N   -0.778717
    97  H    0.333203
    98  H    0.457537
    99  H    0.343128
   100  O   -0.505460
 Sum of Mulliken charges =   1.00000
 Mulliken charges with hydrogens summed into heavy atoms:
               1
     1  N    0.503977
     5  C    0.123582
     7  C    0.653685
     8  C    0.026846
    11  O   -0.538867
    12  C    0.641552
    13  N    0.010289
    16  O   -0.523495
    17  N   -0.200288
    19  C    0.116116
    21  C    0.658591
    22  C    0.041490
    24  O   -0.587234
    25  C    0.005342
    28  C    0.029641
    32  C    0.023046
    36  N   -0.247320
    38  C    0.134809
    40  C    0.634907
    41  C    0.061641
    45  O   -0.566114
    46  N   -0.242765
    48  C    0.111111
    50  C    0.675390
    51  C    0.271795
    53  O   -0.582844
    54  C    0.020211
    58  O   -0.233796
    60  N   -0.231586
    62  C    0.092664
    64  C    0.617447
    65  C    0.267140
    68  O   -0.508475
    69  O   -0.231546
    71  N   -0.218579
    73  C    0.136097
    76  C    0.613466
    77  O   -0.551413
    78  N   -0.258604
    80  C    0.185731
    82  C    0.573221
    83  C    0.026950
    86  O   -0.144217
    87  C    0.026632
    90  C    0.023167
    93  C    0.168452
    96  N   -0.102386
   100  O   -0.505460
 Electronic spatial extent (au):  <R**2>=          59015.0796
 Charge=              1.0000 electrons
 Dipole moment (field-independent basis, Debye):
    X=            -19.8255    Y=              1.0202    Z=              6.2844  Tot=             20.8227
 Quadrupole moment (field-independent basis, Debye-Ang):
   XX=            -59.4554   YY=           -262.2600   ZZ=           -143.7984
   XY=            -81.9782   XZ=           -150.1180   YZ=             58.5850
 Traceless Quadrupole moment (field-independent basis, Debye-Ang):
   XX=             95.7159   YY=           -107.0888   ZZ=             11.3729
   XY=            -81.9782   XZ=           -150.1180   YZ=             58.5850
 Octapole moment (field-independent basis, Debye-Ang**2):
  XXX=          -1203.6518  YYY=           -749.1892  ZZZ=            818.0895  XYY=           -268.0705
  XXY=            -42.1998  XXZ=            617.7483  XZZ=            229.4853  YZZ=           -279.8699
  YYZ=            534.3086  XYZ=            -11.6812
 Hexadecapole moment (field-independent basis, Debye-Ang**3):
 XXXX=         -14369.3870 YYYY=          -8463.8118 ZZZZ=         -30365.3432 XXXY=          -4122.0778
 XXXZ=           4939.3505 YYYX=            111.2791 YYYZ=            775.0322 ZZZX=           6642.2232
 ZZZY=           2920.9120 XXYY=          -4298.7102 XXZZ=          -3739.3389 YYZZ=          -6750.8111
 XXYZ=           3854.6349 YYXZ=           3448.8041 ZZXY=          -2810.5773
 N-N= 6.580321444240D+03 E-N=-1.877450064000D+04  KE= 2.396569874117D+03
 Unable to Open any file for archive entry.
 1\1\GINC-LAC-305\SP\RB3LYP\6-31G(d)\C28H52N9O11(1+)\KENGMITH\29-Jun-20
 22\0\\# B3LYP/6-31G* empiricaldispersion=gd3bj guess=read geom=check n
 osymm integral(ultrafinegrid)\\Candidate Structure: Conf:950 Charge ca
 lc in gas phase\\1,1\N,0,-6.959146041,3.0082080155,3.8313185286\H,0,-7
 .1970496579,3.5534612243,4.6645509458\H,0,-7.8171223999,2.8164764041,3
 .3083402495\H,0,-6.2576277687,3.5625720825,3.2410064404\C,0,-6.1489405
 8,1.7729629954,4.1479251323\H,0,-6.2500039154,1.5228866184,5.203798568
 1\C,0,-4.7133917486,2.213375268,3.7642242934\C,0,-6.6005509561,0.59419
 6988,3.2751976845\H,0,-7.686108076,0.4543334908,3.367626653\H,0,-6.350
 9500981,0.7800279483,2.226772979\O,0,-4.6077715543,3.2309215446,3.0648
 215947\C,0,-5.9234100785,-0.6936853402,3.7597272445\N,0,-5.9908333041,
 -1.7396030097,2.9139386981\H,0,-5.4937249916,-2.5798111433,3.182619923
 6\H,0,-6.1448913429,-1.5942492149,1.9257858854\O,0,-5.422433447,-0.755
 2299016,4.8834555598\N,0,-3.7158292453,1.4340415703,4.1756729504\H,0,-
 3.9975392162,0.5790885544,4.652762182\C,0,-2.4749795502,1.3927609281,3
 .4102454863\H,0,-2.1030544981,2.4177285334,3.3183362693\C,0,-2.8169886
 996,0.8655065071,1.9917981986\C,0,-1.4146944391,0.5224200553,4.1233455
 731\H,0,-0.5165138482,0.5766963415,3.493735074\O,0,-3.9262657884,0.391
 4645566,1.7236691063\C,0,-1.8342517532,-0.9599426157,4.1966359196\H,0,
 -2.1648979562,-1.2871706045,3.2026996846\H,0,-2.702092572,-1.076993642
 8,4.8603281462\C,0,-1.0678509645,1.1166154749,5.4940145884\H,0,-1.9125
 013037,1.0374217566,6.1876418978\H,0,-0.2187129521,0.5944874753,5.9418
 413821\H,0,-0.8004129516,2.1754334799,5.4091466613\C,0,-0.7115169644,-
 1.8842982176,4.6759139236\H,0,-1.0297517461,-2.9308358997,4.6365941894
 \H,0,0.1787794885,-1.7816669659,4.0444258107\H,0,-0.4179030955,-1.6699
 578476,5.7079695761\N,0,-1.8098075058,0.9495557619,1.1119602107\H,0,-0
 .9183546471,1.3734306783,1.353163723\C,0,-1.9098986551,0.5280426837,-0
 .2753451859\H,0,-2.3557611824,-0.4716377753,-0.3114754406\C,0,-0.47909
 40806,0.5120220867,-0.8200943846\C,0,-2.7512292681,1.5106244812,-1.113
 9766181\H,0,-2.8509688162,1.1531622478,-2.1438256406\H,0,-3.7475465653
 ,1.5953778737,-0.6742769324\H,0,-2.2750522532,2.4961997871,-1.13310076
 13\O,0,0.4070010368,1.1700176625,-0.2534508652\N,0,-0.295280341,-0.172
 5330881,-1.9615392121\H,0,-1.088010064,-0.601481112,-2.4334863414\C,0,
 0.8265471233,0.0744556932,-2.876383631\H,0,1.7656615143,0.0520909667,-
 2.3197520316\C,0,0.5846210481,1.4652155066,-3.477861933\C,0,0.80392059
 ,-1.0030180938,-3.9750118782\H,0,1.5079692543,-0.6733629007,-4.7491429
 655\O,0,-0.0617747942,1.625507922,-4.5246563678\C,0,1.1986557732,-2.37
 72240765,-3.4609408121\H,0,2.2304411407,-2.369853928,-3.094724032\H,0,
 1.1178309824,-3.1078410124,-4.2703437463\H,0,0.5415085012,-2.696209600
 5,-2.6450300499\O,0,-0.5214075359,-1.0847340763,-4.499609288\H,0,-0.67
 69907871,-0.2029252362,-4.8970774637\N,0,1.0087089034,2.4785665576,-2.
 7081381044\H,0,1.6360000232,2.2547895301,-1.9465668815\C,0,0.796564406
 9,3.8865380411,-3.0256947762\H,0,-0.1438274725,3.9449241805,-3.5805786
 68\C,0,1.9817526036,4.3124790781,-3.9096048755\C,0,0.691018429,4.66699
 93602,-1.7130811677\H,0,0.3941663882,5.6966325082,-1.9242115996\H,0,1.
 6781564186,4.7033910375,-1.2332736351\O,0,2.9153662682,4.9745434428,-3
 .4810833448\O,0,-0.2967016348,4.1141400997,-0.851148909\H,0,0.01407753
 62,3.2335714664,-0.5746864461\N,0,1.9167748845,3.7877089822,-5.1749576
 239\H,0,1.1658597644,3.1168952837,-5.3228461644\C,0,3.1455230695,3.509
 4842297,-5.8820134067\H,0,3.0139867018,3.6554524449,-6.9600124407\H,0,
 3.8971321604,4.2241618768,-5.5337976195\C,0,3.6340017623,2.0761396587,
 -5.5944472907\O,0,3.170851914,1.3931117522,-4.6778896731\N,0,4.6116278
 135,1.6395960526,-6.4136616108\H,0,4.9715818492,2.2127463716,-7.169436
 8756\C,0,5.2422849374,0.3396400061,-6.2699081228\H,0,5.3964836714,0.13
 09246429,-5.2090901603\C,0,6.5842100138,0.3832742122,-6.9785355251\C,0
 ,4.3649725549,-0.7945933905,-6.892159187\H,0,3.5853931885,-1.022459060
 8,-6.1588373972\H,0,3.8588151698,-0.3705236971,-7.7674472474\O,0,7.433
 6965287,-0.5049952458,-6.4849928933\C,0,5.1132502527,-2.0790540402,-7.
 3064619699\H,0,5.8965770047,-2.2960438162,-6.5749785593\H,0,4.41015631
 53,-2.9185153785,-7.2635476226\C,0,5.7129477419,-2.0104177132,-8.73782
 52476\H,0,5.790495993,-0.9680176974,-9.0675925292\H,0,5.0078447625,-2.
 4821437101,-9.4315614042\C,0,7.0881810223,-2.6754130891,-8.9305134558\
 H,0,7.2014630057,-3.5233882343,-8.246220066\H,0,7.1642172908,-3.073657
 2475,-9.9515020293\N,0,8.2037453074,-1.7327294457,-8.6588288416\H,0,9.
 0998737847,-2.2099256669,-8.7449181639\H,0,7.9747342439,-0.8999510681,
 -7.2725518454\H,0,8.1984754401,-0.9863067542,-9.3545511237\O,0,6.77870
 87185,1.0851327382,-7.9601349675\\Version=ES64L-G16RevC.01\HF=-2418.65
 86238\RMSD=8.471e-09\Dipole=-8.2780009,-1.1898483,5.5648778\Quadrupole
 =71.1623926,-79.6178689,8.4554762,-60.9487575,-111.6090305,43.5564781\
 PG=C01 [X(C28H52N9O11)]\\@
 The archive entry for this job was punched.


 LAWS OF PROGRAMMING DEFINITION:  A WORKING PROGRAM
                                  IS ONE THAT HAS
                                  ONLY UNOBSERVED
                                  BUGS.
 Job cpu time:       0 days  0 hours  2 minutes 49.6 seconds.
 Elapsed time:       0 days  0 hours  0 minutes 43.2 seconds.
 File lengths (MBytes):  RWF=    464 Int=      0 D2E=      0 Chk=     72 Scr=     16
 Normal termination of Gaussian 16 at Wed Jun 29 00:44:01 2022.
