 Entering Gaussian System, Link 0=/opt/software/Gaussian/g16-AVX2-C.01/g16/g16
 Input=charge-conf-797.com
 Output=charge-conf-797.log
 Initial command:
 /opt/software/Gaussian/g16-AVX2-C.01/g16/l1.exe "/mnt/gs18/scratch/users/kengmith/Gau-1636.inp" -scrdir="/mnt/gs18/scratch/users/kengmith/"
 Entering Link 1 = /opt/software/Gaussian/g16-AVX2-C.01/g16/l1.exe PID=      1646.
  
 Copyright (c) 1988-2019, Gaussian, Inc.  All Rights Reserved.
  
 This is part of the Gaussian(R) 16 program.  It is based on
 the Gaussian(R) 09 system (copyright 2009, Gaussian, Inc.),
 the Gaussian(R) 03 system (copyright 2003, Gaussian, Inc.),
 the Gaussian(R) 98 system (copyright 1998, Gaussian, Inc.),
 the Gaussian(R) 94 system (copyright 1995, Gaussian, Inc.),
 the Gaussian 92(TM) system (copyright 1992, Gaussian, Inc.),
 the Gaussian 90(TM) system (copyright 1990, Gaussian, Inc.),
 the Gaussian 88(TM) system (copyright 1988, Gaussian, Inc.),
 the Gaussian 86(TM) system (copyright 1986, Carnegie Mellon
 University), and the Gaussian 82(TM) system (copyright 1983,
 Carnegie Mellon University). Gaussian is a federally registered
 trademark of Gaussian, Inc.
  
 This software contains proprietary and confidential information,
 including trade secrets, belonging to Gaussian, Inc.
  
 This software is provided under written license and may be
 used, copied, transmitted, or stored only in accord with that
 written license.
  
 The following legend is applicable only to US Government
 contracts under FAR:
  
                    RESTRICTED RIGHTS LEGEND
  
 Use, reproduction and disclosure by the US Government is
 subject to restrictions as set forth in subparagraphs (a)
 and (c) of the Commercial Computer Software - Restricted
 Rights clause in FAR 52.227-19.
  
 Gaussian, Inc.
 340 Quinnipiac St., Bldg. 40, Wallingford CT 06492
  
  
 ---------------------------------------------------------------
 Warning -- This program may not be used in any manner that
 competes with the business of Gaussian, Inc. or will provide
 assistance to any competitor of Gaussian, Inc.  The licensee
 of this program is prohibited from giving any competitor of
 Gaussian, Inc. access to this program.  By using this program,
 the user acknowledges that Gaussian, Inc. is engaged in the
 business of creating and licensing software in the field of
 computational chemistry and represents and warrants to the
 licensee that it is not a competitor of Gaussian, Inc. and that
 it will not use this program in any manner prohibited above.
 ---------------------------------------------------------------
  

 Cite this work as:
 Gaussian 16, Revision C.01,
 M. J. Frisch, G. W. Trucks, H. B. Schlegel, G. E. Scuseria, 
 M. A. Robb, J. R. Cheeseman, G. Scalmani, V. Barone, 
 G. A. Petersson, H. Nakatsuji, X. Li, M. Caricato, A. V. Marenich, 
 J. Bloino, B. G. Janesko, R. Gomperts, B. Mennucci, H. P. Hratchian, 
 J. V. Ortiz, A. F. Izmaylov, J. L. Sonnenberg, D. Williams-Young, 
 F. Ding, F. Lipparini, F. Egidi, J. Goings, B. Peng, A. Petrone, 
 T. Henderson, D. Ranasinghe, V. G. Zakrzewski, J. Gao, N. Rega, 
 G. Zheng, W. Liang, M. Hada, M. Ehara, K. Toyota, R. Fukuda, 
 J. Hasegawa, M. Ishida, T. Nakajima, Y. Honda, O. Kitao, H. Nakai, 
 T. Vreven, K. Throssell, J. A. Montgomery, Jr., J. E. Peralta, 
 F. Ogliaro, M. J. Bearpark, J. J. Heyd, E. N. Brothers, K. N. Kudin, 
 V. N. Staroverov, T. A. Keith, R. Kobayashi, J. Normand, 
 K. Raghavachari, A. P. Rendell, J. C. Burant, S. S. Iyengar, 
 J. Tomasi, M. Cossi, J. M. Millam, M. Klene, C. Adamo, R. Cammi, 
 J. W. Ochterski, R. L. Martin, K. Morokuma, O. Farkas, 
 J. B. Foresman, and D. J. Fox, Gaussian, Inc., Wallingford CT, 2019.
 
 ******************************************
 Gaussian 16:  ES64L-G16RevC.01  3-Jul-2019
                29-Jun-2022 
 ******************************************
 %mem=8gb
 %nproc=4
 Will use up to    4 processors via shared memory.
 %chk=conf-797.chk
 ----------------------------------------------------------------------
 # B3LYP/6-31G* empiricaldispersion=gd3bj guess=read geom=check nosymm 
 integral(ultrafinegrid)
 ----------------------------------------------------------------------
 1/29=2,38=1,172=1/1;
 2/12=2,15=1,40=1/2;
 3/5=1,6=6,7=1,11=2,14=-4,25=1,30=1,74=-5,75=-5,116=-2,124=41/1,2,3;
 4/5=1/1;
 5/5=2,38=6/2;
 6/7=2,8=2,9=2,10=2,28=1/1;
 99/5=1,9=1/99;
 ------------------------------------------------------
 Candidate Structure: Conf:797 Charge calc in gas phase
 ------------------------------------------------------
 Structure from the checkpoint file:  "conf-797.chk"
 Charge =  1 Multiplicity = 1
 Redundant internal coordinates found in file.  (old form).
 N,0,-2.3717255979,1.9914964934,-3.4465060241
 H,0,-2.9408173781,2.4731506259,-4.1418557779
 H,0,-1.591785639,1.3569965841,-3.971450213
 H,0,-1.8033024297,2.6767304738,-2.9093976916
 C,0,-3.1920972367,1.2908749937,-2.4097621178
 H,0,-4.2488108282,1.5360857489,-2.5371150219
 C,0,-2.6624970737,1.8334727359,-1.0635479152
 C,0,-2.9878277721,-0.2268740125,-2.5271394427
 H,0,-3.2129999645,-0.5302817106,-3.5584298905
 H,0,-1.936966947,-0.4773479576,-2.3544427852
 O,0,-1.6353365632,2.5179833214,-1.0605967831
 C,0,-3.9202221361,-1.0064381124,-1.6129661361
 N,0,-3.5277249065,-2.2763236757,-1.3426470421
 H,0,-4.0667753859,-2.747852546,-0.6261055095
 H,0,-2.5321276401,-2.4583051783,-1.3209769153
 O,0,-4.9886646318,-0.5328160075,-1.2161009431
 N,0,-3.3388381789,1.4765298673,0.0411405302
 H,0,-4.10900986,0.8268908177,-0.0964385381
 C,0,-2.6137875218,1.410069646,1.3077337045
 H,0,-2.1621366359,2.3905379005,1.4822380925
 C,0,-1.4988129998,0.3552106375,1.1349967092
 C,0,-3.5734548812,1.0863822665,2.4760664353
 H,0,-4.3660093818,1.8466403344,2.4197051955
 O,0,-1.7011242852,-0.6743260126,0.482675853
 C,0,-2.844220795,1.2678614997,3.8211020764
 H,0,-2.3208298858,2.233926172,3.8107828078
 H,0,-2.0663467731,0.5000972389,3.9200416253
 C,0,-4.2237348397,-0.3002316708,2.3536641465
 H,0,-3.4726564942,-1.0922060975,2.4351778147
 H,0,-4.9608959125,-0.4420273344,3.1486048376
 H,0,-4.7472938401,-0.4399053879,1.4023254541
 C,0,-3.7688180507,1.2225751354,5.0402615963
 H,0,-3.2098521966,1.4432265323,5.9554450479
 H,0,-4.5735641466,1.9625607092,4.9535583741
 H,0,-4.2310504427,0.2385464284,5.1672711947
 N,0,-0.3289633514,0.6323506944,1.7323587379
 H,0,-0.1546333728,1.5121950039,2.2091069136
 C,0,0.8352939069,-0.2235137571,1.6084777193
 H,0,0.5498923453,-1.2477549879,1.8766370708
 C,0,1.8781444553,0.3155347413,2.5947921014
 C,0,1.4124947596,-0.2128488602,0.1787215557
 H,0,2.2682795239,-0.8926687732,0.1116542492
 H,0,0.6466658089,-0.520779927,-0.5349932402
 H,0,1.7636009096,0.7909629912,-0.0724828515
 O,0,1.7841812173,1.4365731513,3.0816597581
 N,0,2.8956295011,-0.5493932092,2.8487202421
 H,0,2.9071917515,-1.4354811086,2.3564994007
 C,0,4.2209519309,-0.1077533253,3.240728085
 H,0,4.1142208938,0.7254942238,3.941622389
 C,0,4.9124289366,0.4178773701,1.9553874948
 C,0,4.9385187816,-1.3015271883,3.9078173394
 H,0,5.9896043496,-1.019165358,4.0917677748
 O,0,4.2810942132,1.0250990389,1.1019077878
 C,0,4.3139140007,-1.6599616824,5.248830423
 H,0,4.4167947901,-0.8327590241,5.9588441659
 H,0,4.8122872458,-2.542419172,5.6591606329
 H,0,3.251451162,-1.8850160115,5.1228143641
 O,0,4.8539426553,-2.4560292791,3.083370221
 H,0,5.1730691302,-2.2634479932,2.1760367083
 N,0,6.2388602625,0.1116830071,1.7534632904
 H,0,6.6657639458,-0.5905007016,2.3447455633
 C,0,6.6370350437,-0.0093083917,0.3636498469
 H,0,6.5359403271,0.961931191,-0.1288005712
 C,0,5.6850124258,-1.0181700672,-0.3269370761
 C,0,8.0954397898,-0.4545718839,0.2935115283
 H,0,8.7260448684,0.347001766,0.7033697911
 H,0,8.3766760341,-0.6166457716,-0.7574225175
 O,0,5.1097822848,-1.90781472,0.3023743839
 O,0,8.2042235716,-1.6471364925,1.0578630545
 H,0,9.1414141912,-1.8678332676,1.1627411139
 N,0,5.5234435215,-0.8567286338,-1.6578322922
 H,0,5.8527851823,-0.0161263491,-2.1211377498
 C,0,4.4714669135,-1.5557714147,-2.3706088643
 H,0,4.862685322,-2.4417415174,-2.8902743445
 H,0,3.7269926998,-1.9039994678,-1.6504036323
 C,0,3.8822492091,-0.6002954032,-3.4078896771
 O,0,4.5892655126,0.2702527338,-3.924268665
 N,0,2.590623468,-0.8221869142,-3.7340108812
 H,0,1.9904248876,-1.3385234998,-3.090781386
 C,0,1.8187855874,0.1142403025,-4.5397008621
 H,0,2.2256916871,1.1214985676,-4.3898208256
 C,0,0.3603964192,0.1096646862,-4.0111255084
 C,0,1.8450779887,-0.206393276,-6.0406408976
 H,0,1.451793622,-1.220175392,-6.1958283645
 H,0,1.1528458096,0.4887841163,-6.5274378324
 O,0,-0.4217870759,0.8882547159,-4.6537223373
 C,0,3.2407281939,-0.0913657117,-6.6579310813
 H,0,3.6661127614,0.8916233949,-6.4261310095
 H,0,3.9135419072,-0.8251823567,-6.2020895274
 C,0,3.210662033,-0.2999079757,-8.1797092031
 H,0,2.5476644017,0.4448919927,-8.6419811524
 H,0,2.8001700376,-1.2928598399,-8.4116508936
 C,0,4.6109743714,-0.1718899542,-8.7536556587
 H,0,5.0425528095,0.8170081808,-8.5835477498
 H,0,5.2940715925,-0.9297052086,-8.3635824171
 N,0,4.5930662745,-0.3659595464,-10.2750619023
 H,0,5.5277728369,-0.2837198447,-10.692883828
 H,0,3.985851514,0.3317894754,-10.7217517936
 H,0,4.2193314834,-1.2912859978,-10.5182795742
 O,0,0.0905391103,-0.6266315671,-3.046655628
 Recover connectivity data from disk.
                           ----------------------------
                           !    Current Parameters    !
                           ! (Angstroms and Degrees)  !
 --------------------------                            --------------------------
 ! Name  Definition              Value                                          !
 --------------------------------------------------------------------------------
 ! R1    R(1,2)                  1.0195                                         !
 ! R2    R(1,3)                  1.1342                                         !
 ! R3    R(1,4)                  1.0398                                         !
 ! R4    R(1,5)                  1.4962                                         !
 ! R5    R(5,6)                  1.0922                                         !
 ! R6    R(5,7)                  1.5451                                         !
 ! R7    R(5,8)                  1.5359                                         !
 ! R8    R(7,11)                 1.2344                                         !
 ! R9    R(7,17)                 1.3436                                         !
 ! R10   R(8,9)                  1.0983                                         !
 ! R11   R(8,10)                 1.094                                          !
 ! R12   R(8,12)                 1.5208                                         !
 ! R13   R(12,13)                1.3564                                         !
 ! R14   R(12,16)                1.2343                                         !
 ! R15   R(13,14)                1.0131                                         !
 ! R16   R(13,15)                1.0123                                         !
 ! R17   R(17,18)                1.0169                                         !
 ! R18   R(17,19)                1.4609                                         !
 ! R19   R(19,20)                1.0935                                         !
 ! R20   R(19,21)                1.5446                                         !
 ! R21   R(19,22)                1.5462                                         !
 ! R22   R(21,24)                1.2355                                         !
 ! R23   R(21,36)                1.3425                                         !
 ! R24   R(22,23)                1.0997                                         !
 ! R25   R(22,25)                1.5407                                         !
 ! R26   R(22,28)                1.5364                                         !
 ! R27   R(25,26)                1.0988                                         !
 ! R28   R(25,27)                1.0974                                         !
 ! R29   R(25,32)                1.5308                                         !
 ! R30   R(28,29)                1.0945                                         !
 ! R31   R(28,30)                1.0934                                         !
 ! R32   R(28,31)                1.0948                                         !
 ! R33   R(32,33)                1.0948                                         !
 ! R34   R(32,34)                1.0967                                         !
 ! R35   R(32,35)                1.0946                                         !
 ! R36   R(36,37)                1.0158                                         !
 ! R37   R(36,38)                1.4503                                         !
 ! R38   R(38,39)                1.0966                                         !
 ! R39   R(38,40)                1.5333                                         !
 ! R40   R(38,41)                1.5419                                         !
 ! R41   R(40,45)                1.2258                                         !
 ! R42   R(40,46)                1.3594                                         !
 ! R43   R(41,42)                1.095                                          !
 ! R44   R(41,43)                1.0912                                         !
 ! R45   R(41,44)                1.0927                                         !
 ! R46   R(46,47)                1.0137                                         !
 ! R47   R(46,48)                1.4509                                         !
 ! R48   R(48,49)                1.0941                                         !
 ! R49   R(48,50)                1.5513                                         !
 ! R50   R(48,51)                1.5443                                         !
 ! R51   R(50,53)                1.223                                          !
 ! R52   R(50,60)                1.3762                                         !
 ! R53   R(51,52)                1.1038                                         !
 ! R54   R(51,54)                1.5221                                         !
 ! R55   R(51,58)                1.4212                                         !
 ! R56   R(54,55)                1.095                                          !
 ! R57   R(54,56)                1.0934                                         !
 ! R58   R(54,57)                1.0933                                         !
 ! R59   R(58,59)                0.9809                                         !
 ! R60   R(60,61)                1.0124                                         !
 ! R61   R(60,62)                1.4508                                         !
 ! R62   R(62,63)                1.0936                                         !
 ! R63   R(62,64)                1.5495                                         !
 ! R64   R(62,65)                1.5265                                         !
 ! R65   R(64,68)                1.2322                                         !
 ! R66   R(64,71)                1.3504                                         !
 ! R67   R(65,66)                1.0992                                         !
 ! R68   R(65,67)                1.0999                                         !
 ! R69   R(65,69)                1.4207                                         !
 ! R70   R(69,70)                0.9685                                         !
 ! R71   R(71,72)                1.0148                                         !
 ! R72   R(71,73)                1.4503                                         !
 ! R73   R(73,74)                1.0991                                         !
 ! R74   R(73,75)                1.0928                                         !
 ! R75   R(73,76)                1.5284                                         !
 ! R76   R(76,77)                1.2347                                         !
 ! R77   R(76,78)                1.3505                                         !
 ! R78   R(78,79)                1.0201                                         !
 ! R79   R(78,80)                1.4566                                         !
 ! R80   R(80,81)                1.0966                                         !
 ! R81   R(80,82)                1.5512                                         !
 ! R82   R(80,83)                1.535                                          !
 ! R83   R(82,86)                1.2771                                         !
 ! R84   R(82,100)               1.243                                          !
 ! R85   R(83,84)                1.0984                                         !
 ! R86   R(83,85)                1.0952                                         !
 ! R87   R(83,87)                1.5304                                         !
 ! R88   R(87,88)                1.0959                                         !
 ! R89   R(87,89)                1.095                                          !
 ! R90   R(87,90)                1.5363                                         !
 ! R91   R(90,91)                1.0991                                         !
 ! R92   R(90,92)                1.0992                                         !
 ! R93   R(90,93)                1.5188                                         !
 ! R94   R(93,94)                1.0923                                         !
 ! R95   R(93,95)                1.0923                                         !
 ! R96   R(93,96)                1.5338                                         !
 ! R97   R(96,97)                1.0271                                         !
 ! R98   R(96,98)                1.0272                                         !
 ! R99   R(96,99)                1.0272                                         !
 ! A1    A(2,1,3)              109.4188                                         !
 ! A2    A(2,1,4)              110.251                                          !
 ! A3    A(2,1,5)              112.8152                                         !
 ! A4    A(3,1,4)              103.4044                                         !
 ! A5    A(3,1,5)              115.8343                                         !
 ! A6    A(4,1,5)              104.5013                                         !
 ! A7    A(1,5,6)              110.1538                                         !
 ! A8    A(1,5,7)              104.5573                                         !
 ! A9    A(1,5,8)              109.6847                                         !
 ! A10   A(6,5,7)              110.755                                          !
 ! A11   A(6,5,8)              109.9746                                         !
 ! A12   A(7,5,8)              111.5941                                         !
 ! A13   A(5,7,11)             118.8206                                         !
 ! A14   A(5,7,17)             116.7787                                         !
 ! A15   A(11,7,17)            124.3506                                         !
 ! A16   A(5,8,9)              108.5099                                         !
 ! A17   A(5,8,10)             109.9942                                         !
 ! A18   A(5,8,12)             112.2756                                         !
 ! A19   A(9,8,10)             106.3738                                         !
 ! A20   A(9,8,12)             107.2854                                         !
 ! A21   A(10,8,12)            112.1273                                         !
 ! A22   A(8,12,13)            114.9803                                         !
 ! A23   A(8,12,16)            121.8243                                         !
 ! A24   A(13,12,16)           123.0711                                         !
 ! A25   A(12,13,14)           115.0082                                         !
 ! A26   A(12,13,15)           117.2041                                         !
 ! A27   A(14,13,15)           115.118                                          !
 ! A28   A(7,17,18)            116.0865                                         !
 ! A29   A(7,17,19)            118.3646                                         !
 ! A30   A(18,17,19)           117.6519                                         !
 ! A31   A(17,19,20)           107.6105                                         !
 ! A32   A(17,19,21)           106.9994                                         !
 ! A33   A(17,19,22)           110.8909                                         !
 ! A34   A(20,19,21)           109.3927                                         !
 ! A35   A(20,19,22)           108.873                                          !
 ! A36   A(21,19,22)           112.9275                                         !
 ! A37   A(19,21,24)           120.6602                                         !
 ! A38   A(19,21,36)           115.9952                                         !
 ! A39   A(24,21,36)           123.3445                                         !
 ! A40   A(19,22,23)           105.2993                                         !
 ! A41   A(19,22,25)           109.9514                                         !
 ! A42   A(19,22,28)           113.0434                                         !
 ! A43   A(23,22,25)           107.7237                                         !
 ! A44   A(23,22,28)           108.3497                                         !
 ! A45   A(25,22,28)           112.0972                                         !
 ! A46   A(22,25,26)           108.7122                                         !
 ! A47   A(22,25,27)           109.3773                                         !
 ! A48   A(22,25,32)           113.9483                                         !
 ! A49   A(26,25,27)           106.1596                                         !
 ! A50   A(26,25,32)           108.7355                                         !
 ! A51   A(27,25,32)           109.6108                                         !
 ! A52   A(22,28,29)           110.8953                                         !
 ! A53   A(22,28,30)           110.15                                           !
 ! A54   A(22,28,31)           112.7532                                         !
 ! A55   A(29,28,30)           108.3408                                         !
 ! A56   A(29,28,31)           107.4909                                         !
 ! A57   A(30,28,31)           107.0261                                         !
 ! A58   A(25,32,33)           110.5733                                         !
 ! A59   A(25,32,34)           111.1181                                         !
 ! A60   A(25,32,35)           111.9673                                         !
 ! A61   A(33,32,34)           107.7423                                         !
 ! A62   A(33,32,35)           107.4447                                         !
 ! A63   A(34,32,35)           107.8121                                         !
 ! A64   A(21,36,37)           122.4944                                         !
 ! A65   A(21,36,38)           122.6645                                         !
 ! A66   A(37,36,38)           114.4234                                         !
 ! A67   A(36,38,39)           108.7469                                         !
 ! A68   A(36,38,40)           106.4743                                         !
 ! A69   A(36,38,41)           112.0636                                         !
 ! A70   A(39,38,40)           110.3708                                         !
 ! A71   A(39,38,41)           109.3083                                         !
 ! A72   A(40,38,41)           109.8431                                         !
 ! A73   A(38,40,45)           121.6602                                         !
 ! A74   A(38,40,46)           113.9263                                         !
 ! A75   A(45,40,46)           124.4077                                         !
 ! A76   A(38,41,42)           110.1856                                         !
 ! A77   A(38,41,43)           109.9877                                         !
 ! A78   A(38,41,44)           109.8651                                         !
 ! A79   A(42,41,43)           109.4659                                         !
 ! A80   A(42,41,44)           107.766                                          !
 ! A81   A(43,41,44)           109.535                                          !
 ! A82   A(40,46,47)           118.2953                                         !
 ! A83   A(40,46,48)           122.7179                                         !
 ! A84   A(47,46,48)           112.7581                                         !
 ! A85   A(46,48,49)           108.4091                                         !
 ! A86   A(46,48,50)           106.6444                                         !
 ! A87   A(46,48,51)           107.8083                                         !
 ! A88   A(49,48,50)           108.4352                                         !
 ! A89   A(49,48,51)           110.9361                                         !
 ! A90   A(50,48,51)           114.375                                          !
 ! A91   A(48,50,53)           121.0875                                         !
 ! A92   A(48,50,60)           118.4115                                         !
 ! A93   A(53,50,60)           120.3726                                         !
 ! A94   A(48,51,52)           108.4636                                         !
 ! A95   A(48,51,54)           111.8338                                         !
 ! A96   A(48,51,58)           110.4698                                         !
 ! A97   A(52,51,54)           107.7082                                         !
 ! A98   A(52,51,58)           111.1714                                         !
 ! A99   A(54,51,58)           107.1797                                         !
 ! A100  A(51,54,55)           110.7824                                         !
 ! A101  A(51,54,56)           109.49                                           !
 ! A102  A(51,54,57)           110.224                                          !
 ! A103  A(55,54,56)           108.8776                                         !
 ! A104  A(55,54,57)           108.7566                                         !
 ! A105  A(56,54,57)           108.6668                                         !
 ! A106  A(51,58,59)           110.9622                                         !
 ! A107  A(50,60,61)           118.3628                                         !
 ! A108  A(50,60,62)           115.0648                                         !
 ! A109  A(61,60,62)           112.7014                                         !
 ! A110  A(60,62,63)           109.386                                          !
 ! A111  A(60,62,64)           108.2172                                         !
 ! A112  A(60,62,65)           109.3028                                         !
 ! A113  A(63,62,64)           108.7073                                         !
 ! A114  A(63,62,65)           109.0672                                         !
 ! A115  A(64,62,65)           112.1234                                         !
 ! A116  A(62,64,68)           121.9557                                         !
 ! A117  A(62,64,71)           115.7805                                         !
 ! A118  A(68,64,71)           122.2634                                         !
 ! A119  A(62,65,66)           108.5587                                         !
 ! A120  A(62,65,67)           109.3397                                         !
 ! A121  A(62,65,69)           107.0555                                         !
 ! A122  A(66,65,67)           108.484                                          !
 ! A123  A(66,65,69)           111.5689                                         !
 ! A124  A(67,65,69)           111.7645                                         !
 ! A125  A(65,69,70)           108.8832                                         !
 ! A126  A(64,71,72)           120.6768                                         !
 ! A127  A(64,71,73)           120.9006                                         !
 ! A128  A(72,71,73)           114.2239                                         !
 ! A129  A(71,73,74)           111.2671                                         !
 ! A130  A(71,73,75)           108.8954                                         !
 ! A131  A(71,73,76)           108.171                                          !
 ! A132  A(74,73,75)           107.291                                          !
 ! A133  A(74,73,76)           108.6783                                         !
 ! A134  A(75,73,76)           112.5722                                         !
 ! A135  A(73,76,77)           120.2561                                         !
 ! A136  A(73,76,78)           115.4593                                         !
 ! A137  A(77,76,78)           124.2306                                         !
 ! A138  A(76,78,79)           119.5787                                         !
 ! A139  A(76,78,80)           122.3247                                         !
 ! A140  A(79,78,80)           111.2481                                         !
 ! A141  A(78,80,81)           108.5584                                         !
 ! A142  A(78,80,82)           107.9265                                         !
 ! A143  A(78,80,83)           113.4206                                         !
 ! A144  A(81,80,82)           107.7571                                         !
 ! A145  A(81,80,83)           108.6107                                         !
 ! A146  A(82,80,83)           110.4057                                         !
 ! A147  A(80,82,86)           113.7387                                         !
 ! A148  A(80,82,100)          118.0493                                         !
 ! A149  A(86,82,100)          128.2117                                         !
 ! A150  A(80,83,84)           108.9533                                         !
 ! A151  A(80,83,85)           106.9301                                         !
 ! A152  A(80,83,87)           113.2233                                         !
 ! A153  A(84,83,85)           107.262                                          !
 ! A154  A(84,83,87)           109.8103                                         !
 ! A155  A(85,83,87)           110.452                                          !
 ! A156  A(83,87,88)           109.639                                          !
 ! A157  A(83,87,89)           110.0029                                         !
 ! A158  A(83,87,90)           111.8076                                         !
 ! A159  A(88,87,89)           105.9361                                         !
 ! A160  A(88,87,90)           109.8085                                         !
 ! A161  A(89,87,90)           109.4768                                         !
 ! A162  A(87,90,91)           109.6602                                         !
 ! A163  A(87,90,92)           109.8126                                         !
 ! A164  A(87,90,93)           110.1723                                         !
 ! A165  A(91,90,92)           107.3452                                         !
 ! A166  A(91,90,93)           109.8837                                         !
 ! A167  A(92,90,93)           109.9206                                         !
 ! A168  A(90,93,94)           112.4422                                         !
 ! A169  A(90,93,95)           112.5304                                         !
 ! A170  A(90,93,96)           110.6959                                         !
 ! A171  A(94,93,95)           108.9901                                         !
 ! A172  A(94,93,96)           105.8806                                         !
 ! A173  A(95,93,96)           105.8872                                         !
 ! A174  A(93,96,97)           112.5029                                         !
 ! A175  A(93,96,98)           110.6281                                         !
 ! A176  A(93,96,99)           110.6768                                         !
 ! A177  A(97,96,98)           107.8583                                         !
 ! A178  A(97,96,99)           107.8735                                         !
 ! A179  A(98,96,99)           107.0903                                         !
 ! D1    D(2,1,5,6)             -6.7954                                         !
 ! D2    D(2,1,5,7)           -125.8284                                         !
 ! D3    D(2,1,5,8)            114.3872                                         !
 ! D4    D(3,1,5,6)           -133.982                                          !
 ! D5    D(3,1,5,7)            106.9849                                         !
 ! D6    D(3,1,5,8)            -12.7994                                         !
 ! D7    D(4,1,5,6)            112.9849                                         !
 ! D8    D(4,1,5,7)             -6.0482                                         !
 ! D9    D(4,1,5,8)           -125.8325                                         !
 ! D10   D(1,5,7,11)            -9.8758                                         !
 ! D11   D(1,5,7,17)           172.5853                                         !
 ! D12   D(6,5,7,11)          -128.5014                                         !
 ! D13   D(6,5,7,17)            53.9597                                         !
 ! D14   D(8,5,7,11)           108.6184                                         !
 ! D15   D(8,5,7,17)           -68.9205                                         !
 ! D16   D(1,5,8,9)            -54.7122                                         !
 ! D17   D(1,5,8,10)            61.2745                                         !
 ! D18   D(1,5,8,12)          -173.1204                                         !
 ! D19   D(6,5,8,9)             66.5783                                         !
 ! D20   D(6,5,8,10)          -177.435                                          !
 ! D21   D(6,5,8,12)           -51.8299                                         !
 ! D22   D(7,5,8,9)           -170.0971                                         !
 ! D23   D(7,5,8,10)           -54.1105                                         !
 ! D24   D(7,5,8,12)            71.4947                                         !
 ! D25   D(5,7,17,18)            3.9079                                         !
 ! D26   D(5,7,17,19)          152.2915                                         !
 ! D27   D(11,7,17,18)        -173.4803                                         !
 ! D28   D(11,7,17,19)         -25.0966                                         !
 ! D29   D(5,8,12,13)         -160.0229                                         !
 ! D30   D(5,8,12,16)           23.9116                                         !
 ! D31   D(9,8,12,13)           80.8486                                         !
 ! D32   D(9,8,12,16)          -95.2168                                         !
 ! D33   D(10,8,12,13)         -35.5901                                         !
 ! D34   D(10,8,12,16)         148.3444                                         !
 ! D35   D(8,12,13,14)         171.0376                                         !
 ! D36   D(8,12,13,15)          31.0026                                         !
 ! D37   D(16,12,13,14)        -12.9519                                         !
 ! D38   D(16,12,13,15)       -152.9869                                         !
 ! D39   D(7,17,19,20)          56.8489                                         !
 ! D40   D(7,17,19,21)         -60.6237                                         !
 ! D41   D(7,17,19,22)         175.8227                                         !
 ! D42   D(18,17,19,20)       -155.2604                                         !
 ! D43   D(18,17,19,21)         87.267                                          !
 ! D44   D(18,17,19,22)        -36.2866                                         !
 ! D45   D(17,19,21,24)        -37.7773                                         !
 ! D46   D(17,19,21,36)        142.3676                                         !
 ! D47   D(20,19,21,24)       -154.0736                                         !
 ! D48   D(20,19,21,36)         26.0713                                         !
 ! D49   D(22,19,21,24)         84.5111                                         !
 ! D50   D(22,19,21,36)        -95.3441                                         !
 ! D51   D(17,19,22,23)        -54.1594                                         !
 ! D52   D(17,19,22,25)       -169.949                                          !
 ! D53   D(17,19,22,28)         63.9428                                         !
 ! D54   D(20,19,22,23)         64.0509                                         !
 ! D55   D(20,19,22,25)        -51.7386                                         !
 ! D56   D(20,19,22,28)       -177.8468                                         !
 ! D57   D(21,19,22,23)       -174.2402                                         !
 ! D58   D(21,19,22,25)         69.9702                                         !
 ! D59   D(21,19,22,28)        -56.138                                          !
 ! D60   D(19,21,36,37)         -4.6583                                         !
 ! D61   D(19,21,36,38)       -176.8243                                         !
 ! D62   D(24,21,36,37)        175.4909                                         !
 ! D63   D(24,21,36,38)          3.3249                                         !
 ! D64   D(19,22,25,26)         47.953                                          !
 ! D65   D(19,22,25,27)        -67.5539                                         !
 ! D66   D(19,22,25,32)        169.3867                                         !
 ! D67   D(23,22,25,26)        -66.2966                                         !
 ! D68   D(23,22,25,27)        178.1964                                         !
 ! D69   D(23,22,25,32)         55.1371                                         !
 ! D70   D(28,22,25,26)        174.5952                                         !
 ! D71   D(28,22,25,27)         59.0882                                         !
 ! D72   D(28,22,25,32)        -63.9711                                         !
 ! D73   D(19,22,28,29)         65.408                                          !
 ! D74   D(19,22,28,30)       -174.6671                                         !
 ! D75   D(19,22,28,31)        -55.1876                                         !
 ! D76   D(23,22,28,29)       -178.2844                                         !
 ! D77   D(23,22,28,30)        -58.3595                                         !
 ! D78   D(23,22,28,31)         61.12                                           !
 ! D79   D(25,22,28,29)        -59.5452                                         !
 ! D80   D(25,22,28,30)         60.3798                                         !
 ! D81   D(25,22,28,31)        179.8592                                         !
 ! D82   D(22,25,32,33)       -175.0793                                         !
 ! D83   D(22,25,32,34)        -55.4822                                         !
 ! D84   D(22,25,32,35)         65.1405                                         !
 ! D85   D(26,25,32,33)        -53.6586                                         !
 ! D86   D(26,25,32,34)         65.9386                                         !
 ! D87   D(26,25,32,35)       -173.4388                                         !
 ! D88   D(27,25,32,33)         61.9886                                         !
 ! D89   D(27,25,32,34)       -178.4142                                         !
 ! D90   D(27,25,32,35)        -57.7916                                         !
 ! D91   D(21,36,38,39)        -52.5922                                         !
 ! D92   D(21,36,38,40)       -171.5196                                         !
 ! D93   D(21,36,38,41)         68.3604                                         !
 ! D94   D(37,36,38,39)        134.6615                                         !
 ! D95   D(37,36,38,40)         15.7341                                         !
 ! D96   D(37,36,38,41)       -104.3859                                         !
 ! D97   D(36,38,40,45)        -16.1536                                         !
 ! D98   D(36,38,40,46)        164.6813                                         !
 ! D99   D(39,38,40,45)       -134.0136                                         !
 ! D100  D(39,38,40,46)         46.8213                                         !
 ! D101  D(41,38,40,45)        105.3911                                         !
 ! D102  D(41,38,40,46)        -73.7741                                         !
 ! D103  D(36,38,41,42)       -178.153                                          !
 ! D104  D(36,38,41,43)        -57.387                                          !
 ! D105  D(36,38,41,44)         63.2597                                         !
 ! D106  D(39,38,41,42)        -57.5253                                         !
 ! D107  D(39,38,41,43)         63.2407                                         !
 ! D108  D(39,38,41,44)       -176.1126                                         !
 ! D109  D(40,38,41,42)         63.7102                                         !
 ! D110  D(40,38,41,43)       -175.5238                                         !
 ! D111  D(40,38,41,44)        -54.8771                                         !
 ! D112  D(38,40,46,47)          2.3861                                         !
 ! D113  D(38,40,46,48)        152.6161                                         !
 ! D114  D(45,40,46,47)       -176.7526                                         !
 ! D115  D(45,40,46,48)        -26.5226                                         !
 ! D116  D(40,46,48,49)         40.321                                          !
 ! D117  D(40,46,48,50)        -76.2538                                         !
 ! D118  D(40,46,48,51)        160.4843                                         !
 ! D119  D(47,46,48,49)       -167.98                                           !
 ! D120  D(47,46,48,50)         75.4451                                         !
 ! D121  D(47,46,48,51)        -47.8167                                         !
 ! D122  D(46,48,50,53)         36.8179                                         !
 ! D123  D(46,48,50,60)       -139.0777                                         !
 ! D124  D(49,48,50,53)        -79.7395                                         !
 ! D125  D(49,48,50,60)        104.3649                                         !
 ! D126  D(51,48,50,53)        155.8895                                         !
 ! D127  D(51,48,50,60)        -20.0061                                         !
 ! D128  D(46,48,51,52)        172.7468                                         !
 ! D129  D(46,48,51,54)        -68.618                                          !
 ! D130  D(46,48,51,58)         50.67                                           !
 ! D131  D(49,48,51,52)        -68.6959                                         !
 ! D132  D(49,48,51,54)         49.9393                                         !
 ! D133  D(49,48,51,58)        169.2272                                         !
 ! D134  D(50,48,51,52)         54.3333                                         !
 ! D135  D(50,48,51,54)        172.9685                                         !
 ! D136  D(50,48,51,58)        -67.7435                                         !
 ! D137  D(48,50,60,61)         12.0196                                         !
 ! D138  D(48,50,60,62)        149.4668                                         !
 ! D139  D(53,50,60,61)       -163.9065                                         !
 ! D140  D(53,50,60,62)        -26.4592                                         !
 ! D141  D(48,51,54,55)        -63.1353                                         !
 ! D142  D(48,51,54,56)        176.7709                                         !
 ! D143  D(48,51,54,57)         57.2848                                         !
 ! D144  D(52,51,54,55)         55.9475                                         !
 ! D145  D(52,51,54,56)        -64.1463                                         !
 ! D146  D(52,51,54,57)        176.3676                                         !
 ! D147  D(58,51,54,55)        175.6531                                         !
 ! D148  D(58,51,54,56)         55.5593                                         !
 ! D149  D(58,51,54,57)        -63.9268                                         !
 ! D150  D(48,51,58,59)         53.1013                                         !
 ! D151  D(52,51,58,59)        -67.3687                                         !
 ! D152  D(54,51,58,59)        175.1695                                         !
 ! D153  D(50,60,62,63)         64.9909                                         !
 ! D154  D(50,60,62,64)        -53.2879                                         !
 ! D155  D(50,60,62,65)       -175.6564                                         !
 ! D156  D(61,60,62,63)       -155.1794                                         !
 ! D157  D(61,60,62,64)         86.5419                                         !
 ! D158  D(61,60,62,65)        -35.8266                                         !
 ! D159  D(60,62,64,68)        -26.2825                                         !
 ! D160  D(60,62,64,71)        153.4896                                         !
 ! D161  D(63,62,64,68)       -144.9929                                         !
 ! D162  D(63,62,64,71)         34.7792                                         !
 ! D163  D(65,62,64,68)         94.3452                                         !
 ! D164  D(65,62,64,71)        -85.8827                                         !
 ! D165  D(60,62,65,66)        -65.8688                                         !
 ! D166  D(60,62,65,67)        175.9498                                         !
 ! D167  D(60,62,65,69)         54.7034                                         !
 ! D168  D(63,62,65,66)         53.6809                                         !
 ! D169  D(63,62,65,67)        -64.5005                                         !
 ! D170  D(63,62,65,69)        174.2531                                         !
 ! D171  D(64,62,65,66)        174.1342                                         !
 ! D172  D(64,62,65,67)         55.9528                                         !
 ! D173  D(64,62,65,69)        -65.2936                                         !
 ! D174  D(62,64,71,72)        -12.1336                                         !
 ! D175  D(62,64,71,73)       -167.7797                                         !
 ! D176  D(68,64,71,72)        167.6378                                         !
 ! D177  D(68,64,71,73)         11.9916                                         !
 ! D178  D(62,65,69,70)       -170.0899                                         !
 ! D179  D(66,65,69,70)        -51.4529                                         !
 ! D180  D(67,65,69,70)         70.2088                                         !
 ! D181  D(64,71,73,74)       -100.1388                                         !
 ! D182  D(64,71,73,75)         17.9174                                         !
 ! D183  D(64,71,73,76)        140.557                                          !
 ! D184  D(72,71,73,74)        102.7477                                         !
 ! D185  D(72,71,73,75)       -139.1961                                         !
 ! D186  D(72,71,73,76)        -16.5565                                         !
 ! D187  D(71,73,76,77)         30.5466                                         !
 ! D188  D(71,73,76,78)       -152.0129                                         !
 ! D189  D(74,73,76,77)        -90.3798                                         !
 ! D190  D(74,73,76,78)         87.0607                                         !
 ! D191  D(75,73,76,77)        150.9148                                         !
 ! D192  D(75,73,76,78)        -31.6448                                         !
 ! D193  D(73,76,78,79)         21.6698                                         !
 ! D194  D(73,76,78,80)        170.1315                                         !
 ! D195  D(77,76,78,79)       -161.0044                                         !
 ! D196  D(77,76,78,80)        -12.5426                                         !
 ! D197  D(76,78,80,81)        -27.7476                                         !
 ! D198  D(76,78,80,82)       -144.282                                          !
 ! D199  D(76,78,80,83)         93.0691                                         !
 ! D200  D(79,78,80,81)        123.0379                                         !
 ! D201  D(79,78,80,82)          6.5035                                         !
 ! D202  D(79,78,80,83)       -116.1454                                         !
 ! D203  D(78,80,82,86)       -179.2789                                         !
 ! D204  D(78,80,82,100)         0.5451                                         !
 ! D205  D(81,80,82,86)         63.6663                                         !
 ! D206  D(81,80,82,100)      -116.5097                                         !
 ! D207  D(83,80,82,86)        -54.8018                                         !
 ! D208  D(83,80,82,100)       125.0222                                         !
 ! D209  D(78,80,83,84)         58.4136                                         !
 ! D210  D(78,80,83,85)        174.04                                           !
 ! D211  D(78,80,83,87)        -64.0851                                         !
 ! D212  D(81,80,83,84)        179.2008                                         !
 ! D213  D(81,80,83,85)        -65.1728                                         !
 ! D214  D(81,80,83,87)         56.7021                                         !
 ! D215  D(82,80,83,84)        -62.8539                                         !
 ! D216  D(82,80,83,85)         52.7725                                         !
 ! D217  D(82,80,83,87)        174.6474                                         !
 ! D218  D(80,83,87,88)        -53.068                                          !
 ! D219  D(80,83,87,89)         63.0449                                         !
 ! D220  D(80,83,87,90)       -175.0956                                         !
 ! D221  D(84,83,87,88)       -175.0891                                         !
 ! D222  D(84,83,87,89)        -58.9762                                         !
 ! D223  D(84,83,87,90)         62.8833                                         !
 ! D224  D(85,83,87,88)         66.8139                                         !
 ! D225  D(85,83,87,89)       -177.0731                                         !
 ! D226  D(85,83,87,90)        -55.2136                                         !
 ! D227  D(83,87,90,91)         58.6775                                         !
 ! D228  D(83,87,90,92)        -59.0467                                         !
 ! D229  D(83,87,90,93)        179.7432                                         !
 ! D230  D(88,87,90,91)        -63.2528                                         !
 ! D231  D(88,87,90,92)        179.023                                          !
 ! D232  D(88,87,90,93)         57.813                                          !
 ! D233  D(89,87,90,91)       -179.1611                                         !
 ! D234  D(89,87,90,92)         63.1148                                         !
 ! D235  D(89,87,90,93)        -58.0953                                         !
 ! D236  D(87,90,93,94)        -61.3071                                         !
 ! D237  D(87,90,93,95)         62.2317                                         !
 ! D238  D(87,90,93,96)       -179.5048                                         !
 ! D239  D(91,90,93,94)         59.6249                                         !
 ! D240  D(91,90,93,95)       -176.8364                                         !
 ! D241  D(91,90,93,96)        -58.5728                                         !
 ! D242  D(92,90,93,94)        177.5473                                         !
 ! D243  D(92,90,93,95)        -58.9139                                         !
 ! D244  D(92,90,93,96)         59.3496                                         !
 ! D245  D(90,93,96,97)        179.9313                                         !
 ! D246  D(90,93,96,98)         59.2259                                         !
 ! D247  D(90,93,96,99)        -59.3093                                         !
 ! D248  D(94,93,96,97)         57.8072                                         !
 ! D249  D(94,93,96,98)        -62.8982                                         !
 ! D250  D(94,93,96,99)        178.5665                                         !
 ! D251  D(95,93,96,97)        -57.8333                                         !
 ! D252  D(95,93,96,98)       -178.5388                                         !
 ! D253  D(95,93,96,99)         62.926                                          !
 --------------------------------------------------------------------------------
 Symmetry turned off by external request.
 Stoichiometry    C28H52N9O11(1+)
 Framework group  C1[X(C28H52N9O11)]
 Deg. of freedom   294
 Full point group                 C1      NOp   1
                          Input orientation:                          
 ---------------------------------------------------------------------
 Center     Atomic      Atomic             Coordinates (Angstroms)
 Number     Number       Type             X           Y           Z
 ---------------------------------------------------------------------
      1          7           0       -2.371726    1.991496   -3.446506
      2          1           0       -2.940817    2.473151   -4.141856
      3          1           0       -1.591786    1.356997   -3.971450
      4          1           0       -1.803302    2.676730   -2.909398
      5          6           0       -3.192097    1.290875   -2.409762
      6          1           0       -4.248811    1.536086   -2.537115
      7          6           0       -2.662497    1.833473   -1.063548
      8          6           0       -2.987828   -0.226874   -2.527139
      9          1           0       -3.213000   -0.530282   -3.558430
     10          1           0       -1.936967   -0.477348   -2.354443
     11          8           0       -1.635337    2.517983   -1.060597
     12          6           0       -3.920222   -1.006438   -1.612966
     13          7           0       -3.527725   -2.276324   -1.342647
     14          1           0       -4.066775   -2.747853   -0.626106
     15          1           0       -2.532128   -2.458305   -1.320977
     16          8           0       -4.988665   -0.532816   -1.216101
     17          7           0       -3.338838    1.476530    0.041141
     18          1           0       -4.109010    0.826891   -0.096439
     19          6           0       -2.613788    1.410070    1.307734
     20          1           0       -2.162137    2.390538    1.482238
     21          6           0       -1.498813    0.355211    1.134997
     22          6           0       -3.573455    1.086382    2.476066
     23          1           0       -4.366009    1.846640    2.419705
     24          8           0       -1.701124   -0.674326    0.482676
     25          6           0       -2.844221    1.267861    3.821102
     26          1           0       -2.320830    2.233926    3.810783
     27          1           0       -2.066347    0.500097    3.920042
     28          6           0       -4.223735   -0.300232    2.353664
     29          1           0       -3.472656   -1.092206    2.435178
     30          1           0       -4.960896   -0.442027    3.148605
     31          1           0       -4.747294   -0.439905    1.402325
     32          6           0       -3.768818    1.222575    5.040262
     33          1           0       -3.209852    1.443227    5.955445
     34          1           0       -4.573564    1.962561    4.953558
     35          1           0       -4.231050    0.238546    5.167271
     36          7           0       -0.328963    0.632351    1.732359
     37          1           0       -0.154633    1.512195    2.209107
     38          6           0        0.835294   -0.223514    1.608478
     39          1           0        0.549892   -1.247755    1.876637
     40          6           0        1.878144    0.315535    2.594792
     41          6           0        1.412495   -0.212849    0.178722
     42          1           0        2.268280   -0.892669    0.111654
     43          1           0        0.646666   -0.520780   -0.534993
     44          1           0        1.763601    0.790963   -0.072483
     45          8           0        1.784181    1.436573    3.081660
     46          7           0        2.895630   -0.549393    2.848720
     47          1           0        2.907192   -1.435481    2.356499
     48          6           0        4.220952   -0.107753    3.240728
     49          1           0        4.114221    0.725494    3.941622
     50          6           0        4.912429    0.417877    1.955387
     51          6           0        4.938519   -1.301527    3.907817
     52          1           0        5.989604   -1.019165    4.091768
     53          8           0        4.281094    1.025099    1.101908
     54          6           0        4.313914   -1.659962    5.248830
     55          1           0        4.416795   -0.832759    5.958844
     56          1           0        4.812287   -2.542419    5.659161
     57          1           0        3.251451   -1.885016    5.122814
     58          8           0        4.853943   -2.456029    3.083370
     59          1           0        5.173069   -2.263448    2.176037
     60          7           0        6.238860    0.111683    1.753463
     61          1           0        6.665764   -0.590501    2.344746
     62          6           0        6.637035   -0.009308    0.363650
     63          1           0        6.535940    0.961931   -0.128801
     64          6           0        5.685012   -1.018170   -0.326937
     65          6           0        8.095440   -0.454572    0.293512
     66          1           0        8.726045    0.347002    0.703370
     67          1           0        8.376676   -0.616646   -0.757423
     68          8           0        5.109782   -1.907815    0.302374
     69          8           0        8.204224   -1.647136    1.057863
     70          1           0        9.141414   -1.867833    1.162741
     71          7           0        5.523444   -0.856729   -1.657832
     72          1           0        5.852785   -0.016126   -2.121138
     73          6           0        4.471467   -1.555771   -2.370609
     74          1           0        4.862685   -2.441742   -2.890274
     75          1           0        3.726993   -1.903999   -1.650404
     76          6           0        3.882249   -0.600295   -3.407890
     77          8           0        4.589266    0.270253   -3.924269
     78          7           0        2.590623   -0.822187   -3.734011
     79          1           0        1.990425   -1.338523   -3.090781
     80          6           0        1.818786    0.114240   -4.539701
     81          1           0        2.225692    1.121499   -4.389821
     82          6           0        0.360396    0.109665   -4.011126
     83          6           0        1.845078   -0.206393   -6.040641
     84          1           0        1.451794   -1.220175   -6.195828
     85          1           0        1.152846    0.488784   -6.527438
     86          8           0       -0.421787    0.888255   -4.653722
     87          6           0        3.240728   -0.091366   -6.657931
     88          1           0        3.666113    0.891623   -6.426131
     89          1           0        3.913542   -0.825182   -6.202090
     90          6           0        3.210662   -0.299908   -8.179709
     91          1           0        2.547664    0.444892   -8.641981
     92          1           0        2.800170   -1.292860   -8.411651
     93          6           0        4.610974   -0.171890   -8.753656
     94          1           0        5.042553    0.817008   -8.583548
     95          1           0        5.294072   -0.929705   -8.363582
     96          7           0        4.593066   -0.365960  -10.275062
     97          1           0        5.527773   -0.283720  -10.692884
     98          1           0        3.985852    0.331789  -10.721752
     99          1           0        4.219331   -1.291286  -10.518280
    100          8           0        0.090539   -0.626632   -3.046656
 ---------------------------------------------------------------------
 Rotational constants (GHZ):           0.0539811           0.0465416           0.0269804
 Standard basis: 6-31G(d) (6D, 7F)
   824 basis functions,  1552 primitive gaussians,   824 cartesian basis functions
   185 alpha electrons      185 beta electrons
       nuclear repulsion energy      6892.9111857768 Hartrees.
 NAtoms=  100 NActive=  100 NUniq=  100 SFac= 1.00D+00 NAtFMM=   60 NAOKFM=T Big=T
 Integral buffers will be    131072 words long.
 Raffenetti 2 integral format.
 Two-electron integral symmetry is turned off.
 Nuclear repulsion after empirical dispersion term =     6892.6963126762 Hartrees.
 One-electron integrals computed using PRISM.
 NBasis=   824 RedAO= T EigKep=  1.76D-03  NBF=   824
 NBsUse=   824 1.00D-06 EigRej= -1.00D+00 NBFU=   824
 Initial guess from the checkpoint file:  "conf-797.chk"
 B after Tr=     0.000000    0.000000    0.000000
         Rot=    1.000000    0.000000    0.000000    0.000000 Ang=   0.00 deg.
 Requested convergence on RMS density matrix=1.00D-08 within 128 cycles.
 Requested convergence on MAX density matrix=1.00D-06.
 Requested convergence on             energy=1.00D-06.
 No special actions if energy rises.
 SCF Done:  E(RB3LYP) =  -2418.63757473     A.U. after    1 cycles
            NFock=  1  Conv=0.67D-08     -V/T= 2.0092

 **********************************************************************

            Population analysis using the SCF Density.

 **********************************************************************

 Alpha  occ. eigenvalues --  -19.22212 -19.19426 -19.19029 -19.18725 -19.18017
 Alpha  occ. eigenvalues --  -19.17683 -19.17240 -19.17062 -19.16580 -19.16073
 Alpha  occ. eigenvalues --  -19.16000 -14.65116 -14.47771 -14.42948 -14.42305
 Alpha  occ. eigenvalues --  -14.41533 -14.41151 -14.40997 -14.40290 -14.39899
 Alpha  occ. eigenvalues --  -10.41749 -10.36070 -10.35867 -10.35525 -10.35507
 Alpha  occ. eigenvalues --  -10.34646 -10.33925 -10.33893 -10.33113 -10.32958
 Alpha  occ. eigenvalues --  -10.32231 -10.31224 -10.29976 -10.29726 -10.29361
 Alpha  occ. eigenvalues --  -10.29136 -10.28762 -10.28201 -10.27853 -10.27602
 Alpha  occ. eigenvalues --  -10.27092 -10.26034 -10.24465 -10.22619 -10.21588
 Alpha  occ. eigenvalues --  -10.21410 -10.21387 -10.21302  -1.18989  -1.11582
 Alpha  occ. eigenvalues --   -1.11342  -1.10773  -1.10084  -1.09613  -1.09413
 Alpha  occ. eigenvalues --   -1.09142  -1.08200  -1.07423  -1.05549  -1.03468
 Alpha  occ. eigenvalues --   -1.01489  -0.99224  -0.98925  -0.98898  -0.98012
 Alpha  occ. eigenvalues --   -0.96942  -0.96769  -0.96281  -0.95182  -0.87648
 Alpha  occ. eigenvalues --   -0.86681  -0.84625  -0.84280  -0.82819  -0.81970
 Alpha  occ. eigenvalues --   -0.80297  -0.79318  -0.78208  -0.77601  -0.77566
 Alpha  occ. eigenvalues --   -0.75629  -0.75149  -0.73955  -0.73473  -0.70695
 Alpha  occ. eigenvalues --   -0.69765  -0.69148  -0.67891  -0.66390  -0.65921
 Alpha  occ. eigenvalues --   -0.65393  -0.65228  -0.64889  -0.64869  -0.64448
 Alpha  occ. eigenvalues --   -0.63743  -0.63317  -0.62658  -0.62224  -0.61848
 Alpha  occ. eigenvalues --   -0.61211  -0.60917  -0.60334  -0.58849  -0.58018
 Alpha  occ. eigenvalues --   -0.57632  -0.56974  -0.56644  -0.56289  -0.56014
 Alpha  occ. eigenvalues --   -0.55794  -0.54724  -0.54502  -0.54027  -0.53723
 Alpha  occ. eigenvalues --   -0.53377  -0.52902  -0.52599  -0.52456  -0.52293
 Alpha  occ. eigenvalues --   -0.51775  -0.51473  -0.50911  -0.50403  -0.50146
 Alpha  occ. eigenvalues --   -0.49809  -0.49573  -0.49088  -0.48896  -0.48585
 Alpha  occ. eigenvalues --   -0.48056  -0.47644  -0.47546  -0.47216  -0.47076
 Alpha  occ. eigenvalues --   -0.46899  -0.46336  -0.46289  -0.46198  -0.45827
 Alpha  occ. eigenvalues --   -0.45449  -0.45247  -0.45135  -0.44429  -0.44199
 Alpha  occ. eigenvalues --   -0.43823  -0.43657  -0.43470  -0.42898  -0.42644
 Alpha  occ. eigenvalues --   -0.42318  -0.42195  -0.42049  -0.41597  -0.41487
 Alpha  occ. eigenvalues --   -0.41221  -0.41077  -0.40869  -0.40463  -0.40413
 Alpha  occ. eigenvalues --   -0.40234  -0.39108  -0.37629  -0.36996  -0.36887
 Alpha  occ. eigenvalues --   -0.36731  -0.35092  -0.34066  -0.34032  -0.33812
 Alpha  occ. eigenvalues --   -0.33431  -0.33100  -0.32627  -0.32366  -0.32012
 Alpha  occ. eigenvalues --   -0.31806  -0.31733  -0.31641  -0.31374  -0.31086
 Alpha  occ. eigenvalues --   -0.30540  -0.30502  -0.29526  -0.29373  -0.28536
 Alpha virt. eigenvalues --   -0.15567  -0.08873  -0.08827  -0.06209  -0.05843
 Alpha virt. eigenvalues --   -0.05573  -0.04852  -0.04470  -0.03616  -0.02859
 Alpha virt. eigenvalues --   -0.02544  -0.01839  -0.01342  -0.01279  -0.00803
 Alpha virt. eigenvalues --    0.00106   0.00319   0.02350   0.02877   0.03312
 Alpha virt. eigenvalues --    0.03517   0.04374   0.04595   0.04744   0.05207
 Alpha virt. eigenvalues --    0.05375   0.05608   0.06355   0.06434   0.07055
 Alpha virt. eigenvalues --    0.07108   0.07630   0.07960   0.07993   0.08287
 Alpha virt. eigenvalues --    0.08627   0.08820   0.08924   0.09458   0.09800
 Alpha virt. eigenvalues --    0.09863   0.09930   0.09999   0.10246   0.10503
 Alpha virt. eigenvalues --    0.11177   0.11270   0.11823   0.11895   0.12159
 Alpha virt. eigenvalues --    0.12272   0.12608   0.12935   0.13055   0.13390
 Alpha virt. eigenvalues --    0.13427   0.13707   0.14178   0.14321   0.14421
 Alpha virt. eigenvalues --    0.14732   0.15007   0.15303   0.15670   0.16110
 Alpha virt. eigenvalues --    0.16364   0.16963   0.17140   0.17463   0.17814
 Alpha virt. eigenvalues --    0.18126   0.18267   0.18542   0.19039   0.19107
 Alpha virt. eigenvalues --    0.19311   0.19498   0.19797   0.20104   0.20594
 Alpha virt. eigenvalues --    0.21035   0.21526   0.21768   0.22209   0.22894
 Alpha virt. eigenvalues --    0.23476   0.23723   0.24858   0.25339   0.26005
 Alpha virt. eigenvalues --    0.27562   0.27799   0.29283   0.29441   0.30266
 Alpha virt. eigenvalues --    0.31364   0.31634   0.32953   0.33348   0.33663
 Alpha virt. eigenvalues --    0.34203   0.34963   0.35076   0.35977   0.36375
 Alpha virt. eigenvalues --    0.36478   0.36952   0.37936   0.38694   0.39187
 Alpha virt. eigenvalues --    0.41043   0.43597   0.43920   0.44456   0.45020
 Alpha virt. eigenvalues --    0.45313   0.46174   0.46380   0.46724   0.47214
 Alpha virt. eigenvalues --    0.47370   0.47481   0.47744   0.48272   0.48387
 Alpha virt. eigenvalues --    0.48788   0.48922   0.49470   0.49760   0.49866
 Alpha virt. eigenvalues --    0.50259   0.50764   0.51263   0.51422   0.51944
 Alpha virt. eigenvalues --    0.52256   0.52612   0.52718   0.53062   0.53426
 Alpha virt. eigenvalues --    0.53964   0.54261   0.54708   0.55062   0.55562
 Alpha virt. eigenvalues --    0.55636   0.56290   0.56655   0.57082   0.57277
 Alpha virt. eigenvalues --    0.57822   0.57856   0.58321   0.58633   0.59313
 Alpha virt. eigenvalues --    0.59625   0.59913   0.60474   0.60825   0.60995
 Alpha virt. eigenvalues --    0.61219   0.61498   0.61820   0.62471   0.62565
 Alpha virt. eigenvalues --    0.62794   0.62910   0.63095   0.63161   0.63326
 Alpha virt. eigenvalues --    0.63831   0.64055   0.64153   0.64493   0.65589
 Alpha virt. eigenvalues --    0.66071   0.66122   0.66563   0.67056   0.67227
 Alpha virt. eigenvalues --    0.67490   0.67948   0.68913   0.69203   0.69669
 Alpha virt. eigenvalues --    0.69880   0.70770   0.71218   0.71280   0.71800
 Alpha virt. eigenvalues --    0.72379   0.72758   0.72917   0.73362   0.73898
 Alpha virt. eigenvalues --    0.74481   0.74639   0.74954   0.75201   0.75425
 Alpha virt. eigenvalues --    0.75624   0.76166   0.76579   0.76841   0.76940
 Alpha virt. eigenvalues --    0.77334   0.77562   0.77748   0.78236   0.78592
 Alpha virt. eigenvalues --    0.78741   0.79006   0.79315   0.79794   0.80153
 Alpha virt. eigenvalues --    0.80370   0.80426   0.80907   0.81068   0.81399
 Alpha virt. eigenvalues --    0.81487   0.81610   0.82106   0.82469   0.82746
 Alpha virt. eigenvalues --    0.83129   0.83491   0.83822   0.84079   0.84157
 Alpha virt. eigenvalues --    0.84318   0.84921   0.85198   0.85489   0.85989
 Alpha virt. eigenvalues --    0.86169   0.86276   0.86551   0.86764   0.87092
 Alpha virt. eigenvalues --    0.87408   0.87768   0.88056   0.88604   0.89107
 Alpha virt. eigenvalues --    0.89359   0.89620   0.89987   0.90376   0.90909
 Alpha virt. eigenvalues --    0.91234   0.91418   0.91997   0.92337   0.92405
 Alpha virt. eigenvalues --    0.92642   0.93016   0.93130   0.93837   0.94600
 Alpha virt. eigenvalues --    0.94899   0.95124   0.96143   0.96436   0.97343
 Alpha virt. eigenvalues --    0.97947   0.98456   0.98689   0.98829   0.99428
 Alpha virt. eigenvalues --    1.00113   1.01078   1.01375   1.01556   1.01997
 Alpha virt. eigenvalues --    1.02262   1.02998   1.03764   1.04226   1.04453
 Alpha virt. eigenvalues --    1.05589   1.06205   1.06466   1.06941   1.08114
 Alpha virt. eigenvalues --    1.08595   1.08643   1.08962   1.09666   1.10273
 Alpha virt. eigenvalues --    1.10595   1.11210   1.11941   1.12221   1.12408
 Alpha virt. eigenvalues --    1.13453   1.13909   1.14466   1.16401   1.17541
 Alpha virt. eigenvalues --    1.18142   1.18623   1.20139   1.20333   1.21102
 Alpha virt. eigenvalues --    1.21342   1.22536   1.22679   1.23256   1.23942
 Alpha virt. eigenvalues --    1.24895   1.25787   1.25952   1.26743   1.27203
 Alpha virt. eigenvalues --    1.27798   1.28564   1.29016   1.29428   1.30402
 Alpha virt. eigenvalues --    1.30916   1.31298   1.32288   1.33250   1.33989
 Alpha virt. eigenvalues --    1.34782   1.35028   1.35663   1.37361   1.37499
 Alpha virt. eigenvalues --    1.37665   1.38180   1.39923   1.40329   1.41380
 Alpha virt. eigenvalues --    1.41540   1.41874   1.42549   1.42598   1.43543
 Alpha virt. eigenvalues --    1.44242   1.44616   1.45610   1.46093   1.46897
 Alpha virt. eigenvalues --    1.47079   1.48610   1.49720   1.50045   1.50661
 Alpha virt. eigenvalues --    1.51127   1.51388   1.52488   1.53105   1.53670
 Alpha virt. eigenvalues --    1.55229   1.56647   1.56763   1.57163   1.58682
 Alpha virt. eigenvalues --    1.59594   1.60344   1.61120   1.61778   1.62375
 Alpha virt. eigenvalues --    1.62848   1.63292   1.64177   1.64810   1.64932
 Alpha virt. eigenvalues --    1.65331   1.65784   1.66732   1.67431   1.67959
 Alpha virt. eigenvalues --    1.68435   1.69018   1.69666   1.69780   1.70009
 Alpha virt. eigenvalues --    1.70655   1.70834   1.71221   1.71629   1.71795
 Alpha virt. eigenvalues --    1.72514   1.73150   1.73584   1.73698   1.74283
 Alpha virt. eigenvalues --    1.74460   1.75070   1.76001   1.76050   1.76474
 Alpha virt. eigenvalues --    1.76767   1.77620   1.77794   1.78352   1.78458
 Alpha virt. eigenvalues --    1.78765   1.79062   1.79435   1.79795   1.80135
 Alpha virt. eigenvalues --    1.80788   1.81197   1.81433   1.81548   1.81861
 Alpha virt. eigenvalues --    1.82409   1.83455   1.83600   1.83856   1.84029
 Alpha virt. eigenvalues --    1.85014   1.85394   1.85643   1.86346   1.86900
 Alpha virt. eigenvalues --    1.87314   1.87490   1.87757   1.88277   1.88679
 Alpha virt. eigenvalues --    1.88863   1.89241   1.90401   1.90679   1.90822
 Alpha virt. eigenvalues --    1.91596   1.92336   1.92488   1.92920   1.93053
 Alpha virt. eigenvalues --    1.93404   1.93544   1.94102   1.94856   1.95286
 Alpha virt. eigenvalues --    1.95675   1.96108   1.97007   1.97768   1.97965
 Alpha virt. eigenvalues --    1.98339   1.98544   1.98642   1.99259   2.00014
 Alpha virt. eigenvalues --    2.00623   2.00835   2.01923   2.02290   2.03049
 Alpha virt. eigenvalues --    2.03216   2.03982   2.04460   2.04728   2.04924
 Alpha virt. eigenvalues --    2.05781   2.06141   2.06580   2.07320   2.08026
 Alpha virt. eigenvalues --    2.08306   2.08771   2.09686   2.10816   2.11306
 Alpha virt. eigenvalues --    2.11506   2.11833   2.12364   2.12746   2.13502
 Alpha virt. eigenvalues --    2.13855   2.14895   2.15238   2.15452   2.16204
 Alpha virt. eigenvalues --    2.17247   2.17571   2.18809   2.19298   2.19811
 Alpha virt. eigenvalues --    2.20642   2.21746   2.22028   2.24669   2.24990
 Alpha virt. eigenvalues --    2.25320   2.25531   2.26428   2.26681   2.27064
 Alpha virt. eigenvalues --    2.27714   2.28331   2.28448   2.29109   2.29808
 Alpha virt. eigenvalues --    2.30643   2.30899   2.31777   2.32068   2.32503
 Alpha virt. eigenvalues --    2.33367   2.34195   2.34855   2.35925   2.36300
 Alpha virt. eigenvalues --    2.36888   2.37461   2.37975   2.38555   2.39339
 Alpha virt. eigenvalues --    2.39433   2.40737   2.41557   2.41845   2.43013
 Alpha virt. eigenvalues --    2.43419   2.44067   2.44957   2.45422   2.45679
 Alpha virt. eigenvalues --    2.46198   2.47689   2.48130   2.49863   2.50763
 Alpha virt. eigenvalues --    2.51470   2.52294   2.52833   2.53168   2.53523
 Alpha virt. eigenvalues --    2.54474   2.55313   2.56143   2.56992   2.58282
 Alpha virt. eigenvalues --    2.59165   2.59386   2.59851   2.60061   2.61216
 Alpha virt. eigenvalues --    2.61471   2.61874   2.63941   2.64785   2.65307
 Alpha virt. eigenvalues --    2.66389   2.67331   2.68592   2.69376   2.70616
 Alpha virt. eigenvalues --    2.71214   2.71690   2.72491   2.73054   2.74628
 Alpha virt. eigenvalues --    2.75757   2.77347   2.78242   2.79447   2.81207
 Alpha virt. eigenvalues --    2.82157   2.83767   2.84536   2.85895   2.87472
 Alpha virt. eigenvalues --    2.88402   2.89228   2.89817   2.90472   2.91715
 Alpha virt. eigenvalues --    2.92762   2.94006   2.95965   2.97105   2.97265
 Alpha virt. eigenvalues --    2.99161   3.01421   3.01602   3.02947   3.05122
 Alpha virt. eigenvalues --    3.10136   3.10464   3.10841   3.12292   3.14995
 Alpha virt. eigenvalues --    3.17228   3.54092   3.72422   3.77647   3.81092
 Alpha virt. eigenvalues --    3.86280   3.92228   3.94809   3.95643   3.98703
 Alpha virt. eigenvalues --    4.01074   4.01485   4.02540   4.04141   4.04709
 Alpha virt. eigenvalues --    4.07351   4.08455   4.10190   4.13017   4.15460
 Alpha virt. eigenvalues --    4.16513   4.17326   4.18572   4.21680   4.22923
 Alpha virt. eigenvalues --    4.23254   4.23837   4.28087   4.28648   4.30095
 Alpha virt. eigenvalues --    4.32513   4.33579   4.36499   4.37201   4.39043
 Alpha virt. eigenvalues --    4.40824   4.42481   4.43491   4.44654   4.48368
 Alpha virt. eigenvalues --    4.49987   4.50816   4.52337   4.58084   4.59013
 Alpha virt. eigenvalues --    4.59699   4.64662   4.66838   4.68175
          Condensed to atoms (all electrons):
 Mulliken charges:
               1
     1  N   -0.811042
     2  H    0.370683
     3  H    0.466376
     4  H    0.399680
     5  C   -0.078976
     6  H    0.201772
     7  C    0.624781
     8  C   -0.399948
     9  H    0.184630
    10  H    0.252011
    11  O   -0.538637
    12  C    0.608392
    13  N   -0.717455
    14  H    0.347500
    15  H    0.363359
    16  O   -0.538568
    17  N   -0.616167
    18  H    0.389053
    19  C   -0.053322
    20  H    0.170491
    21  C    0.652620
    22  C   -0.096182
    23  H    0.143077
    24  O   -0.583973
    25  C   -0.264589
    26  H    0.135385
    27  H    0.147371
    28  C   -0.484455
    29  H    0.159479
    30  H    0.156308
    31  H    0.162071
    32  C   -0.451234
    33  H    0.154737
    34  H    0.146685
    35  H    0.152929
    36  N   -0.607914
    37  H    0.359424
    38  C   -0.046963
    39  H    0.166208
    40  C    0.638214
    41  C   -0.476583
    42  H    0.143014
    43  H    0.201148
    44  H    0.177042
    45  O   -0.529974
    46  N   -0.593745
    47  H    0.344101
    48  C   -0.093749
    49  H    0.199106
    50  C    0.616170
    51  C    0.109247
    52  H    0.114950
    53  O   -0.511360
    54  C   -0.444934
    55  H    0.145174
    56  H    0.165172
    57  H    0.166799
    58  O   -0.667249
    59  H    0.430278
    60  N   -0.607128
    61  H    0.358470
    62  C   -0.072543
    63  H    0.184059
    64  C    0.653950
    65  C   -0.049547
    66  H    0.156173
    67  H    0.140996
    68  O   -0.546166
    69  O   -0.615211
    70  H    0.411781
    71  N   -0.604317
    72  H    0.352477
    73  C   -0.203639
    74  H    0.180310
    75  H    0.203646
    76  C    0.593508
    77  O   -0.553787
    78  N   -0.607529
    79  H    0.360503
    80  C   -0.051677
    81  H    0.178035
    82  C    0.619533
    83  C   -0.262035
    84  H    0.140864
    85  H    0.166823
    86  O   -0.648906
    87  C   -0.266157
    88  H    0.172172
    89  H    0.165377
    90  C   -0.292840
    91  H    0.164661
    92  H    0.164217
    93  C   -0.206501
    94  H    0.231956
    95  H    0.229940
    96  N   -0.731292
    97  H    0.430225
    98  H    0.426750
    99  H    0.426531
   100  O   -0.552103
 Sum of Mulliken charges =   1.00000
 Mulliken charges with hydrogens summed into heavy atoms:
               1
     1  N    0.425697
     5  C    0.122796
     7  C    0.624781
     8  C    0.036694
    11  O   -0.538637
    12  C    0.608392
    13  N   -0.006596
    16  O   -0.538568
    17  N   -0.227114
    19  C    0.117170
    21  C    0.652620
    22  C    0.046895
    24  O   -0.583973
    25  C    0.018167
    28  C   -0.006597
    32  C    0.003118
    36  N   -0.248490
    38  C    0.119245
    40  C    0.638214
    41  C    0.044621
    45  O   -0.529974
    46  N   -0.249644
    48  C    0.105357
    50  C    0.616170
    51  C    0.224197
    53  O   -0.511360
    54  C    0.032212
    58  O   -0.236971
    60  N   -0.248659
    62  C    0.111516
    64  C    0.653950
    65  C    0.247622
    68  O   -0.546166
    69  O   -0.203430
    71  N   -0.251840
    73  C    0.180317
    76  C    0.593508
    77  O   -0.553787
    78  N   -0.247026
    80  C    0.126358
    82  C    0.619533
    83  C    0.045651
    86  O   -0.648906
    87  C    0.071392
    90  C    0.036038
    93  C    0.255395
    96  N    0.552214
   100  O   -0.552103
 Electronic spatial extent (au):  <R**2>=          42166.8493
 Charge=              1.0000 electrons
 Dipole moment (field-independent basis, Debye):
    X=             19.9702    Y=             -1.1593    Z=            -42.3699  Tot=             46.8546
 Quadrupole moment (field-independent basis, Debye-Ang):
   XX=           -119.1882   YY=           -279.7768   ZZ=            164.6482
   XY=            -20.8438   XZ=           -179.8424   YZ=              9.4470
 Traceless Quadrupole moment (field-independent basis, Debye-Ang):
   XX=            -41.0826   YY=           -201.6712   ZZ=            242.7538
   XY=            -20.8438   XZ=           -179.8424   YZ=              9.4470
 Octapole moment (field-independent basis, Debye-Ang**2):
  XXX=             -3.1057  YYY=             60.2020  ZZZ=          -3857.9432  XYY=           -465.8030
  XXY=            -18.1457  XXZ=           -640.4559  XZZ=           1551.9859  YZZ=           -108.2512
  YYZ=            109.6947  XYZ=            127.7170
 Hexadecapole moment (field-independent basis, Debye-Ang**3):
 XXXX=         -18216.9302 YYYY=          -2523.4047 ZZZZ=          22859.7428 XXXY=            820.0079
 XXXZ=          -1757.1654 YYYX=           1737.5557 YYYZ=            -57.5200 ZZZX=         -18373.9516
 ZZZY=           1414.5987 XXYY=          -4872.5763 XXZZ=           1331.0279 YYZZ=          -4024.0203
 XXYZ=            229.3914 YYXZ=            440.0115 ZZXY=           -424.9702
 N-N= 6.892696312676D+03 E-N=-1.940541425078D+04  KE= 2.396579135860D+03
 Unable to Open any file for archive entry.
 1\1\GINC-LAC-260\SP\RB3LYP\6-31G(d)\C28H52N9O11(1+)\KENGMITH\29-Jun-20
 22\0\\# B3LYP/6-31G* empiricaldispersion=gd3bj guess=read geom=check n
 osymm integral(ultrafinegrid)\\Candidate Structure: Conf:797 Charge ca
 lc in gas phase\\1,1\N,0,-2.3717255979,1.9914964934,-3.4465060241\H,0,
 -2.9408173781,2.4731506259,-4.1418557779\H,0,-1.591785639,1.3569965841
 ,-3.971450213\H,0,-1.8033024297,2.6767304738,-2.9093976916\C,0,-3.1920
 972367,1.2908749937,-2.4097621178\H,0,-4.2488108282,1.5360857489,-2.53
 71150219\C,0,-2.6624970737,1.8334727359,-1.0635479152\C,0,-2.987827772
 1,-0.2268740125,-2.5271394427\H,0,-3.2129999645,-0.5302817106,-3.55842
 98905\H,0,-1.936966947,-0.4773479576,-2.3544427852\O,0,-1.6353365632,2
 .5179833214,-1.0605967831\C,0,-3.9202221361,-1.0064381124,-1.612966136
 1\N,0,-3.5277249065,-2.2763236757,-1.3426470421\H,0,-4.0667753859,-2.7
 47852546,-0.6261055095\H,0,-2.5321276401,-2.4583051783,-1.3209769153\O
 ,0,-4.9886646318,-0.5328160075,-1.2161009431\N,0,-3.3388381789,1.47652
 98673,0.0411405302\H,0,-4.10900986,0.8268908177,-0.0964385381\C,0,-2.6
 137875218,1.410069646,1.3077337045\H,0,-2.1621366359,2.3905379005,1.48
 22380925\C,0,-1.4988129998,0.3552106375,1.1349967092\C,0,-3.5734548812
 ,1.0863822665,2.4760664353\H,0,-4.3660093818,1.8466403344,2.4197051955
 \O,0,-1.7011242852,-0.6743260126,0.482675853\C,0,-2.844220795,1.267861
 4997,3.8211020764\H,0,-2.3208298858,2.233926172,3.8107828078\H,0,-2.06
 63467731,0.5000972389,3.9200416253\C,0,-4.2237348397,-0.3002316708,2.3
 536641465\H,0,-3.4726564942,-1.0922060975,2.4351778147\H,0,-4.96089591
 25,-0.4420273344,3.1486048376\H,0,-4.7472938401,-0.4399053879,1.402325
 4541\C,0,-3.7688180507,1.2225751354,5.0402615963\H,0,-3.2098521966,1.4
 432265323,5.9554450479\H,0,-4.5735641466,1.9625607092,4.9535583741\H,0
 ,-4.2310504427,0.2385464284,5.1672711947\N,0,-0.3289633514,0.632350694
 4,1.7323587379\H,0,-0.1546333728,1.5121950039,2.2091069136\C,0,0.83529
 39069,-0.2235137571,1.6084777193\H,0,0.5498923453,-1.2477549879,1.8766
 370708\C,0,1.8781444553,0.3155347413,2.5947921014\C,0,1.4124947596,-0.
 2128488602,0.1787215557\H,0,2.2682795239,-0.8926687732,0.1116542492\H,
 0,0.6466658089,-0.520779927,-0.5349932402\H,0,1.7636009096,0.790962991
 2,-0.0724828515\O,0,1.7841812173,1.4365731513,3.0816597581\N,0,2.89562
 95011,-0.5493932092,2.8487202421\H,0,2.9071917515,-1.4354811086,2.3564
 994007\C,0,4.2209519309,-0.1077533253,3.240728085\H,0,4.1142208938,0.7
 254942238,3.941622389\C,0,4.9124289366,0.4178773701,1.9553874948\C,0,4
 .9385187816,-1.3015271883,3.9078173394\H,0,5.9896043496,-1.019165358,4
 .0917677748\O,0,4.2810942132,1.0250990389,1.1019077878\C,0,4.313914000
 7,-1.6599616824,5.248830423\H,0,4.4167947901,-0.8327590241,5.958844165
 9\H,0,4.8122872458,-2.542419172,5.6591606329\H,0,3.251451162,-1.885016
 0115,5.1228143641\O,0,4.8539426553,-2.4560292791,3.083370221\H,0,5.173
 0691302,-2.2634479932,2.1760367083\N,0,6.2388602625,0.1116830071,1.753
 4632904\H,0,6.6657639458,-0.5905007016,2.3447455633\C,0,6.6370350437,-
 0.0093083917,0.3636498469\H,0,6.5359403271,0.961931191,-0.1288005712\C
 ,0,5.6850124258,-1.0181700672,-0.3269370761\C,0,8.0954397898,-0.454571
 8839,0.2935115283\H,0,8.7260448684,0.347001766,0.7033697911\H,0,8.3766
 760341,-0.6166457716,-0.7574225175\O,0,5.1097822848,-1.90781472,0.3023
 743839\O,0,8.2042235716,-1.6471364925,1.0578630545\H,0,9.1414141912,-1
 .8678332676,1.1627411139\N,0,5.5234435215,-0.8567286338,-1.6578322922\
 H,0,5.8527851823,-0.0161263491,-2.1211377498\C,0,4.4714669135,-1.55577
 14147,-2.3706088643\H,0,4.862685322,-2.4417415174,-2.8902743445\H,0,3.
 7269926998,-1.9039994678,-1.6504036323\C,0,3.8822492091,-0.6002954032,
 -3.4078896771\O,0,4.5892655126,0.2702527338,-3.924268665\N,0,2.5906234
 68,-0.8221869142,-3.7340108812\H,0,1.9904248876,-1.3385234998,-3.09078
 1386\C,0,1.8187855874,0.1142403025,-4.5397008621\H,0,2.2256916871,1.12
 14985676,-4.3898208256\C,0,0.3603964192,0.1096646862,-4.0111255084\C,0
 ,1.8450779887,-0.206393276,-6.0406408976\H,0,1.451793622,-1.220175392,
 -6.1958283645\H,0,1.1528458096,0.4887841163,-6.5274378324\O,0,-0.42178
 70759,0.8882547159,-4.6537223373\C,0,3.2407281939,-0.0913657117,-6.657
 9310813\H,0,3.6661127614,0.8916233949,-6.4261310095\H,0,3.9135419072,-
 0.8251823567,-6.2020895274\C,0,3.210662033,-0.2999079757,-8.1797092031
 \H,0,2.5476644017,0.4448919927,-8.6419811524\H,0,2.8001700376,-1.29285
 98399,-8.4116508936\C,0,4.6109743714,-0.1718899542,-8.7536556587\H,0,5
 .0425528095,0.8170081808,-8.5835477498\H,0,5.2940715925,-0.9297052086,
 -8.3635824171\N,0,4.5930662745,-0.3659595464,-10.2750619023\H,0,5.5277
 728369,-0.2837198447,-10.692883828\H,0,3.985851514,0.3317894754,-10.72
 17517936\H,0,4.2193314834,-1.2912859978,-10.5182795742\O,0,0.090539110
 3,-0.6266315671,-3.046655628\\Version=ES64L-G16RevC.01\HF=-2418.637574
 7\RMSD=6.702e-09\Dipole=5.164161,-0.3240298,-15.1864449\Quadrupole=-30
 .543904,-149.9375779,180.4814819,-15.4968479,-133.7084395,7.0236194\PG
 =C01 [X(C28H52N9O11)]\\@
 The archive entry for this job was punched.


 IF MATHEMATICALLY YOU END UP WITH THE INCORRECT ANSWER,
 TRY MULTIPLYING BY THE PAGE NUMBER.
 Job cpu time:       0 days  0 hours  3 minutes  9.4 seconds.
 Elapsed time:       0 days  0 hours  0 minutes 48.0 seconds.
 File lengths (MBytes):  RWF=    464 Int=      0 D2E=      0 Chk=     72 Scr=     16
 Normal termination of Gaussian 16 at Wed Jun 29 00:44:06 2022.
