 Entering Gaussian System, Link 0=/opt/software/Gaussian/g16-AVX2-C.01/g16/g16
 Input=charge-conf-234.com
 Output=charge-conf-234.log
 Initial command:
 /opt/software/Gaussian/g16-AVX2-C.01/g16/l1.exe "/mnt/gs18/scratch/users/kengmith/Gau-54914.inp" -scrdir="/mnt/gs18/scratch/users/kengmith/"
 Entering Link 1 = /opt/software/Gaussian/g16-AVX2-C.01/g16/l1.exe PID=     55047.
  
 Copyright (c) 1988-2019, Gaussian, Inc.  All Rights Reserved.
  
 This is part of the Gaussian(R) 16 program.  It is based on
 the Gaussian(R) 09 system (copyright 2009, Gaussian, Inc.),
 the Gaussian(R) 03 system (copyright 2003, Gaussian, Inc.),
 the Gaussian(R) 98 system (copyright 1998, Gaussian, Inc.),
 the Gaussian(R) 94 system (copyright 1995, Gaussian, Inc.),
 the Gaussian 92(TM) system (copyright 1992, Gaussian, Inc.),
 the Gaussian 90(TM) system (copyright 1990, Gaussian, Inc.),
 the Gaussian 88(TM) system (copyright 1988, Gaussian, Inc.),
 the Gaussian 86(TM) system (copyright 1986, Carnegie Mellon
 University), and the Gaussian 82(TM) system (copyright 1983,
 Carnegie Mellon University). Gaussian is a federally registered
 trademark of Gaussian, Inc.
  
 This software contains proprietary and confidential information,
 including trade secrets, belonging to Gaussian, Inc.
  
 This software is provided under written license and may be
 used, copied, transmitted, or stored only in accord with that
 written license.
  
 The following legend is applicable only to US Government
 contracts under FAR:
  
                    RESTRICTED RIGHTS LEGEND
  
 Use, reproduction and disclosure by the US Government is
 subject to restrictions as set forth in subparagraphs (a)
 and (c) of the Commercial Computer Software - Restricted
 Rights clause in FAR 52.227-19.
  
 Gaussian, Inc.
 340 Quinnipiac St., Bldg. 40, Wallingford CT 06492
  
  
 ---------------------------------------------------------------
 Warning -- This program may not be used in any manner that
 competes with the business of Gaussian, Inc. or will provide
 assistance to any competitor of Gaussian, Inc.  The licensee
 of this program is prohibited from giving any competitor of
 Gaussian, Inc. access to this program.  By using this program,
 the user acknowledges that Gaussian, Inc. is engaged in the
 business of creating and licensing software in the field of
 computational chemistry and represents and warrants to the
 licensee that it is not a competitor of Gaussian, Inc. and that
 it will not use this program in any manner prohibited above.
 ---------------------------------------------------------------
  

 Cite this work as:
 Gaussian 16, Revision C.01,
 M. J. Frisch, G. W. Trucks, H. B. Schlegel, G. E. Scuseria, 
 M. A. Robb, J. R. Cheeseman, G. Scalmani, V. Barone, 
 G. A. Petersson, H. Nakatsuji, X. Li, M. Caricato, A. V. Marenich, 
 J. Bloino, B. G. Janesko, R. Gomperts, B. Mennucci, H. P. Hratchian, 
 J. V. Ortiz, A. F. Izmaylov, J. L. Sonnenberg, D. Williams-Young, 
 F. Ding, F. Lipparini, F. Egidi, J. Goings, B. Peng, A. Petrone, 
 T. Henderson, D. Ranasinghe, V. G. Zakrzewski, J. Gao, N. Rega, 
 G. Zheng, W. Liang, M. Hada, M. Ehara, K. Toyota, R. Fukuda, 
 J. Hasegawa, M. Ishida, T. Nakajima, Y. Honda, O. Kitao, H. Nakai, 
 T. Vreven, K. Throssell, J. A. Montgomery, Jr., J. E. Peralta, 
 F. Ogliaro, M. J. Bearpark, J. J. Heyd, E. N. Brothers, K. N. Kudin, 
 V. N. Staroverov, T. A. Keith, R. Kobayashi, J. Normand, 
 K. Raghavachari, A. P. Rendell, J. C. Burant, S. S. Iyengar, 
 J. Tomasi, M. Cossi, J. M. Millam, M. Klene, C. Adamo, R. Cammi, 
 J. W. Ochterski, R. L. Martin, K. Morokuma, O. Farkas, 
 J. B. Foresman, and D. J. Fox, Gaussian, Inc., Wallingford CT, 2019.
 
 ******************************************
 Gaussian 16:  ES64L-G16RevC.01  3-Jul-2019
                30-Jun-2022 
 ******************************************
 %mem=8gb
 %nproc=4
 Will use up to    4 processors via shared memory.
 %chk=conf-234.chk
 -------------------------------------------------------------------
 # B3LYP/6-31G* guess=read geom=check nosymm integral(ultrafinegrid)
 -------------------------------------------------------------------
 1/29=2,38=1,172=1/1;
 2/12=2,15=1,40=1/2;
 3/5=1,6=6,7=1,11=2,14=-4,25=1,30=1,74=-5,75=-5,116=-2/1,2,3;
 4/5=1/1;
 5/5=2,38=6/2;
 6/7=2,8=2,9=2,10=2,28=1/1;
 99/5=1,9=1/99;
 ------------------------------------------------------
 Candidate Structure: Conf:234 Charge calc in gas phase
 ------------------------------------------------------
 Structure from the checkpoint file:  "conf-234.chk"
 Charge =  1 Multiplicity = 1
 Redundant internal coordinates found in file.  (old form).
 N,0,-8.8778217508,-4.8744566907,-5.9021585974
 H,0,-8.8395003137,-4.8583454619,-4.8640968489
 H,0,-9.6051189683,-4.2083189499,-6.240769693
 H,0,-9.1360867977,-5.8161628294,-6.2110417116
 C,0,-7.602646339,-4.3803404197,-6.5714719743
 H,0,-6.9026988729,-5.2160974553,-6.6359338033
 C,0,-7.1045034441,-3.230405887,-5.6795116009
 C,0,-8.0447906173,-3.8445293307,-7.9663904478
 H,0,-7.2298940079,-3.2114810949,-8.3402985255
 O,0,-7.798373077,-2.2103958579,-5.6037921052
 C,0,-8.3437740716,-4.9429180896,-8.9781299719
 H,0,-7.4558822998,-5.5542833734,-9.1683973254
 H,0,-8.6602290169,-4.4875879715,-9.919768506
 H,0,-9.1591450868,-5.5974831707,-8.6460213247
 O,0,-9.2299306001,-3.0781625447,-7.772763258
 H,0,-8.9732168451,-2.3084327105,-7.2205724882
 N,0,-5.9843321473,-3.4633183579,-4.9872677948
 H,0,-5.3435601036,-4.2285785622,-5.2000385037
 C,0,-5.465473511,-2.5622374596,-3.9669663181
 H,0,-5.793830921,-1.5470169388,-4.2027274106
 C,0,-3.9301175315,-2.7099576177,-4.0345597414
 C,0,-5.9655125415,-2.9797417495,-2.5448404391
 H,0,-5.3881443568,-3.8564886743,-2.2301329681
 H,0,-5.7183544108,-2.1691613805,-1.850393617
 O,0,-3.4497218196,-3.7370856079,-4.5248091517
 C,0,-7.4431948792,-3.3048157944,-2.4857518068
 C,0,-7.8752959465,-4.6385292505,-2.5698335715
 H,0,-7.1369330195,-5.4370031229,-2.6078047932
 C,0,-8.4115712926,-2.2987260125,-2.3750868916
 H,0,-8.0992670786,-1.2603340159,-2.3000174088
 C,0,-9.240544682,-4.9567733525,-2.5554705974
 H,0,-9.5541034226,-5.9987541784,-2.5630465467
 C,0,-9.7727910996,-2.608190911,-2.3634310317
 H,0,-10.5046920677,-1.8112484258,-2.2704847665
 C,0,-10.1943379346,-3.9360577608,-2.458672178
 H,0,-11.2529842054,-4.1778723524,-2.4261806991
 N,0,-3.2253402074,-1.7083798255,-3.4963195568
 H,0,-3.6651482673,-0.9011946446,-3.0537269637
 C,0,-1.7790589679,-1.7318837835,-3.3072403547
 H,0,-1.4910991807,-2.7238621688,-2.9399120606
 C,0,-1.5057759616,-0.6702667094,-2.2178278456
 C,0,-1.017488449,-1.4345889557,-4.6097702767
 H,0,0.0639010684,-1.4701859283,-4.4441805897
 H,0,-1.2771341422,-0.4407831633,-4.9885408244
 H,0,-1.2751546385,-2.183260526,-5.3635316489
 O,0,-2.3898106527,0.1296136254,-1.8934948389
 N,0,-0.2719081911,-0.6840368093,-1.6912397893
 H,0,0.4414447917,-1.3507766906,-1.9781683301
 C,0,0.1877669901,0.2565056072,-0.6769592975
 H,0,-0.1561637698,1.2613504237,-0.9489802199
 C,0,1.7277839297,0.1762875264,-0.7298340421
 C,0,-0.3792404672,-0.1214174658,0.7138672912
 H,0,0.0662405163,-1.069865304,1.0348017229
 H,0,-1.4501345571,-0.3010775837,0.5873493748
 O,0,2.2799292667,-0.8212927687,-1.2024529208
 C,0,-0.1927158795,0.9451871355,1.7960907255
 H,0,0.8582979272,1.1295396968,2.0451164898
 H,0,-0.593679128,1.9149218223,1.4679704722
 C,0,-0.9173734477,0.5721766699,3.0740687116
 O,0,-1.6424282991,-0.3870001315,3.2239252411
 O,0,-0.664554635,1.462426319,4.0611863657
 N,0,2.3912550122,1.2308586562,-0.2231793852
 H,0,1.9119240842,2.0035226539,0.2337034274
 C,0,3.8319178471,1.2466242978,-0.011508544
 H,0,4.1464853358,0.2423403725,0.2957583086
 C,0,4.0663770598,2.2399661459,1.1486303892
 C,0,4.5988350516,1.6403191271,-1.2853703332
 H,0,5.6802061478,1.6275049356,-1.1144273942
 H,0,4.3120527,2.6450800157,-1.6128321003
 H,0,4.3672906737,0.9274640987,-2.0813950003
 O,0,3.1414016979,2.9480296633,1.5636256488
 N,0,5.3155077277,2.2740730092,1.6381574882
 H,0,6.0639247698,1.6903886386,1.2717419162
 C,0,5.7531579278,3.1739862719,2.699849062
 H,0,5.301505489,4.1554974195,2.5259486941
 C,0,7.2867548682,3.2453749233,2.5522356957
 C,0,5.3174632387,2.6339572878,4.0873364197
 H,0,4.249967543,2.3940128445,4.0046991291
 H,0,5.8482137505,1.687461969,4.2554579671
 O,0,7.8968983598,2.3306195506,1.9872967857
 C,0,5.5187577986,3.5643180763,5.3012549419
 H,0,6.5796967635,3.838330889,5.3695594035
 C,0,4.6965495386,4.8586399841,5.192758866
 H,0,3.6266091376,4.6355178824,5.0923874115
 H,0,4.986148029,5.4732485244,4.3323541619
 H,0,4.8316471924,5.4768669637,6.08705549
 C,0,5.1562650052,2.8067492383,6.5884802948
 H,0,4.1003312589,2.5058710939,6.5839624693
 H,0,5.3202334677,3.4347805846,7.4714498472
 H,0,5.7622706112,1.9003756665,6.7039122986
 N,0,7.8819749037,4.3281836226,3.0809211552
 H,0,7.3596918388,5.0529128847,3.5679356569
 C,0,9.3238413077,4.4972993525,3.2020210075
 H,0,9.7851363863,3.5262323456,3.3976324696
 C,0,9.5797799051,5.439196477,4.3981075477
 C,0,9.9252143472,5.0866382406,1.8917649745
 H,0,9.2348771902,5.8561531175,1.5200355852
 H,0,9.9275391109,4.2856069233,1.1456984225
 O,0,10.765291501,5.3408812118,4.8852811437
 C,0,11.3404270471,5.6857795993,2.0387116833
 H,0,11.8725617825,5.6168874116,1.0808719644
 H,0,11.9079804844,5.1146691555,2.7776365927
 C,0,11.2869863036,7.1645070409,2.4748294398
 H,0,10.5106203762,7.3371968244,3.2209248797
 H,0,11.0354906678,7.7952172633,1.6131886112
 N,0,12.5440986893,7.6816822744,3.0305657815
 H,0,13.3327059528,7.756481787,2.4017280909
 N,0,12.0198396818,7.4666298816,5.296059901
 H,0,12.2047579255,7.8138939202,6.2288738928
 H,0,11.3491650322,6.5315590313,5.1910792702
 N,0,13.9728009019,8.5724445105,4.6010040004
 H,0,14.2524215413,9.308893241,3.9672553449
 H,0,14.2228473863,8.7231380016,5.5678083589
 C,0,12.8108113184,7.8921581629,4.3363098319
 O,0,8.692721765,6.2445378562,4.7173559114
 H,0,-1.1686482225,1.1594572145,4.8399711456
 Recover connectivity data from disk.
                           ----------------------------
                           !    Current Parameters    !
                           ! (Angstroms and Degrees)  !
 --------------------------                            --------------------------
 ! Name  Definition              Value                                          !
 --------------------------------------------------------------------------------
 ! R1    R(1,2)                  1.0389                                         !
 ! R2    R(1,3)                  1.0428                                         !
 ! R3    R(1,4)                  1.0242                                         !
 ! R4    R(1,5)                  1.5226                                         !
 ! R5    R(5,6)                  1.092                                          !
 ! R6    R(5,7)                  1.5382                                         !
 ! R7    R(5,8)                  1.5583                                         !
 ! R8    R(7,10)                 1.236                                          !
 ! R9    R(7,17)                 1.3372                                         !
 ! R10   R(8,9)                  1.0975                                         !
 ! R11   R(8,11)                 1.523                                          !
 ! R12   R(8,15)                 1.4246                                         !
 ! R13   R(11,12)                1.0947                                         !
 ! R14   R(11,13)                1.0928                                         !
 ! R15   R(11,14)                1.0971                                         !
 ! R16   R(15,16)                0.9815                                         !
 ! R17   R(17,18)                1.0205                                         !
 ! R18   R(17,19)                1.4568                                         !
 ! R19   R(19,20)                1.0927                                         !
 ! R20   R(19,21)                1.5439                                         !
 ! R21   R(19,22)                1.5642                                         !
 ! R22   R(21,25)                1.2354                                         !
 ! R23   R(21,37)                1.3377                                         !
 ! R24   R(22,23)                1.0959                                         !
 ! R25   R(22,24)                1.0956                                         !
 ! R26   R(22,26)                1.5142                                         !
 ! R27   R(26,27)                1.4045                                         !
 ! R28   R(26,29)                1.4008                                         !
 ! R29   R(27,28)                1.0882                                         !
 ! R30   R(27,31)                1.4019                                         !
 ! R31   R(29,30)                1.0869                                         !
 ! R32   R(29,33)                1.396                                          !
 ! R33   R(31,32)                1.0882                                         !
 ! R34   R(31,35)                1.4003                                         !
 ! R35   R(33,34)                1.086                                          !
 ! R36   R(33,35)                1.3964                                         !
 ! R37   R(35,36)                1.0864                                         !
 ! R38   R(37,38)                1.0202                                         !
 ! R39   R(37,39)                1.4588                                         !
 ! R40   R(39,40)                1.0963                                         !
 ! R41   R(39,41)                1.5455                                         !
 ! R42   R(39,42)                1.5378                                         !
 ! R43   R(41,46)                1.2355                                         !
 ! R44   R(41,47)                1.3416                                         !
 ! R45   R(42,43)                1.0946                                         !
 ! R46   R(42,44)                1.0948                                         !
 ! R47   R(42,45)                1.0932                                         !
 ! R48   R(47,48)                1.0177                                         !
 ! R49   R(47,49)                1.4576                                         !
 ! R50   R(49,50)                1.0964                                         !
 ! R51   R(49,51)                1.543                                          !
 ! R52   R(49,52)                1.5488                                         !
 ! R53   R(51,55)                1.2343                                         !
 ! R54   R(51,62)                1.345                                          !
 ! R55   R(52,53)                1.0959                                         !
 ! R56   R(52,54)                1.0932                                         !
 ! R57   R(52,56)                1.5309                                         !
 ! R58   R(56,57)                1.0957                                         !
 ! R59   R(56,58)                1.0995                                         !
 ! R60   R(56,59)                1.5157                                         !
 ! R61   R(59,60)                1.2117                                         !
 ! R62   R(59,61)                1.3531                                         !
 ! R63   R(61,116)               0.9759                                         !
 ! R64   R(62,63)                1.0176                                         !
 ! R65   R(62,64)                1.4562                                         !
 ! R66   R(64,65)                1.0963                                         !
 ! R67   R(64,66)                1.5452                                         !
 ! R68   R(64,67)                1.5381                                         !
 ! R69   R(66,71)                1.2366                                         !
 ! R70   R(66,72)                1.3421                                         !
 ! R71   R(67,68)                1.0949                                         !
 ! R72   R(67,69)                1.095                                          !
 ! R73   R(67,70)                1.0934                                         !
 ! R74   R(72,73)                1.0174                                         !
 ! R75   R(72,74)                1.459                                          !
 ! R76   R(74,75)                1.0943                                         !
 ! R77   R(74,76)                1.5423                                         !
 ! R78   R(74,77)                1.5513                                         !
 ! R79   R(76,80)                1.2362                                         !
 ! R80   R(76,91)                1.344                                          !
 ! R81   R(77,78)                1.0972                                         !
 ! R82   R(77,79)                1.0981                                         !
 ! R83   R(77,81)                1.5426                                         !
 ! R84   R(81,82)                1.0979                                         !
 ! R85   R(81,83)                1.5372                                         !
 ! R86   R(81,87)                1.537                                          !
 ! R87   R(83,84)                1.0976                                         !
 ! R88   R(83,85)                1.0963                                         !
 ! R89   R(83,86)                1.0955                                         !
 ! R90   R(87,88)                1.098                                          !
 ! R91   R(87,89)                1.0959                                         !
 ! R92   R(87,90)                1.0964                                         !
 ! R93   R(91,92)                1.0174                                         !
 ! R94   R(91,93)                1.4568                                         !
 ! R95   R(93,94)                1.0927                                         !
 ! R96   R(93,95)                1.5438                                         !
 ! R97   R(93,96)                1.5575                                         !
 ! R98   R(95,99)                1.2855                                         !
 ! R99   R(95,115)               1.2399                                         !
 ! R100  R(96,97)                1.0986                                         !
 ! R101  R(96,98)                1.0947                                         !
 ! R102  R(96,100)               1.5438                                         !
 ! R103  R(100,101)              1.0979                                         !
 ! R104  R(100,102)              1.0928                                         !
 ! R105  R(100,103)              1.5426                                         !
 ! R106  R(103,104)              1.0905                                         !
 ! R107  R(103,105)              1.097                                          !
 ! R108  R(103,106)              1.4686                                         !
 ! R109  R(106,107)              1.0114                                         !
 ! R110  R(106,114)              1.3492                                         !
 ! R111  R(108,109)              1.0124                                         !
 ! R112  R(108,110)              1.1555                                         !
 ! R113  R(108,114)              1.3145                                         !
 ! R114  R(111,112)              1.011                                          !
 ! R115  R(111,113)              1.0099                                         !
 ! R116  R(111,114)              1.3723                                         !
 ! A1    A(2,1,3)              109.8942                                         !
 ! A2    A(2,1,4)              108.9604                                         !
 ! A3    A(2,1,5)              113.7858                                         !
 ! A4    A(3,1,4)              108.2743                                         !
 ! A5    A(3,1,5)              103.5375                                         !
 ! A6    A(4,1,5)              112.149                                          !
 ! A7    A(1,5,6)              108.3239                                         !
 ! A8    A(1,5,7)              105.0066                                         !
 ! A9    A(1,5,8)              105.5129                                         !
 ! A10   A(6,5,7)              113.5026                                         !
 ! A11   A(6,5,8)              113.089                                          !
 ! A12   A(7,5,8)              110.7262                                         !
 ! A13   A(5,7,10)             118.0782                                         !
 ! A14   A(5,7,17)             116.1833                                         !
 ! A15   A(10,7,17)            125.612                                          !
 ! A16   A(5,8,9)              107.0143                                         !
 ! A17   A(5,8,11)             113.7268                                         !
 ! A18   A(5,8,15)             107.4186                                         !
 ! A19   A(9,8,11)             109.5983                                         !
 ! A20   A(9,8,15)             110.7138                                         !
 ! A21   A(11,8,15)            108.3585                                         !
 ! A22   A(8,11,12)            111.0402                                         !
 ! A23   A(8,11,13)            109.1947                                         !
 ! A24   A(8,11,14)            112.031                                          !
 ! A25   A(12,11,13)           108.5312                                         !
 ! A26   A(12,11,14)           108.7974                                         !
 ! A27   A(13,11,14)           107.1114                                         !
 ! A28   A(8,15,16)            106.3065                                         !
 ! A29   A(7,17,18)            123.2734                                         !
 ! A30   A(7,17,19)            123.5857                                         !
 ! A31   A(18,17,19)           112.7194                                         !
 ! A32   A(17,19,20)           108.4534                                         !
 ! A33   A(17,19,21)           105.3283                                         !
 ! A34   A(17,19,22)           110.9657                                         !
 ! A35   A(20,19,21)           112.2264                                         !
 ! A36   A(20,19,22)           110.3693                                         !
 ! A37   A(21,19,22)           109.4002                                         !
 ! A38   A(19,21,25)           118.9232                                         !
 ! A39   A(19,21,37)           115.7639                                         !
 ! A40   A(25,21,37)           125.2609                                         !
 ! A41   A(19,22,23)           107.8296                                         !
 ! A42   A(19,22,24)           107.8591                                         !
 ! A43   A(19,22,26)           113.8755                                         !
 ! A44   A(23,22,24)           106.9184                                         !
 ! A45   A(23,22,26)           109.3401                                         !
 ! A46   A(24,22,26)           110.7475                                         !
 ! A47   A(22,26,27)           120.1177                                         !
 ! A48   A(22,26,29)           121.5697                                         !
 ! A49   A(27,26,29)           118.2996                                         !
 ! A50   A(26,27,28)           119.3485                                         !
 ! A51   A(26,27,31)           120.9683                                         !
 ! A52   A(28,27,31)           119.6406                                         !
 ! A53   A(26,29,30)           119.5366                                         !
 ! A54   A(26,29,33)           121.0326                                         !
 ! A55   A(30,29,33)           119.4306                                         !
 ! A56   A(27,31,32)           119.8622                                         !
 ! A57   A(27,31,35)           119.9035                                         !
 ! A58   A(32,31,35)           120.1447                                         !
 ! A59   A(29,33,34)           119.6817                                         !
 ! A60   A(29,33,35)           120.3035                                         !
 ! A61   A(34,33,35)           120.0124                                         !
 ! A62   A(31,35,33)           119.4867                                         !
 ! A63   A(31,35,36)           120.2346                                         !
 ! A64   A(33,35,36)           120.2504                                         !
 ! A65   A(21,37,38)           122.6695                                         !
 ! A66   A(21,37,39)           124.2228                                         !
 ! A67   A(38,37,39)           112.5763                                         !
 ! A68   A(37,39,40)           108.5676                                         !
 ! A69   A(37,39,41)           104.8097                                         !
 ! A70   A(37,39,42)           112.2149                                         !
 ! A71   A(40,39,41)           109.811                                          !
 ! A72   A(40,39,42)           109.1862                                         !
 ! A73   A(41,39,42)           112.128                                          !
 ! A74   A(39,41,46)           120.2138                                         !
 ! A75   A(39,41,47)           115.6105                                         !
 ! A76   A(46,41,47)           124.1709                                         !
 ! A77   A(39,42,43)           110.7833                                         !
 ! A78   A(39,42,44)           110.5534                                         !
 ! A79   A(39,42,45)           109.5655                                         !
 ! A80   A(43,42,44)           108.4317                                         !
 ! A81   A(43,42,45)           108.3548                                         !
 ! A82   A(44,42,45)           109.1009                                         !
 ! A83   A(41,47,48)           122.732                                          !
 ! A84   A(41,47,49)           123.8162                                         !
 ! A85   A(48,47,49)           113.4447                                         !
 ! A86   A(47,49,50)           108.652                                          !
 ! A87   A(47,49,51)           104.9132                                         !
 ! A88   A(47,49,52)           110.608                                          !
 ! A89   A(50,49,51)           110.6245                                         !
 ! A90   A(50,49,52)           109.3664                                         !
 ! A91   A(51,49,52)           112.5491                                         !
 ! A92   A(49,51,55)           120.1073                                         !
 ! A93   A(49,51,62)           116.0185                                         !
 ! A94   A(55,51,62)           123.8685                                         !
 ! A95   A(49,52,53)           108.9865                                         !
 ! A96   A(49,52,54)           107.1456                                         !
 ! A97   A(49,52,56)           114.8479                                         !
 ! A98   A(53,52,54)           106.8497                                         !
 ! A99   A(53,52,56)           110.2688                                         !
 ! A100  A(54,52,56)           108.4011                                         !
 ! A101  A(52,56,57)           113.2503                                         !
 ! A102  A(52,56,58)           111.0453                                         !
 ! A103  A(52,56,59)           111.489                                          !
 ! A104  A(57,56,58)           105.6189                                         !
 ! A105  A(57,56,59)           107.9604                                         !
 ! A106  A(58,56,59)           107.1169                                         !
 ! A107  A(56,59,60)           125.8144                                         !
 ! A108  A(56,59,61)           111.3367                                         !
 ! A109  A(60,59,61)           122.8476                                         !
 ! A110  A(59,61,116)          106.3438                                         !
 ! A111  A(51,62,63)           122.1485                                         !
 ! A112  A(51,62,64)           123.4538                                         !
 ! A113  A(63,62,64)           113.1118                                         !
 ! A114  A(62,64,65)           108.3417                                         !
 ! A115  A(62,64,66)           105.4388                                         !
 ! A116  A(62,64,67)           112.0653                                         !
 ! A117  A(65,64,66)           109.5677                                         !
 ! A118  A(65,64,67)           108.8756                                         !
 ! A119  A(66,64,67)           112.4332                                         !
 ! A120  A(64,66,71)           120.4354                                         !
 ! A121  A(64,66,72)           115.5582                                         !
 ! A122  A(71,66,72)           124.0037                                         !
 ! A123  A(64,67,68)           111.1094                                         !
 ! A124  A(64,67,69)           110.6065                                         !
 ! A125  A(64,67,70)           109.2987                                         !
 ! A126  A(68,67,69)           108.4274                                         !
 ! A127  A(68,67,70)           108.373                                          !
 ! A128  A(69,67,70)           108.9697                                         !
 ! A129  A(66,72,73)           122.5979                                         !
 ! A130  A(66,72,74)           124.0775                                         !
 ! A131  A(73,72,74)           113.2841                                         !
 ! A132  A(72,74,75)           108.287                                          !
 ! A133  A(72,74,76)           104.9026                                         !
 ! A134  A(72,74,77)           110.6026                                         !
 ! A135  A(75,74,76)           110.7109                                         !
 ! A136  A(75,74,77)           109.7813                                         !
 ! A137  A(76,74,77)           112.3942                                         !
 ! A138  A(74,76,80)           120.0166                                         !
 ! A139  A(74,76,91)           116.1047                                         !
 ! A140  A(80,76,91)           123.8732                                         !
 ! A141  A(74,77,78)           106.3799                                         !
 ! A142  A(74,77,79)           107.5319                                         !
 ! A143  A(74,77,81)           117.2079                                         !
 ! A144  A(78,77,79)           107.0541                                         !
 ! A145  A(78,77,81)           108.5482                                         !
 ! A146  A(79,77,81)           109.651                                          !
 ! A147  A(77,81,82)           109.0007                                         !
 ! A148  A(77,81,83)           112.4868                                         !
 ! A149  A(77,81,87)           109.33                                           !
 ! A150  A(82,81,83)           108.1263                                         !
 ! A151  A(82,81,87)           107.3872                                         !
 ! A152  A(83,81,87)           110.3636                                         !
 ! A153  A(81,83,84)           110.8973                                         !
 ! A154  A(81,83,85)           112.714                                          !
 ! A155  A(81,83,86)           110.5833                                         !
 ! A156  A(84,83,85)           107.4399                                         !
 ! A157  A(84,83,86)           108.034                                          !
 ! A158  A(85,83,86)           106.9605                                         !
 ! A159  A(81,87,88)           111.0046                                         !
 ! A160  A(81,87,89)           110.9184                                         !
 ! A161  A(81,87,90)           111.4253                                         !
 ! A162  A(88,87,89)           107.7132                                         !
 ! A163  A(88,87,90)           107.7858                                         !
 ! A164  A(89,87,90)           107.8323                                         !
 ! A165  A(76,91,92)           122.3328                                         !
 ! A166  A(76,91,93)           124.3726                                         !
 ! A167  A(92,91,93)           112.6803                                         !
 ! A168  A(91,93,94)           109.2412                                         !
 ! A169  A(91,93,95)           107.4167                                         !
 ! A170  A(91,93,96)           110.8644                                         !
 ! A171  A(94,93,95)           109.4822                                         !
 ! A172  A(94,93,96)           108.8968                                         !
 ! A173  A(95,93,96)           110.9107                                         !
 ! A174  A(93,95,99)           113.5692                                         !
 ! A175  A(93,95,115)          118.5003                                         !
 ! A176  A(99,95,115)          127.7261                                         !
 ! A177  A(93,96,97)           107.8831                                         !
 ! A178  A(93,96,98)           107.2951                                         !
 ! A179  A(93,96,100)          114.8806                                         !
 ! A180  A(97,96,98)           106.4565                                         !
 ! A181  A(97,96,100)          109.6579                                         !
 ! A182  A(98,96,100)          110.2988                                         !
 ! A183  A(96,100,101)         109.6891                                         !
 ! A184  A(96,100,102)         109.732                                          !
 ! A185  A(96,100,103)         111.541                                          !
 ! A186  A(101,100,102)        107.7816                                         !
 ! A187  A(101,100,103)        108.8801                                         !
 ! A188  A(102,100,103)        109.1343                                         !
 ! A189  A(100,103,104)        111.7083                                         !
 ! A190  A(100,103,105)        109.6944                                         !
 ! A191  A(100,103,106)        114.5136                                         !
 ! A192  A(104,103,105)        106.4461                                         !
 ! A193  A(104,103,106)        107.1426                                         !
 ! A194  A(105,103,106)        106.9179                                         !
 ! A195  A(103,106,107)        117.272                                          !
 ! A196  A(103,106,114)        126.1843                                         !
 ! A197  A(107,106,114)        115.8516                                         !
 ! A198  A(109,108,110)        117.8597                                         !
 ! A199  A(109,108,114)        116.8591                                         !
 ! A200  A(110,108,114)        123.0176                                         !
 ! A201  A(112,111,113)        115.0183                                         !
 ! A202  A(112,111,114)        118.3197                                         !
 ! A203  A(113,111,114)        117.9227                                         !
 ! A204  A(106,114,108)        122.4906                                         !
 ! A205  A(106,114,111)        115.5564                                         !
 ! A206  A(108,114,111)        121.9507                                         !
 ! D1    D(2,1,5,6)             84.7429                                         !
 ! D2    D(2,1,5,7)            -36.8383                                         !
 ! D3    D(2,1,5,8)           -153.8812                                         !
 ! D4    D(3,1,5,6)           -156.0073                                         !
 ! D5    D(3,1,5,7)             82.4116                                         !
 ! D6    D(3,1,5,8)            -34.6313                                         !
 ! D7    D(4,1,5,6)            -39.5051                                         !
 ! D8    D(4,1,5,7)           -161.0862                                         !
 ! D9    D(4,1,5,8)             81.8708                                         !
 ! D10   D(1,5,7,10)           -65.666                                          !
 ! D11   D(1,5,7,17)           110.4768                                         !
 ! D12   D(6,5,7,10)           176.2016                                         !
 ! D13   D(6,5,7,17)            -7.6556                                         !
 ! D14   D(8,5,7,10)            47.7557                                         !
 ! D15   D(8,5,7,17)          -136.1015                                         !
 ! D16   D(1,5,8,9)            162.8682                                         !
 ! D17   D(1,5,8,11)           -75.9563                                         !
 ! D18   D(1,5,8,15)            43.9427                                         !
 ! D19   D(6,5,8,9)            -78.9015                                         !
 ! D20   D(6,5,8,11)            42.274                                          !
 ! D21   D(6,5,8,15)           162.173                                          !
 ! D22   D(7,5,8,9)             49.7679                                         !
 ! D23   D(7,5,8,11)           170.9434                                         !
 ! D24   D(7,5,8,15)           -69.1576                                         !
 ! D25   D(5,7,17,18)           16.2696                                         !
 ! D26   D(5,7,17,19)         -171.7293                                         !
 ! D27   D(10,7,17,18)        -167.9171                                         !
 ! D28   D(10,7,17,19)           4.084                                          !
 ! D29   D(5,8,11,12)          -61.2451                                         !
 ! D30   D(5,8,11,13)          179.1191                                         !
 ! D31   D(5,8,11,14)           60.6316                                         !
 ! D32   D(9,8,11,12)           58.4759                                         !
 ! D33   D(9,8,11,13)          -61.1599                                         !
 ! D34   D(9,8,11,14)         -179.6474                                         !
 ! D35   D(15,8,11,12)         179.3892                                         !
 ! D36   D(15,8,11,13)          59.7534                                         !
 ! D37   D(15,8,11,14)         -58.7341                                         !
 ! D38   D(5,8,15,16)           64.6403                                         !
 ! D39   D(9,8,15,16)          -51.8794                                         !
 ! D40   D(11,8,15,16)        -172.0995                                         !
 ! D41   D(7,17,19,20)         -27.5974                                         !
 ! D42   D(7,17,19,21)        -147.9252                                         !
 ! D43   D(7,17,19,22)          93.7895                                         !
 ! D44   D(18,17,19,20)        145.1567                                         !
 ! D45   D(18,17,19,21)         24.8289                                         !
 ! D46   D(18,17,19,22)        -93.4564                                         !
 ! D47   D(17,19,21,25)        -22.1967                                         !
 ! D48   D(17,19,21,37)        160.2862                                         !
 ! D49   D(20,19,21,25)       -140.0078                                         !
 ! D50   D(20,19,21,37)         42.4751                                         !
 ! D51   D(22,19,21,25)         97.1351                                         !
 ! D52   D(22,19,21,37)        -80.382                                          !
 ! D53   D(17,19,22,23)         75.9618                                         !
 ! D54   D(17,19,22,24)       -168.9002                                         !
 ! D55   D(17,19,22,26)        -45.5586                                         !
 ! D56   D(20,19,22,23)       -163.783                                          !
 ! D57   D(20,19,22,24)        -48.645                                          !
 ! D58   D(20,19,22,26)         74.6966                                         !
 ! D59   D(21,19,22,23)        -39.828                                          !
 ! D60   D(21,19,22,24)         75.3099                                         !
 ! D61   D(21,19,22,26)       -161.3485                                         !
 ! D62   D(19,21,37,38)          0.9461                                         !
 ! D63   D(19,21,37,39)        171.9572                                         !
 ! D64   D(25,21,37,38)       -176.3922                                         !
 ! D65   D(25,21,37,39)         -5.3811                                         !
 ! D66   D(19,22,26,27)         96.8461                                         !
 ! D67   D(19,22,26,29)        -81.8249                                         !
 ! D68   D(23,22,26,27)        -23.8323                                         !
 ! D69   D(23,22,26,29)        157.4967                                         !
 ! D70   D(24,22,26,27)       -141.3976                                         !
 ! D71   D(24,22,26,29)         39.9314                                         !
 ! D72   D(22,26,27,28)          4.2222                                         !
 ! D73   D(22,26,27,31)       -178.1612                                         !
 ! D74   D(29,26,27,28)       -177.0638                                         !
 ! D75   D(29,26,27,31)          0.5527                                         !
 ! D76   D(22,26,29,30)         -1.8325                                         !
 ! D77   D(22,26,29,33)        177.9853                                         !
 ! D78   D(27,26,29,30)        179.4732                                         !
 ! D79   D(27,26,29,33)         -0.709                                          !
 ! D80   D(26,27,31,32)       -176.44                                           !
 ! D81   D(26,27,31,35)          0.1217                                         !
 ! D82   D(28,27,31,32)          1.1697                                         !
 ! D83   D(28,27,31,35)        177.7314                                         !
 ! D84   D(26,29,33,34)        179.6216                                         !
 ! D85   D(26,29,33,35)          0.1896                                         !
 ! D86   D(30,29,33,34)         -0.5604                                         !
 ! D87   D(30,29,33,35)       -179.9924                                         !
 ! D88   D(27,31,35,33)         -0.651                                          !
 ! D89   D(27,31,35,36)       -178.7211                                         !
 ! D90   D(32,31,35,33)        175.9009                                         !
 ! D91   D(32,31,35,36)         -2.1691                                         !
 ! D92   D(29,33,35,31)          0.4994                                         !
 ! D93   D(29,33,35,36)        178.5691                                         !
 ! D94   D(34,33,35,31)       -178.9307                                         !
 ! D95   D(34,33,35,36)         -0.861                                          !
 ! D96   D(21,37,39,40)        -41.9059                                         !
 ! D97   D(21,37,39,41)       -159.2043                                         !
 ! D98   D(21,37,39,42)         78.8689                                         !
 ! D99   D(38,37,39,40)        129.905                                          !
 ! D100  D(38,37,39,41)         12.6066                                         !
 ! D101  D(38,37,39,42)       -109.3203                                         !
 ! D102  D(37,39,41,46)        -12.8815                                         !
 ! D103  D(37,39,41,47)        167.8806                                         !
 ! D104  D(40,39,41,46)       -129.3259                                         !
 ! D105  D(40,39,41,47)         51.4362                                         !
 ! D106  D(42,39,41,46)        109.1021                                         !
 ! D107  D(42,39,41,47)        -70.1358                                         !
 ! D108  D(37,39,42,43)       -179.3071                                         !
 ! D109  D(37,39,42,44)         60.4628                                         !
 ! D110  D(37,39,42,45)        -59.8122                                         !
 ! D111  D(40,39,42,43)        -58.89                                           !
 ! D112  D(40,39,42,44)       -179.1201                                         !
 ! D113  D(40,39,42,45)         60.6048                                         !
 ! D114  D(41,39,42,43)         63.0395                                         !
 ! D115  D(41,39,42,44)        -57.1906                                         !
 ! D116  D(41,39,42,45)       -177.4657                                         !
 ! D117  D(39,41,47,48)         -0.4961                                         !
 ! D118  D(39,41,47,49)        178.4722                                         !
 ! D119  D(46,41,47,48)       -179.7001                                         !
 ! D120  D(46,41,47,49)         -0.7318                                         !
 ! D121  D(41,47,49,50)        -43.2578                                         !
 ! D122  D(41,47,49,51)       -161.5927                                         !
 ! D123  D(41,47,49,52)         76.7982                                         !
 ! D124  D(48,47,49,50)        135.7963                                         !
 ! D125  D(48,47,49,51)         17.4614                                         !
 ! D126  D(48,47,49,52)       -104.1477                                         !
 ! D127  D(47,49,51,55)        -21.8323                                         !
 ! D128  D(47,49,51,62)        159.002                                          !
 ! D129  D(50,49,51,55)       -138.8244                                         !
 ! D130  D(50,49,51,62)         42.0099                                         !
 ! D131  D(52,49,51,55)         98.4974                                         !
 ! D132  D(52,49,51,62)        -80.6682                                         !
 ! D133  D(47,49,52,53)         67.3408                                         !
 ! D134  D(47,49,52,54)        -47.9329                                         !
 ! D135  D(47,49,52,56)       -168.3914                                         !
 ! D136  D(50,49,52,53)       -173.0321                                         !
 ! D137  D(50,49,52,54)         71.6941                                         !
 ! D138  D(50,49,52,56)        -48.7644                                         !
 ! D139  D(51,49,52,53)        -49.6499                                         !
 ! D140  D(51,49,52,54)       -164.9236                                         !
 ! D141  D(51,49,52,56)         74.6178                                         !
 ! D142  D(49,51,62,63)          4.608                                          !
 ! D143  D(49,51,62,64)        170.757                                          !
 ! D144  D(55,51,62,63)       -174.5227                                         !
 ! D145  D(55,51,62,64)         -8.3737                                         !
 ! D146  D(49,52,56,57)        -64.8749                                         !
 ! D147  D(49,52,56,58)         53.7642                                         !
 ! D148  D(49,52,56,59)        173.1309                                         !
 ! D149  D(53,52,56,57)         58.7129                                         !
 ! D150  D(53,52,56,58)        177.3521                                         !
 ! D151  D(53,52,56,59)        -63.2812                                         !
 ! D152  D(54,52,56,57)        175.3605                                         !
 ! D153  D(54,52,56,58)        -66.0004                                         !
 ! D154  D(54,52,56,59)         53.3663                                         !
 ! D155  D(52,56,59,60)         -5.2667                                         !
 ! D156  D(52,56,59,61)        175.1394                                         !
 ! D157  D(57,56,59,60)       -130.2675                                         !
 ! D158  D(57,56,59,61)         50.1386                                         !
 ! D159  D(58,56,59,60)        116.4057                                         !
 ! D160  D(58,56,59,61)        -63.1882                                         !
 ! D161  D(56,59,61,116)       179.5021                                         !
 ! D162  D(60,59,61,116)        -0.1059                                         !
 ! D163  D(51,62,64,65)        -35.5169                                         !
 ! D164  D(51,62,64,66)       -152.7502                                         !
 ! D165  D(51,62,64,67)         84.6256                                         !
 ! D166  D(63,62,64,65)        131.7518                                         !
 ! D167  D(63,62,64,66)         14.5186                                         !
 ! D168  D(63,62,64,67)       -108.1057                                         !
 ! D169  D(62,64,66,71)         -9.4171                                         !
 ! D170  D(62,64,66,72)        171.1584                                         !
 ! D171  D(65,64,66,71)       -125.8174                                         !
 ! D172  D(65,64,66,72)         54.7581                                         !
 ! D173  D(67,64,66,71)        112.971                                          !
 ! D174  D(67,64,66,72)        -66.4535                                         !
 ! D175  D(62,64,67,68)       -178.8503                                         !
 ! D176  D(62,64,67,69)         60.6747                                         !
 ! D177  D(62,64,67,70)        -59.3007                                         !
 ! D178  D(65,64,67,68)        -59.0194                                         !
 ! D179  D(65,64,67,69)       -179.4943                                         !
 ! D180  D(65,64,67,70)         60.5302                                         !
 ! D181  D(66,64,67,68)         62.5873                                         !
 ! D182  D(66,64,67,69)        -57.8876                                         !
 ! D183  D(66,64,67,70)       -177.863                                          !
 ! D184  D(64,66,72,73)          0.2565                                         !
 ! D185  D(64,66,72,74)        177.7828                                         !
 ! D186  D(71,66,72,73)       -179.145                                          !
 ! D187  D(71,66,72,74)         -1.6186                                         !
 ! D188  D(66,72,74,75)        -40.8245                                         !
 ! D189  D(66,72,74,76)       -159.078                                          !
 ! D190  D(66,72,74,77)         79.508                                          !
 ! D191  D(73,72,74,75)        136.9069                                         !
 ! D192  D(73,72,74,76)         18.6533                                         !
 ! D193  D(73,72,74,77)       -102.7606                                         !
 ! D194  D(72,74,76,80)        -23.1151                                         !
 ! D195  D(72,74,76,91)        157.7037                                         !
 ! D196  D(75,74,76,80)       -139.7146                                         !
 ! D197  D(75,74,76,91)         41.1042                                         !
 ! D198  D(77,74,76,80)         97.1161                                         !
 ! D199  D(77,74,76,91)        -82.0651                                         !
 ! D200  D(72,74,77,78)        -49.7073                                         !
 ! D201  D(72,74,77,79)         64.7131                                         !
 ! D202  D(72,74,77,81)       -171.303                                          !
 ! D203  D(75,74,77,78)         69.728                                          !
 ! D204  D(75,74,77,79)       -175.8516                                         !
 ! D205  D(75,74,77,81)        -51.8676                                         !
 ! D206  D(76,74,77,78)       -166.5833                                         !
 ! D207  D(76,74,77,79)        -52.1628                                         !
 ! D208  D(76,74,77,81)         71.8211                                         !
 ! D209  D(74,76,91,92)          1.2019                                         !
 ! D210  D(74,76,91,93)        171.5509                                         !
 ! D211  D(80,76,91,92)       -177.9442                                         !
 ! D212  D(80,76,91,93)         -7.5952                                         !
 ! D213  D(74,77,81,82)        -57.5249                                         !
 ! D214  D(74,77,81,83)         62.3861                                         !
 ! D215  D(74,77,81,87)       -174.6361                                         !
 ! D216  D(78,77,81,82)       -177.9865                                         !
 ! D217  D(78,77,81,83)        -58.0754                                         !
 ! D218  D(78,77,81,87)         64.9024                                         !
 ! D219  D(79,77,81,82)         65.3797                                         !
 ! D220  D(79,77,81,83)       -174.7092                                         !
 ! D221  D(79,77,81,87)        -51.7314                                         !
 ! D222  D(77,81,83,84)         57.9392                                         !
 ! D223  D(77,81,83,85)        -62.5652                                         !
 ! D224  D(77,81,83,86)        177.7648                                         !
 ! D225  D(82,81,83,84)        178.3556                                         !
 ! D226  D(82,81,83,85)         57.8512                                         !
 ! D227  D(82,81,83,86)        -61.8188                                         !
 ! D228  D(87,81,83,84)        -64.4572                                         !
 ! D229  D(87,81,83,85)        175.0385                                         !
 ! D230  D(87,81,83,86)         55.3685                                         !
 ! D231  D(77,81,87,88)        -62.068                                          !
 ! D232  D(77,81,87,89)        178.2184                                         !
 ! D233  D(77,81,87,90)         58.0749                                         !
 ! D234  D(82,81,87,88)        179.8072                                         !
 ! D235  D(82,81,87,89)         60.0936                                         !
 ! D236  D(82,81,87,90)        -60.0499                                         !
 ! D237  D(83,81,87,88)         62.1636                                         !
 ! D238  D(83,81,87,89)        -57.55                                           !
 ! D239  D(83,81,87,90)       -177.6935                                         !
 ! D240  D(76,91,93,94)        -34.1835                                         !
 ! D241  D(76,91,93,95)       -152.8503                                         !
 ! D242  D(76,91,93,96)         85.8255                                         !
 ! D243  D(92,91,93,94)        136.9852                                         !
 ! D244  D(92,91,93,95)         18.3184                                         !
 ! D245  D(92,91,93,96)       -103.0057                                         !
 ! D246  D(91,93,95,99)        158.8654                                         !
 ! D247  D(91,93,95,115)       -25.9293                                         !
 ! D248  D(94,93,95,99)         40.3539                                         !
 ! D249  D(94,93,95,115)      -144.4408                                         !
 ! D250  D(96,93,95,99)        -79.8395                                         !
 ! D251  D(96,93,95,115)        95.3658                                         !
 ! D252  D(91,93,96,97)         40.3098                                         !
 ! D253  D(91,93,96,98)        -74.0355                                         !
 ! D254  D(91,93,96,100)       162.9451                                         !
 ! D255  D(94,93,96,97)        160.5241                                         !
 ! D256  D(94,93,96,98)         46.1789                                         !
 ! D257  D(94,93,96,100)       -76.8406                                         !
 ! D258  D(95,93,96,97)        -78.9347                                         !
 ! D259  D(95,93,96,98)        166.72                                           !
 ! D260  D(95,93,96,100)        43.7006                                         !
 ! D261  D(93,96,100,101)      152.2058                                         !
 ! D262  D(93,96,100,102)       33.9808                                         !
 ! D263  D(93,96,100,103)      -87.081                                          !
 ! D264  D(97,96,100,101)      -86.1185                                         !
 ! D265  D(97,96,100,102)      155.6566                                         !
 ! D266  D(97,96,100,103)       34.5947                                         !
 ! D267  D(98,96,100,101)       30.8096                                         !
 ! D268  D(98,96,100,102)      -87.4154                                         !
 ! D269  D(98,96,100,103)      151.5227                                         !
 ! D270  D(96,100,103,104)      40.0163                                         !
 ! D271  D(96,100,103,105)     -77.7691                                         !
 ! D272  D(96,100,103,106)     162.037                                          !
 ! D273  D(101,100,103,104)    161.2015                                         !
 ! D274  D(101,100,103,105)     43.4161                                         !
 ! D275  D(101,100,103,106)    -76.7778                                         !
 ! D276  D(102,100,103,104)    -81.3933                                         !
 ! D277  D(102,100,103,105)    160.8213                                         !
 ! D278  D(102,100,103,106)     40.6274                                         !
 ! D279  D(100,103,106,107)     66.536                                          !
 ! D280  D(100,103,106,114)   -103.4918                                         !
 ! D281  D(104,103,106,107)   -168.9864                                         !
 ! D282  D(104,103,106,114)     20.9858                                         !
 ! D283  D(105,103,106,107)    -55.1893                                         !
 ! D284  D(105,103,106,114)    134.7829                                         !
 ! D285  D(103,106,114,108)     10.2447                                         !
 ! D286  D(103,106,114,111)   -170.3013                                         !
 ! D287  D(107,106,114,108)   -159.9072                                         !
 ! D288  D(107,106,114,111)     19.5468                                         !
 ! D289  D(109,108,114,106)   -168.9903                                         !
 ! D290  D(109,108,114,111)     11.5902                                         !
 ! D291  D(110,108,114,106)     28.4923                                         !
 ! D292  D(110,108,114,111)   -150.9272                                         !
 ! D293  D(112,111,114,106)     35.9418                                         !
 ! D294  D(112,111,114,108)   -144.6009                                         !
 ! D295  D(113,111,114,106)   -178.031                                          !
 ! D296  D(113,111,114,108)      1.4262                                         !
 --------------------------------------------------------------------------------
 Symmetry turned off by external request.
 Stoichiometry    C36H59N10O11(1+)
 Framework group  C1[X(C36H59N10O11)]
 Deg. of freedom   342
 Full point group                 C1      NOp   1
                          Input orientation:                          
 ---------------------------------------------------------------------
 Center     Atomic      Atomic             Coordinates (Angstroms)
 Number     Number       Type             X           Y           Z
 ---------------------------------------------------------------------
      1          7           0       -8.877822   -4.874457   -5.902159
      2          1           0       -8.839500   -4.858345   -4.864097
      3          1           0       -9.605119   -4.208319   -6.240770
      4          1           0       -9.136087   -5.816163   -6.211042
      5          6           0       -7.602646   -4.380340   -6.571472
      6          1           0       -6.902699   -5.216097   -6.635934
      7          6           0       -7.104503   -3.230406   -5.679512
      8          6           0       -8.044791   -3.844529   -7.966390
      9          1           0       -7.229894   -3.211481   -8.340299
     10          8           0       -7.798373   -2.210396   -5.603792
     11          6           0       -8.343774   -4.942918   -8.978130
     12          1           0       -7.455882   -5.554283   -9.168397
     13          1           0       -8.660229   -4.487588   -9.919769
     14          1           0       -9.159145   -5.597483   -8.646021
     15          8           0       -9.229931   -3.078163   -7.772763
     16          1           0       -8.973217   -2.308433   -7.220572
     17          7           0       -5.984332   -3.463318   -4.987268
     18          1           0       -5.343560   -4.228579   -5.200039
     19          6           0       -5.465474   -2.562237   -3.966966
     20          1           0       -5.793831   -1.547017   -4.202727
     21          6           0       -3.930118   -2.709958   -4.034560
     22          6           0       -5.965513   -2.979742   -2.544840
     23          1           0       -5.388144   -3.856489   -2.230133
     24          1           0       -5.718354   -2.169161   -1.850394
     25          8           0       -3.449722   -3.737086   -4.524809
     26          6           0       -7.443195   -3.304816   -2.485752
     27          6           0       -7.875296   -4.638529   -2.569834
     28          1           0       -7.136933   -5.437003   -2.607805
     29          6           0       -8.411571   -2.298726   -2.375087
     30          1           0       -8.099267   -1.260334   -2.300017
     31          6           0       -9.240545   -4.956773   -2.555471
     32          1           0       -9.554103   -5.998754   -2.563047
     33          6           0       -9.772791   -2.608191   -2.363431
     34          1           0      -10.504692   -1.811248   -2.270485
     35          6           0      -10.194338   -3.936058   -2.458672
     36          1           0      -11.252984   -4.177872   -2.426181
     37          7           0       -3.225340   -1.708380   -3.496320
     38          1           0       -3.665148   -0.901195   -3.053727
     39          6           0       -1.779059   -1.731884   -3.307240
     40          1           0       -1.491099   -2.723862   -2.939912
     41          6           0       -1.505776   -0.670267   -2.217828
     42          6           0       -1.017488   -1.434589   -4.609770
     43          1           0        0.063901   -1.470186   -4.444181
     44          1           0       -1.277134   -0.440783   -4.988541
     45          1           0       -1.275155   -2.183261   -5.363532
     46          8           0       -2.389811    0.129614   -1.893495
     47          7           0       -0.271908   -0.684037   -1.691240
     48          1           0        0.441445   -1.350777   -1.978168
     49          6           0        0.187767    0.256506   -0.676959
     50          1           0       -0.156164    1.261350   -0.948980
     51          6           0        1.727784    0.176288   -0.729834
     52          6           0       -0.379240   -0.121417    0.713867
     53          1           0        0.066241   -1.069865    1.034802
     54          1           0       -1.450135   -0.301078    0.587349
     55          8           0        2.279929   -0.821293   -1.202453
     56          6           0       -0.192716    0.945187    1.796091
     57          1           0        0.858298    1.129540    2.045116
     58          1           0       -0.593679    1.914922    1.467970
     59          6           0       -0.917373    0.572177    3.074069
     60          8           0       -1.642428   -0.387000    3.223925
     61          8           0       -0.664555    1.462426    4.061186
     62          7           0        2.391255    1.230859   -0.223179
     63          1           0        1.911924    2.003523    0.233703
     64          6           0        3.831918    1.246624   -0.011509
     65          1           0        4.146485    0.242340    0.295758
     66          6           0        4.066377    2.239966    1.148630
     67          6           0        4.598835    1.640319   -1.285370
     68          1           0        5.680206    1.627505   -1.114427
     69          1           0        4.312053    2.645080   -1.612832
     70          1           0        4.367291    0.927464   -2.081395
     71          8           0        3.141402    2.948030    1.563626
     72          7           0        5.315508    2.274073    1.638157
     73          1           0        6.063925    1.690389    1.271742
     74          6           0        5.753158    3.173986    2.699849
     75          1           0        5.301505    4.155497    2.525949
     76          6           0        7.286755    3.245375    2.552236
     77          6           0        5.317463    2.633957    4.087336
     78          1           0        4.249968    2.394013    4.004699
     79          1           0        5.848214    1.687462    4.255458
     80          8           0        7.896898    2.330620    1.987297
     81          6           0        5.518758    3.564318    5.301255
     82          1           0        6.579697    3.838331    5.369559
     83          6           0        4.696550    4.858640    5.192759
     84          1           0        3.626609    4.635518    5.092387
     85          1           0        4.986148    5.473249    4.332354
     86          1           0        4.831647    5.476867    6.087055
     87          6           0        5.156265    2.806749    6.588480
     88          1           0        4.100331    2.505871    6.583962
     89          1           0        5.320233    3.434781    7.471450
     90          1           0        5.762271    1.900376    6.703912
     91          7           0        7.881975    4.328184    3.080921
     92          1           0        7.359692    5.052913    3.567936
     93          6           0        9.323841    4.497299    3.202021
     94          1           0        9.785136    3.526232    3.397632
     95          6           0        9.579780    5.439196    4.398108
     96          6           0        9.925214    5.086638    1.891765
     97          1           0        9.234877    5.856153    1.520036
     98          1           0        9.927539    4.285607    1.145698
     99          8           0       10.765292    5.340881    4.885281
    100          6           0       11.340427    5.685780    2.038712
    101          1           0       11.872562    5.616887    1.080872
    102          1           0       11.907980    5.114669    2.777637
    103          6           0       11.286986    7.164507    2.474829
    104          1           0       10.510620    7.337197    3.220925
    105          1           0       11.035491    7.795217    1.613189
    106          7           0       12.544099    7.681682    3.030566
    107          1           0       13.332706    7.756482    2.401728
    108          7           0       12.019840    7.466630    5.296060
    109          1           0       12.204758    7.813894    6.228874
    110          1           0       11.349165    6.531559    5.191079
    111          7           0       13.972801    8.572445    4.601004
    112          1           0       14.252422    9.308893    3.967255
    113          1           0       14.222847    8.723138    5.567808
    114          6           0       12.810811    7.892158    4.336310
    115          8           0        8.692722    6.244538    4.717356
    116          1           0       -1.168648    1.159457    4.839971
 ---------------------------------------------------------------------
 Rotational constants (GHZ):           0.1257203           0.0081654           0.0078184
 Standard basis: 6-31G(d) (6D, 7F)
   973 basis functions,  1832 primitive gaussians,   973 cartesian basis functions
   216 alpha electrons      216 beta electrons
       nuclear repulsion energy      7469.7570202522 Hartrees.
 NAtoms=  116 NActive=  116 NUniq=  116 SFac= 1.00D+00 NAtFMM=   60 NAOKFM=T Big=T
 Integral buffers will be    131072 words long.
 Raffenetti 2 integral format.
 Two-electron integral symmetry is turned off.
 One-electron integrals computed using PRISM.
 NBasis=   973 RedAO= T EigKep=  4.73D-04  NBF=   973
 NBsUse=   973 1.00D-06 EigRej= -1.00D+00 NBFU=   973
 Initial guess from the checkpoint file:  "conf-234.chk"
 B after Tr=     0.000000    0.000000    0.000000
         Rot=    1.000000    0.000000    0.000000    0.000000 Ang=   0.00 deg.
 Requested convergence on RMS density matrix=1.00D-08 within 128 cycles.
 Requested convergence on MAX density matrix=1.00D-06.
 Requested convergence on             energy=1.00D-06.
 No special actions if energy rises.
 SCF Done:  E(RB3LYP) =  -2782.29491103     A.U. after    2 cycles
            NFock=  2  Conv=0.47D-08     -V/T= 2.0093
 Hyperfine terms turned off by default for NAtoms > 100.

 **********************************************************************

            Population analysis using the SCF Density.

 **********************************************************************

 Alpha  occ. eigenvalues --  -19.28053 -19.25209 -19.23747 -19.21037 -19.18830
 Alpha  occ. eigenvalues --  -19.18289 -19.17289 -19.16196 -19.14584 -19.12771
 Alpha  occ. eigenvalues --  -19.11957 -14.59556 -14.48880 -14.44578 -14.44023
 Alpha  occ. eigenvalues --  -14.43728 -14.42438 -14.41055 -14.40095 -14.39814
 Alpha  occ. eigenvalues --  -14.38345 -10.42734 -10.39943 -10.39062 -10.38376
 Alpha  occ. eigenvalues --  -10.38230 -10.36527 -10.35872 -10.34393 -10.34361
 Alpha  occ. eigenvalues --  -10.33212 -10.31685 -10.31218 -10.30347 -10.30332
 Alpha  occ. eigenvalues --  -10.30055 -10.29961 -10.29929 -10.29924 -10.29581
 Alpha  occ. eigenvalues --  -10.29511 -10.29207 -10.29152 -10.28313 -10.27475
 Alpha  occ. eigenvalues --  -10.26695 -10.25305 -10.25046 -10.24554 -10.24476
 Alpha  occ. eigenvalues --  -10.22805 -10.22490 -10.22021 -10.21623 -10.21528
 Alpha  occ. eigenvalues --  -10.19854 -10.19842  -1.18350  -1.15498  -1.14724
 Alpha  occ. eigenvalues --   -1.13025  -1.12918  -1.10726  -1.09214  -1.07914
 Alpha  occ. eigenvalues --   -1.07602  -1.06441  -1.05738  -1.05611  -1.05267
 Alpha  occ. eigenvalues --   -1.01192  -0.99085  -0.97686  -0.97519  -0.97460
 Alpha  occ. eigenvalues --   -0.96386  -0.96156  -0.94721  -0.94564  -0.92242
 Alpha  occ. eigenvalues --   -0.89581  -0.86544  -0.85896  -0.84947  -0.84644
 Alpha  occ. eigenvalues --   -0.84171  -0.83180  -0.82607  -0.81950  -0.78869
 Alpha  occ. eigenvalues --   -0.78108  -0.76982  -0.76389  -0.74491  -0.73374
 Alpha  occ. eigenvalues --   -0.73123  -0.72315  -0.71722  -0.71406  -0.71209
 Alpha  occ. eigenvalues --   -0.70757  -0.70682  -0.70055  -0.68740  -0.68687
 Alpha  occ. eigenvalues --   -0.68269  -0.66870  -0.66435  -0.65145  -0.64956
 Alpha  occ. eigenvalues --   -0.64687  -0.63937  -0.63175  -0.62983  -0.62089
 Alpha  occ. eigenvalues --   -0.61988  -0.61835  -0.61442  -0.61065  -0.60692
 Alpha  occ. eigenvalues --   -0.59528  -0.59058  -0.58566  -0.58142  -0.57553
 Alpha  occ. eigenvalues --   -0.56626  -0.56523  -0.56019  -0.55657  -0.55637
 Alpha  occ. eigenvalues --   -0.55230  -0.54577  -0.54284  -0.54027  -0.53697
 Alpha  occ. eigenvalues --   -0.52828  -0.52395  -0.52330  -0.52310  -0.52116
 Alpha  occ. eigenvalues --   -0.51910  -0.51603  -0.51447  -0.51191  -0.51112
 Alpha  occ. eigenvalues --   -0.50878  -0.50371  -0.50096  -0.49690  -0.49479
 Alpha  occ. eigenvalues --   -0.49264  -0.49156  -0.48868  -0.48520  -0.48166
 Alpha  occ. eigenvalues --   -0.47899  -0.47810  -0.47457  -0.47118  -0.46996
 Alpha  occ. eigenvalues --   -0.46785  -0.46411  -0.46242  -0.45782  -0.45403
 Alpha  occ. eigenvalues --   -0.45246  -0.45146  -0.44792  -0.44434  -0.44273
 Alpha  occ. eigenvalues --   -0.44168  -0.43941  -0.43735  -0.43526  -0.43048
 Alpha  occ. eigenvalues --   -0.42942  -0.42515  -0.42061  -0.42031  -0.41874
 Alpha  occ. eigenvalues --   -0.41600  -0.41327  -0.41098  -0.40666  -0.40229
 Alpha  occ. eigenvalues --   -0.39946  -0.39895  -0.39775  -0.39182  -0.39079
 Alpha  occ. eigenvalues --   -0.38723  -0.38430  -0.37781  -0.36562  -0.36071
 Alpha  occ. eigenvalues --   -0.35879  -0.35738  -0.35613  -0.35258  -0.35048
 Alpha  occ. eigenvalues --   -0.34646  -0.34618  -0.34416  -0.33083  -0.32325
 Alpha  occ. eigenvalues --   -0.31930  -0.31797  -0.31371  -0.30811  -0.30263
 Alpha  occ. eigenvalues --   -0.29538  -0.29091  -0.28562  -0.28079  -0.26664
 Alpha  occ. eigenvalues --   -0.25886
 Alpha virt. eigenvalues --   -0.13124  -0.11624  -0.10936  -0.08687  -0.06702
 Alpha virt. eigenvalues --   -0.04597  -0.04221  -0.04181  -0.03227  -0.03193
 Alpha virt. eigenvalues --   -0.03056  -0.01888  -0.01686  -0.01207  -0.00907
 Alpha virt. eigenvalues --   -0.00609  -0.00349   0.00464   0.00917   0.02225
 Alpha virt. eigenvalues --    0.02363   0.02898   0.03073   0.03145   0.03287
 Alpha virt. eigenvalues --    0.03600   0.04038   0.04266   0.04443   0.04778
 Alpha virt. eigenvalues --    0.05011   0.05067   0.05667   0.05837   0.06517
 Alpha virt. eigenvalues --    0.06924   0.07000   0.07112   0.07231   0.07479
 Alpha virt. eigenvalues --    0.07910   0.08040   0.08215   0.08527   0.08625
 Alpha virt. eigenvalues --    0.08800   0.09020   0.09582   0.09657   0.09795
 Alpha virt. eigenvalues --    0.09954   0.10126   0.10228   0.10635   0.11024
 Alpha virt. eigenvalues --    0.11059   0.11131   0.11171   0.11315   0.11516
 Alpha virt. eigenvalues --    0.11557   0.11858   0.12364   0.12504   0.12599
 Alpha virt. eigenvalues --    0.12767   0.13108   0.13257   0.13468   0.14024
 Alpha virt. eigenvalues --    0.14403   0.14587   0.14798   0.14981   0.15107
 Alpha virt. eigenvalues --    0.15362   0.16059   0.16234   0.16777   0.17116
 Alpha virt. eigenvalues --    0.17198   0.17602   0.17813   0.18122   0.18361
 Alpha virt. eigenvalues --    0.18589   0.19020   0.19279   0.19482   0.19907
 Alpha virt. eigenvalues --    0.20193   0.20367   0.20637   0.21158   0.21569
 Alpha virt. eigenvalues --    0.21671   0.22114   0.22314   0.22628   0.22986
 Alpha virt. eigenvalues --    0.23184   0.23489   0.23851   0.24344   0.24897
 Alpha virt. eigenvalues --    0.25299   0.25400   0.25819   0.26846   0.28309
 Alpha virt. eigenvalues --    0.28597   0.29007   0.29141   0.30844   0.31501
 Alpha virt. eigenvalues --    0.32061   0.32778   0.33289   0.33564   0.34964
 Alpha virt. eigenvalues --    0.35302   0.36325   0.36776   0.36848   0.36967
 Alpha virt. eigenvalues --    0.37353   0.38018   0.38842   0.40329   0.40847
 Alpha virt. eigenvalues --    0.41356   0.42184   0.42511   0.42938   0.43189
 Alpha virt. eigenvalues --    0.43375   0.43810   0.44717   0.45046   0.45162
 Alpha virt. eigenvalues --    0.45870   0.46197   0.46309   0.46406   0.46615
 Alpha virt. eigenvalues --    0.47268   0.47442   0.47835   0.47874   0.48006
 Alpha virt. eigenvalues --    0.48385   0.48494   0.48821   0.49084   0.49338
 Alpha virt. eigenvalues --    0.49352   0.49813   0.50003   0.50113   0.50232
 Alpha virt. eigenvalues --    0.50393   0.50632   0.51057   0.51397   0.51673
 Alpha virt. eigenvalues --    0.51715   0.51891   0.52068   0.52508   0.52715
 Alpha virt. eigenvalues --    0.52857   0.53381   0.53410   0.54048   0.54290
 Alpha virt. eigenvalues --    0.54738   0.55075   0.55533   0.55815   0.56438
 Alpha virt. eigenvalues --    0.56684   0.57160   0.57585   0.58026   0.58327
 Alpha virt. eigenvalues --    0.58504   0.59065   0.59446   0.59490   0.59949
 Alpha virt. eigenvalues --    0.60159   0.60238   0.60504   0.60991   0.61099
 Alpha virt. eigenvalues --    0.61720   0.61804   0.61924   0.62055   0.62456
 Alpha virt. eigenvalues --    0.62600   0.63227   0.63460   0.63708   0.63799
 Alpha virt. eigenvalues --    0.64477   0.65288   0.65583   0.65661   0.66003
 Alpha virt. eigenvalues --    0.66407   0.66857   0.67574   0.67834   0.68198
 Alpha virt. eigenvalues --    0.68540   0.68641   0.69034   0.69383   0.69674
 Alpha virt. eigenvalues --    0.69865   0.70144   0.70371   0.70419   0.70881
 Alpha virt. eigenvalues --    0.71218   0.71655   0.72264   0.72677   0.72713
 Alpha virt. eigenvalues --    0.73160   0.73516   0.73595   0.73822   0.74027
 Alpha virt. eigenvalues --    0.74258   0.74867   0.75255   0.75388   0.75774
 Alpha virt. eigenvalues --    0.75984   0.76132   0.76297   0.76397   0.77490
 Alpha virt. eigenvalues --    0.77668   0.77818   0.78223   0.78514   0.78719
 Alpha virt. eigenvalues --    0.78826   0.79352   0.79419   0.79452   0.79734
 Alpha virt. eigenvalues --    0.79923   0.80123   0.80210   0.80511   0.80624
 Alpha virt. eigenvalues --    0.80695   0.81109   0.81364   0.81619   0.81826
 Alpha virt. eigenvalues --    0.82302   0.82355   0.82623   0.82758   0.82924
 Alpha virt. eigenvalues --    0.83323   0.83386   0.83557   0.83817   0.84428
 Alpha virt. eigenvalues --    0.84645   0.84759   0.84847   0.85208   0.85456
 Alpha virt. eigenvalues --    0.85577   0.85758   0.85836   0.85902   0.86075
 Alpha virt. eigenvalues --    0.86513   0.86835   0.87404   0.87555   0.87870
 Alpha virt. eigenvalues --    0.87918   0.88279   0.88622   0.88774   0.89007
 Alpha virt. eigenvalues --    0.89289   0.89430   0.89633   0.89851   0.89999
 Alpha virt. eigenvalues --    0.90165   0.90616   0.90937   0.91342   0.91537
 Alpha virt. eigenvalues --    0.91856   0.91995   0.92467   0.92584   0.92952
 Alpha virt. eigenvalues --    0.93155   0.93161   0.93443   0.93952   0.93966
 Alpha virt. eigenvalues --    0.94337   0.94463   0.95177   0.96071   0.96501
 Alpha virt. eigenvalues --    0.96672   0.97222   0.97784   0.98755   0.99039
 Alpha virt. eigenvalues --    0.99843   1.00488   1.00744   1.00923   1.01107
 Alpha virt. eigenvalues --    1.01895   1.01994   1.02268   1.02876   1.03168
 Alpha virt. eigenvalues --    1.03287   1.04340   1.04732   1.05336   1.05727
 Alpha virt. eigenvalues --    1.06169   1.06743   1.07142   1.07298   1.08028
 Alpha virt. eigenvalues --    1.08743   1.09116   1.09290   1.09776   1.10175
 Alpha virt. eigenvalues --    1.10578   1.11005   1.11868   1.12430   1.13227
 Alpha virt. eigenvalues --    1.14187   1.14621   1.15212   1.15726   1.16204
 Alpha virt. eigenvalues --    1.16461   1.16974   1.18322   1.18880   1.19561
 Alpha virt. eigenvalues --    1.20873   1.21498   1.21566   1.21750   1.22692
 Alpha virt. eigenvalues --    1.24031   1.24396   1.25762   1.26219   1.26540
 Alpha virt. eigenvalues --    1.27322   1.27665   1.27913   1.28760   1.29056
 Alpha virt. eigenvalues --    1.29601   1.30113   1.30842   1.31255   1.32553
 Alpha virt. eigenvalues --    1.33449   1.33638   1.34003   1.35351   1.35773
 Alpha virt. eigenvalues --    1.35899   1.36482   1.37126   1.37793   1.38251
 Alpha virt. eigenvalues --    1.38291   1.38790   1.39066   1.39994   1.40146
 Alpha virt. eigenvalues --    1.40360   1.41475   1.41590   1.41819   1.42001
 Alpha virt. eigenvalues --    1.42222   1.42693   1.43882   1.44316   1.44860
 Alpha virt. eigenvalues --    1.45384   1.45774   1.46058   1.46895   1.47314
 Alpha virt. eigenvalues --    1.48134   1.48315   1.49703   1.50278   1.51074
 Alpha virt. eigenvalues --    1.51972   1.52543   1.53179   1.53373   1.53979
 Alpha virt. eigenvalues --    1.55343   1.56766   1.56880   1.57294   1.57508
 Alpha virt. eigenvalues --    1.58510   1.59103   1.59841   1.60193   1.61537
 Alpha virt. eigenvalues --    1.61677   1.62346   1.63584   1.64041   1.64374
 Alpha virt. eigenvalues --    1.64517   1.64567   1.64854   1.65861   1.66179
 Alpha virt. eigenvalues --    1.66497   1.66883   1.67897   1.68238   1.68456
 Alpha virt. eigenvalues --    1.68999   1.69428   1.69711   1.70238   1.70490
 Alpha virt. eigenvalues --    1.70656   1.70764   1.71086   1.71323   1.71418
 Alpha virt. eigenvalues --    1.71880   1.72770   1.73070   1.73568   1.74198
 Alpha virt. eigenvalues --    1.74401   1.74986   1.75231   1.75279   1.75900
 Alpha virt. eigenvalues --    1.76048   1.76921   1.77129   1.77469   1.78129
 Alpha virt. eigenvalues --    1.78226   1.78449   1.79324   1.79382   1.79571
 Alpha virt. eigenvalues --    1.79958   1.80499   1.80679   1.80823   1.80988
 Alpha virt. eigenvalues --    1.81091   1.81331   1.81843   1.82209   1.82580
 Alpha virt. eigenvalues --    1.83220   1.83517   1.83925   1.84419   1.84709
 Alpha virt. eigenvalues --    1.84803   1.84973   1.85519   1.86512   1.86676
 Alpha virt. eigenvalues --    1.86699   1.87328   1.87396   1.87986   1.88218
 Alpha virt. eigenvalues --    1.88510   1.89221   1.90082   1.90220   1.90651
 Alpha virt. eigenvalues --    1.90975   1.91158   1.91303   1.91716   1.92362
 Alpha virt. eigenvalues --    1.92651   1.92907   1.93174   1.93753   1.94117
 Alpha virt. eigenvalues --    1.94356   1.94462   1.95215   1.95672   1.95958
 Alpha virt. eigenvalues --    1.96407   1.96530   1.96963   1.97526   1.97930
 Alpha virt. eigenvalues --    1.98154   1.98667   1.99270   1.99557   2.00940
 Alpha virt. eigenvalues --    2.00970   2.01384   2.01879   2.02087   2.02158
 Alpha virt. eigenvalues --    2.02600   2.03565   2.03799   2.04326   2.05139
 Alpha virt. eigenvalues --    2.05242   2.05448   2.05559   2.05981   2.06233
 Alpha virt. eigenvalues --    2.06550   2.07316   2.08038   2.08781   2.09199
 Alpha virt. eigenvalues --    2.09472   2.09762   2.10227   2.10443   2.11985
 Alpha virt. eigenvalues --    2.12024   2.12315   2.13197   2.14503   2.15375
 Alpha virt. eigenvalues --    2.15707   2.15993   2.17037   2.17600   2.18091
 Alpha virt. eigenvalues --    2.18319   2.18799   2.19397   2.20022   2.20981
 Alpha virt. eigenvalues --    2.21449   2.21889   2.22278   2.22441   2.22943
 Alpha virt. eigenvalues --    2.23322   2.23917   2.24672   2.25231   2.25769
 Alpha virt. eigenvalues --    2.26435   2.26840   2.27252   2.27855   2.28392
 Alpha virt. eigenvalues --    2.28570   2.29916   2.30076   2.30544   2.30770
 Alpha virt. eigenvalues --    2.31434   2.32218   2.32812   2.33364   2.34144
 Alpha virt. eigenvalues --    2.35122   2.35275   2.35470   2.36102   2.36930
 Alpha virt. eigenvalues --    2.37251   2.38617   2.38917   2.39140   2.39319
 Alpha virt. eigenvalues --    2.41130   2.41745   2.42493   2.42898   2.43204
 Alpha virt. eigenvalues --    2.43419   2.43658   2.44922   2.45499   2.46344
 Alpha virt. eigenvalues --    2.46588   2.47563   2.47631   2.47977   2.48418
 Alpha virt. eigenvalues --    2.48974   2.49584   2.49961   2.50433   2.52035
 Alpha virt. eigenvalues --    2.52272   2.53319   2.53806   2.53971   2.54859
 Alpha virt. eigenvalues --    2.54926   2.56225   2.56706   2.57073   2.58589
 Alpha virt. eigenvalues --    2.59190   2.59530   2.60757   2.61281   2.61669
 Alpha virt. eigenvalues --    2.62006   2.62676   2.63399   2.63556   2.64213
 Alpha virt. eigenvalues --    2.64903   2.65496   2.65697   2.65962   2.66914
 Alpha virt. eigenvalues --    2.67571   2.68745   2.69006   2.69654   2.70397
 Alpha virt. eigenvalues --    2.70953   2.72513   2.74443   2.75842   2.75985
 Alpha virt. eigenvalues --    2.76123   2.76769   2.78288   2.79724   2.80126
 Alpha virt. eigenvalues --    2.80339   2.81125   2.82879   2.83977   2.84646
 Alpha virt. eigenvalues --    2.86056   2.88139   2.89079   2.89570   2.91781
 Alpha virt. eigenvalues --    2.92060   2.92921   2.93853   2.94166   2.94431
 Alpha virt. eigenvalues --    2.94917   2.95675   2.96863   2.98121   3.01538
 Alpha virt. eigenvalues --    3.03836   3.04657   3.06676   3.08682   3.11298
 Alpha virt. eigenvalues --    3.13893   3.16011   3.17907   3.20037   3.29837
 Alpha virt. eigenvalues --    3.67317   3.72426   3.74562   3.78799   3.86748
 Alpha virt. eigenvalues --    3.90502   3.91139   3.94069   3.96970   3.98292
 Alpha virt. eigenvalues --    4.00526   4.01031   4.01669   4.03263   4.04704
 Alpha virt. eigenvalues --    4.05838   4.06283   4.06731   4.07024   4.09127
 Alpha virt. eigenvalues --    4.09484   4.11713   4.14157   4.14229   4.16089
 Alpha virt. eigenvalues --    4.16851   4.17209   4.19386   4.20482   4.22727
 Alpha virt. eigenvalues --    4.23072   4.24879   4.26272   4.27418   4.27934
 Alpha virt. eigenvalues --    4.29110   4.30412   4.33456   4.34555   4.34673
 Alpha virt. eigenvalues --    4.36701   4.37246   4.37994   4.39192   4.40342
 Alpha virt. eigenvalues --    4.46862   4.49277   4.51035   4.52352   4.53671
 Alpha virt. eigenvalues --    4.55042   4.58026   4.58730   4.60744   4.62694
 Alpha virt. eigenvalues --    4.63127   4.67752
          Condensed to atoms (all electrons):
 Mulliken charges:
               1
     1  N   -0.756857
     2  H    0.421466
     3  H    0.420050
     4  H    0.409305
     5  C   -0.133920
     6  H    0.202267
     7  C    0.640984
     8  C    0.107870
     9  H    0.188341
    10  O   -0.536119
    11  C   -0.462523
    12  H    0.175243
    13  H    0.212695
    14  H    0.143487
    15  O   -0.627738
    16  H    0.440390
    17  N   -0.602636
    18  H    0.365662
    19  C   -0.064504
    20  H    0.198550
    21  C    0.635047
    22  C   -0.369502
    23  H    0.177948
    24  H    0.188778
    25  O   -0.548549
    26  C    0.183212
    27  C   -0.221529
    28  H    0.146599
    29  C   -0.151810
    30  H    0.156345
    31  C   -0.200378
    32  H    0.154454
    33  C   -0.126698
    34  H    0.164467
    35  C   -0.132788
    36  H    0.160085
    37  N   -0.616768
    38  H    0.363729
    39  C   -0.045590
    40  H    0.184884
    41  C    0.628224
    42  C   -0.450454
    43  H    0.169406
    44  H    0.164951
    45  H    0.182472
    46  O   -0.551403
    47  N   -0.626317
    48  H    0.361387
    49  C   -0.046099
    50  H    0.173720
    51  C    0.614326
    52  C   -0.258263
    53  H    0.164322
    54  H    0.186664
    55  O   -0.546664
    56  C   -0.384446
    57  H    0.198369
    58  H    0.184532
    59  C    0.582672
    60  O   -0.462892
    61  O   -0.562063
    62  N   -0.615425
    63  H    0.362333
    64  C   -0.047990
    65  H    0.183543
    66  C    0.625789
    67  C   -0.447893
    68  H    0.162033
    69  H    0.159117
    70  H    0.179898
    71  O   -0.555897
    72  N   -0.623265
    73  H    0.358044
    74  C   -0.050655
    75  H    0.172280
    76  C    0.613662
    77  C   -0.254694
    78  H    0.157795
    79  H    0.141737
    80  O   -0.556373
    81  C   -0.090920
    82  H    0.144995
    83  C   -0.447724
    84  H    0.146594
    85  H    0.139515
    86  H    0.152712
    87  C   -0.444141
    88  H    0.137666
    89  H    0.147685
    90  H    0.143356
    91  N   -0.618854
    92  H    0.358018
    93  C   -0.013862
    94  H    0.173719
    95  C    0.586863
    96  C   -0.282020
    97  H    0.138914
    98  H    0.167551
    99  O   -0.639078
   100  C   -0.268978
   101  H    0.128567
   102  H    0.181927
   103  C   -0.172073
   104  H    0.213894
   105  H    0.158023
   106  N   -0.597257
   107  H    0.341899
   108  N   -0.767879
   109  H    0.332253
   110  H    0.465573
   111  N   -0.761390
   112  H    0.352732
   113  H    0.354149
   114  C    0.756625
   115  O   -0.562197
   116  H    0.412712
 Sum of Mulliken charges =   1.00000
 Mulliken charges with hydrogens summed into heavy atoms:
               1
     1  N    0.493964
     5  C    0.068347
     7  C    0.640984
     8  C    0.296211
    10  O   -0.536119
    11  C    0.068902
    15  O   -0.187348
    17  N   -0.236974
    19  C    0.134046
    21  C    0.635047
    22  C   -0.002776
    25  O   -0.548549
    26  C    0.183212
    27  C   -0.074931
    29  C    0.004535
    31  C   -0.045924
    33  C    0.037769
    35  C    0.027297
    37  N   -0.253038
    39  C    0.139294
    41  C    0.628224
    42  C    0.066375
    46  O   -0.551403
    47  N   -0.264929
    49  C    0.127621
    51  C    0.614326
    52  C    0.092723
    55  O   -0.546664
    56  C   -0.001545
    59  C    0.582672
    60  O   -0.462892
    61  O   -0.149350
    62  N   -0.253092
    64  C    0.135553
    66  C    0.625789
    67  C    0.053155
    71  O   -0.555897
    72  N   -0.265222
    74  C    0.121625
    76  C    0.613662
    77  C    0.044838
    80  O   -0.556373
    81  C    0.054075
    83  C   -0.008903
    87  C   -0.015434
    91  N   -0.260836
    93  C    0.159857
    95  C    0.586863
    96  C    0.024444
    99  O   -0.639078
   100  C    0.041515
   103  C    0.199843
   106  N   -0.255357
   108  N    0.029947
   111  N   -0.054508
   114  C    0.756625
   115  O   -0.562197
 Electronic spatial extent (au):  <R**2>=         128943.2755
 Charge=              1.0000 electrons
 Dipole moment (field-independent basis, Debye):
    X=            -14.8744    Y=             -5.5627    Z=            -19.2607  Tot=             24.9633
 Quadrupole moment (field-independent basis, Debye-Ang):
   XX=            205.9919   YY=           -123.2812   ZZ=           -175.0129
   XY=            349.2985   XZ=            235.0621   YZ=            151.9719
 Traceless Quadrupole moment (field-independent basis, Debye-Ang):
   XX=            236.7593   YY=            -92.5138   ZZ=           -144.2455
   XY=            349.2985   XZ=            235.0621   YZ=            151.9719
 Octapole moment (field-independent basis, Debye-Ang**2):
  XXX=            676.4857  YYY=           -152.3254  ZZZ=           -530.7450  XYY=            681.2449
  XXY=           1228.4714  XXZ=           -357.4706  XZZ=          -1087.7296  YZZ=           -714.4067
  YYZ=            -31.3374  XYZ=           -213.6957
 Hexadecapole moment (field-independent basis, Debye-Ang**3):
 XXXX=         -21109.9582 YYYY=         -17619.4054 ZZZZ=         -23994.5452 XXXY=          26881.8873
 XXXZ=           5733.4756 YYYX=          -5098.9159 YYYZ=          -5191.4368 ZZZX=         -13557.0681
 ZZZY=          -6523.9779 XXYY=          12308.2076 XXZZ=          -8473.1851 YYZZ=          -4480.1596
 XXYZ=          15125.3485 YYXZ=           4884.6377 ZZXY=            604.7871
 N-N= 7.469757020252D+03 E-N=-2.139630063895D+04  KE= 2.756537359113D+03
 Unable to Open any file for archive entry.
 1\1\GINC-AMR-104\SP\RB3LYP\6-31G(d)\C36H59N10O11(1+)\KENGMITH\30-Jun-2
 022\0\\# B3LYP/6-31G* guess=read geom=check nosymm integral(ultrafineg
 rid)\\Candidate Structure: Conf:234 Charge calc in gas phase\\1,1\N,0,
 -8.8778217508,-4.8744566907,-5.9021585974\H,0,-8.8395003137,-4.8583454
 619,-4.8640968489\H,0,-9.6051189683,-4.2083189499,-6.240769693\H,0,-9.
 1360867977,-5.8161628294,-6.2110417116\C,0,-7.602646339,-4.3803404197,
 -6.5714719743\H,0,-6.9026988729,-5.2160974553,-6.6359338033\C,0,-7.104
 5034441,-3.230405887,-5.6795116009\C,0,-8.0447906173,-3.8445293307,-7.
 9663904478\H,0,-7.2298940079,-3.2114810949,-8.3402985255\O,0,-7.798373
 077,-2.2103958579,-5.6037921052\C,0,-8.3437740716,-4.9429180896,-8.978
 1299719\H,0,-7.4558822998,-5.5542833734,-9.1683973254\H,0,-8.660229016
 9,-4.4875879715,-9.919768506\H,0,-9.1591450868,-5.5974831707,-8.646021
 3247\O,0,-9.2299306001,-3.0781625447,-7.772763258\H,0,-8.9732168451,-2
 .3084327105,-7.2205724882\N,0,-5.9843321473,-3.4633183579,-4.987267794
 8\H,0,-5.3435601036,-4.2285785622,-5.2000385037\C,0,-5.465473511,-2.56
 22374596,-3.9669663181\H,0,-5.793830921,-1.5470169388,-4.2027274106\C,
 0,-3.9301175315,-2.7099576177,-4.0345597414\C,0,-5.9655125415,-2.97974
 17495,-2.5448404391\H,0,-5.3881443568,-3.8564886743,-2.2301329681\H,0,
 -5.7183544108,-2.1691613805,-1.850393617\O,0,-3.4497218196,-3.73708560
 79,-4.5248091517\C,0,-7.4431948792,-3.3048157944,-2.4857518068\C,0,-7.
 8752959465,-4.6385292505,-2.5698335715\H,0,-7.1369330195,-5.4370031229
 ,-2.6078047932\C,0,-8.4115712926,-2.2987260125,-2.3750868916\H,0,-8.09
 92670786,-1.2603340159,-2.3000174088\C,0,-9.240544682,-4.9567733525,-2
 .5554705974\H,0,-9.5541034226,-5.9987541784,-2.5630465467\C,0,-9.77279
 10996,-2.608190911,-2.3634310317\H,0,-10.5046920677,-1.8112484258,-2.2
 704847665\C,0,-10.1943379346,-3.9360577608,-2.458672178\H,0,-11.252984
 2054,-4.1778723524,-2.4261806991\N,0,-3.2253402074,-1.7083798255,-3.49
 63195568\H,0,-3.6651482673,-0.9011946446,-3.0537269637\C,0,-1.77905896
 79,-1.7318837835,-3.3072403547\H,0,-1.4910991807,-2.7238621688,-2.9399
 120606\C,0,-1.5057759616,-0.6702667094,-2.2178278456\C,0,-1.017488449,
 -1.4345889557,-4.6097702767\H,0,0.0639010684,-1.4701859283,-4.44418058
 97\H,0,-1.2771341422,-0.4407831633,-4.9885408244\H,0,-1.2751546385,-2.
 183260526,-5.3635316489\O,0,-2.3898106527,0.1296136254,-1.8934948389\N
 ,0,-0.2719081911,-0.6840368093,-1.6912397893\H,0,0.4414447917,-1.35077
 66906,-1.9781683301\C,0,0.1877669901,0.2565056072,-0.6769592975\H,0,-0
 .1561637698,1.2613504237,-0.9489802199\C,0,1.7277839297,0.1762875264,-
 0.7298340421\C,0,-0.3792404672,-0.1214174658,0.7138672912\H,0,0.066240
 5163,-1.069865304,1.0348017229\H,0,-1.4501345571,-0.3010775837,0.58734
 93748\O,0,2.2799292667,-0.8212927687,-1.2024529208\C,0,-0.1927158795,0
 .9451871355,1.7960907255\H,0,0.8582979272,1.1295396968,2.0451164898\H,
 0,-0.593679128,1.9149218223,1.4679704722\C,0,-0.9173734477,0.572176669
 9,3.0740687116\O,0,-1.6424282991,-0.3870001315,3.2239252411\O,0,-0.664
 554635,1.462426319,4.0611863657\N,0,2.3912550122,1.2308586562,-0.22317
 93852\H,0,1.9119240842,2.0035226539,0.2337034274\C,0,3.8319178471,1.24
 66242978,-0.011508544\H,0,4.1464853358,0.2423403725,0.2957583086\C,0,4
 .0663770598,2.2399661459,1.1486303892\C,0,4.5988350516,1.6403191271,-1
 .2853703332\H,0,5.6802061478,1.6275049356,-1.1144273942\H,0,4.3120527,
 2.6450800157,-1.6128321003\H,0,4.3672906737,0.9274640987,-2.0813950003
 \O,0,3.1414016979,2.9480296633,1.5636256488\N,0,5.3155077277,2.2740730
 092,1.6381574882\H,0,6.0639247698,1.6903886386,1.2717419162\C,0,5.7531
 579278,3.1739862719,2.699849062\H,0,5.301505489,4.1554974195,2.5259486
 941\C,0,7.2867548682,3.2453749233,2.5522356957\C,0,5.3174632387,2.6339
 572878,4.0873364197\H,0,4.249967543,2.3940128445,4.0046991291\H,0,5.84
 82137505,1.687461969,4.2554579671\O,0,7.8968983598,2.3306195506,1.9872
 967857\C,0,5.5187577986,3.5643180763,5.3012549419\H,0,6.5796967635,3.8
 38330889,5.3695594035\C,0,4.6965495386,4.8586399841,5.192758866\H,0,3.
 6266091376,4.6355178824,5.0923874115\H,0,4.986148029,5.4732485244,4.33
 23541619\H,0,4.8316471924,5.4768669637,6.08705549\C,0,5.1562650052,2.8
 067492383,6.5884802948\H,0,4.1003312589,2.5058710939,6.5839624693\H,0,
 5.3202334677,3.4347805846,7.4714498472\H,0,5.7622706112,1.9003756665,6
 .7039122986\N,0,7.8819749037,4.3281836226,3.0809211552\H,0,7.359691838
 8,5.0529128847,3.5679356569\C,0,9.3238413077,4.4972993525,3.2020210075
 \H,0,9.7851363863,3.5262323456,3.3976324696\C,0,9.5797799051,5.4391964
 77,4.3981075477\C,0,9.9252143472,5.0866382406,1.8917649745\H,0,9.23487
 71902,5.8561531175,1.5200355852\H,0,9.9275391109,4.2856069233,1.145698
 4225\O,0,10.765291501,5.3408812118,4.8852811437\C,0,11.3404270471,5.68
 57795993,2.0387116833\H,0,11.8725617825,5.6168874116,1.0808719644\H,0,
 11.9079804844,5.1146691555,2.7776365927\C,0,11.2869863036,7.1645070409
 ,2.4748294398\H,0,10.5106203762,7.3371968244,3.2209248797\H,0,11.03549
 06678,7.7952172633,1.6131886112\N,0,12.5440986893,7.6816822744,3.03056
 57815\H,0,13.3327059528,7.756481787,2.4017280909\N,0,12.0198396818,7.4
 666298816,5.296059901\H,0,12.2047579255,7.8138939202,6.2288738928\H,0,
 11.3491650322,6.5315590313,5.1910792702\N,0,13.9728009019,8.5724445105
 ,4.6010040004\H,0,14.2524215413,9.308893241,3.9672553449\H,0,14.222847
 3863,8.7231380016,5.5678083589\C,0,12.8108113184,7.8921581629,4.336309
 8319\O,0,8.692721765,6.2445378562,4.7173559114\H,0,-1.1686482225,1.159
 4572145,4.8399711456\\Version=ES64L-G16RevC.01\HF=-2782.294911\RMSD=4.
 651e-09\Dipole=-7.703334,-3.6760059,-7.1154052\Quadrupole=176.0247304,
 -68.7817339,-107.2429965,259.6949003,174.7629285,112.9874178\PG=C01 [X
 (C36H59N10O11)]\\@
 The archive entry for this job was punched.


 WE'RE IN THE POSITION OF A VISITOR FROM ANOTHER
 DIMENSION WHO COMES TO EARTH AND SEES A CHESS MATCH.
 ASSUMING HE KNOWS IT'S A GAME, HE'S GOT TWO PROBLEMS:
 FIRST, FIGURE OUT THE RULES, AND SECOND, FIGURE OUT HOW TO WIN.
 NINETY PERCENT OF SCIENCE (INCLUDING VIRTUALLY ALL OF CHEMISRY)
 IS IN THAT SECOND CATEGORY.  THEY'RE TRYING TO APPLY
 THE LAWS THAT ARE ALREADY KNOWN.

                     -- SHELDON GLASHOW, 1979
 Job cpu time:       0 days  0 hours  3 minutes 54.5 seconds.
 Elapsed time:       0 days  0 hours  1 minutes  1.4 seconds.
 File lengths (MBytes):  RWF=    608 Int=      0 D2E=      0 Chk=     96 Scr=     16
 Normal termination of Gaussian 16 at Thu Jun 30 14:49:17 2022.
