 Entering Gaussian System, Link 0=/opt/software/Gaussian/g16-AVX2-C.01/g16/g16
 Input=charge-conf-123.com
 Output=charge-conf-123.log
 Initial command:
 /opt/software/Gaussian/g16-AVX2-C.01/g16/l1.exe "/mnt/gs18/scratch/users/kengmith/Gau-54921.inp" -scrdir="/mnt/gs18/scratch/users/kengmith/"
 Entering Link 1 = /opt/software/Gaussian/g16-AVX2-C.01/g16/l1.exe PID=     55048.
  
 Copyright (c) 1988-2019, Gaussian, Inc.  All Rights Reserved.
  
 This is part of the Gaussian(R) 16 program.  It is based on
 the Gaussian(R) 09 system (copyright 2009, Gaussian, Inc.),
 the Gaussian(R) 03 system (copyright 2003, Gaussian, Inc.),
 the Gaussian(R) 98 system (copyright 1998, Gaussian, Inc.),
 the Gaussian(R) 94 system (copyright 1995, Gaussian, Inc.),
 the Gaussian 92(TM) system (copyright 1992, Gaussian, Inc.),
 the Gaussian 90(TM) system (copyright 1990, Gaussian, Inc.),
 the Gaussian 88(TM) system (copyright 1988, Gaussian, Inc.),
 the Gaussian 86(TM) system (copyright 1986, Carnegie Mellon
 University), and the Gaussian 82(TM) system (copyright 1983,
 Carnegie Mellon University). Gaussian is a federally registered
 trademark of Gaussian, Inc.
  
 This software contains proprietary and confidential information,
 including trade secrets, belonging to Gaussian, Inc.
  
 This software is provided under written license and may be
 used, copied, transmitted, or stored only in accord with that
 written license.
  
 The following legend is applicable only to US Government
 contracts under FAR:
  
                    RESTRICTED RIGHTS LEGEND
  
 Use, reproduction and disclosure by the US Government is
 subject to restrictions as set forth in subparagraphs (a)
 and (c) of the Commercial Computer Software - Restricted
 Rights clause in FAR 52.227-19.
  
 Gaussian, Inc.
 340 Quinnipiac St., Bldg. 40, Wallingford CT 06492
  
  
 ---------------------------------------------------------------
 Warning -- This program may not be used in any manner that
 competes with the business of Gaussian, Inc. or will provide
 assistance to any competitor of Gaussian, Inc.  The licensee
 of this program is prohibited from giving any competitor of
 Gaussian, Inc. access to this program.  By using this program,
 the user acknowledges that Gaussian, Inc. is engaged in the
 business of creating and licensing software in the field of
 computational chemistry and represents and warrants to the
 licensee that it is not a competitor of Gaussian, Inc. and that
 it will not use this program in any manner prohibited above.
 ---------------------------------------------------------------
  

 Cite this work as:
 Gaussian 16, Revision C.01,
 M. J. Frisch, G. W. Trucks, H. B. Schlegel, G. E. Scuseria, 
 M. A. Robb, J. R. Cheeseman, G. Scalmani, V. Barone, 
 G. A. Petersson, H. Nakatsuji, X. Li, M. Caricato, A. V. Marenich, 
 J. Bloino, B. G. Janesko, R. Gomperts, B. Mennucci, H. P. Hratchian, 
 J. V. Ortiz, A. F. Izmaylov, J. L. Sonnenberg, D. Williams-Young, 
 F. Ding, F. Lipparini, F. Egidi, J. Goings, B. Peng, A. Petrone, 
 T. Henderson, D. Ranasinghe, V. G. Zakrzewski, J. Gao, N. Rega, 
 G. Zheng, W. Liang, M. Hada, M. Ehara, K. Toyota, R. Fukuda, 
 J. Hasegawa, M. Ishida, T. Nakajima, Y. Honda, O. Kitao, H. Nakai, 
 T. Vreven, K. Throssell, J. A. Montgomery, Jr., J. E. Peralta, 
 F. Ogliaro, M. J. Bearpark, J. J. Heyd, E. N. Brothers, K. N. Kudin, 
 V. N. Staroverov, T. A. Keith, R. Kobayashi, J. Normand, 
 K. Raghavachari, A. P. Rendell, J. C. Burant, S. S. Iyengar, 
 J. Tomasi, M. Cossi, J. M. Millam, M. Klene, C. Adamo, R. Cammi, 
 J. W. Ochterski, R. L. Martin, K. Morokuma, O. Farkas, 
 J. B. Foresman, and D. J. Fox, Gaussian, Inc., Wallingford CT, 2019.
 
 ******************************************
 Gaussian 16:  ES64L-G16RevC.01  3-Jul-2019
                30-Jun-2022 
 ******************************************
 %mem=8gb
 %nproc=4
 Will use up to    4 processors via shared memory.
 %chk=conf-123.chk
 -------------------------------------------------------------------
 # B3LYP/6-31G* guess=read geom=check nosymm integral(ultrafinegrid)
 -------------------------------------------------------------------
 1/29=2,38=1,172=1/1;
 2/12=2,15=1,40=1/2;
 3/5=1,6=6,7=1,11=2,14=-4,25=1,30=1,74=-5,75=-5,116=-2/1,2,3;
 4/5=1/1;
 5/5=2,38=6/2;
 6/7=2,8=2,9=2,10=2,28=1/1;
 99/5=1,9=1/99;
 ------------------------------------------------------
 Candidate Structure: Conf:123 Charge calc in gas phase
 ------------------------------------------------------
 Structure from the checkpoint file:  "conf-123.chk"
 Charge =  1 Multiplicity = 1
 Redundant internal coordinates found in file.  (old form).
 N,0,-8.4779532403,-5.7114218404,-5.4263872675
 H,0,-8.6568856383,-5.9926722643,-4.4484603447
 H,0,-8.8667158816,-4.7536653897,-5.5360798382
 H,0,-8.8833136694,-6.3724280152,-6.1068253608
 C,0,-7.0066550183,-5.5672032864,-5.7170906086
 H,0,-6.488638398,-6.4054580959,-5.243873927
 C,0,-6.6650054715,-4.2029269675,-5.0841839324
 C,0,-6.8510306753,-5.6109098587,-7.2591293649
 H,0,-7.2788359203,-4.6841613261,-7.6592408812
 O,0,-7.5282858149,-3.3242558421,-5.1643721159
 C,0,-5.3971745367,-5.7428038673,-7.6906043712
 H,0,-4.7962551701,-4.9059707645,-7.3204084488
 H,0,-5.3338267088,-5.7459252098,-8.7822960337
 H,0,-4.9536164608,-6.6730302701,-7.3118944396
 O,0,-7.6850179586,-6.662905943,-7.7509567783
 H,0,-7.1482996087,-7.4589304464,-7.8986984355
 N,0,-5.4973049169,-4.1003623599,-4.445603671
 H,0,-4.7706838678,-4.8129315757,-4.4905627435
 C,0,-5.1737696431,-3.0041494608,-3.5422888655
 H,0,-5.659107383,-2.0971793406,-3.9095371744
 C,0,-3.6356308917,-2.8965776286,-3.5599588176
 C,0,-5.651792581,-3.3303640604,-2.083899993
 H,0,-4.9271917672,-4.025405961,-1.6446434778
 H,0,-5.6020217896,-2.4043155847,-1.5005605606
 O,0,-2.9715242575,-3.8918782002,-3.8645149857
 C,0,-7.036519257,-3.9405513717,-2.0096093005
 C,0,-8.1907284661,-3.144387729,-2.0068435788
 H,0,-8.0948581664,-2.0616741412,-2.0180135254
 C,0,-7.1901961312,-5.3346859645,-1.9844665934
 H,0,-6.3071487619,-5.9687625706,-1.9423178541
 C,0,-9.4613073781,-3.720210485,-1.9979892891
 H,0,-10.3411229197,-3.083447829,-1.987190909
 C,0,-8.4625399902,-5.9217499169,-1.9755278162
 H,0,-8.5591631972,-7.002839712,-1.8996340633
 C,0,-9.6044057778,-5.111385124,-1.9879557023
 H,0,-10.5941475297,-5.5587405018,-1.951005807
 N,0,-3.1247656138,-1.7177665415,-3.1808856397
 H,0,-3.7065268424,-0.9295620961,-2.900420925
 C,0,-1.6997760619,-1.4762809371,-2.9836703118
 H,0,-1.269325902,-2.3423374521,-2.4678514552
 C,0,-1.6199207938,-0.2305426934,-2.0755243092
 C,0,-0.9580945202,-1.2624916189,-4.3144774349
 H,0,0.110240696,-1.0992343476,-4.1412527315
 H,0,-1.3608500672,-0.3925638607,-4.8432856671
 H,0,-1.0738452352,-2.1490494763,-4.9433787871
 O,0,-2.6152940462,0.4866459524,-1.9155641953
 N,0,-0.4231574194,-0.0012351267,-1.5179661542
 H,0,0.3765199678,-0.6144756027,-1.6701619938
 C,0,-0.1020656249,1.1603220445,-0.7003909055
 H,0,-0.4138344244,2.065726398,-1.2325628662
 C,0,1.4352448014,1.1542613809,-0.5744172042
 C,0,-0.7696281581,1.130088456,0.7124778481
 H,0,-0.0132903087,1.3134852004,1.4825547846
 H,0,-1.1458558251,0.1169317221,0.8819667013
 O,0,2.0921085825,0.1658717176,-0.9057281086
 C,0,-1.9289656335,2.1174197049,0.8719267221
 H,0,-2.6531980329,1.9949829975,0.0570561724
 H,0,-2.4764723146,1.9260490416,1.8028148116
 C,0,-1.4906832617,3.5626073608,0.8947873104
 O,0,-0.3628359074,3.9796308942,0.6883997621
 O,0,-2.5130879875,4.3951735489,1.1665557013
 N,0,1.9732056782,2.2881121541,-0.0693393325
 H,0,1.3168650118,2.9652758816,0.3183653025
 C,0,3.3180812197,2.2616190885,0.4855370423
 H,0,3.9810099054,1.8250884943,-0.2679595614
 C,0,3.3310349054,1.3693021729,1.7545516509
 C,0,3.7671779655,3.6873355012,0.8245861926
 H,0,4.7878621574,3.6768914937,1.2223721241
 H,0,3.1106894843,4.1254244324,1.5847266542
 H,0,3.7469097611,4.3223754664,-0.0665285312
 O,0,2.3316155572,1.2735387962,2.4652852158
 N,0,4.5071918265,0.7532464657,2.0031569779
 H,0,5.3159415842,0.9264910253,1.4181978041
 C,0,4.7624006247,-0.1117012214,3.1463573651
 H,0,4.0155396928,0.1226838557,3.908865246
 C,0,6.1749342407,0.2021103618,3.6816937957
 C,0,4.6868646101,-1.6139444759,2.7696735629
 H,0,5.463682339,-1.8046275711,2.015507131
 H,0,4.9651978564,-2.1963008962,3.6576972797
 O,0,6.9919677159,0.7916143928,2.9192187726
 C,0,3.3295753979,-2.1173205233,2.2409565709
 H,0,3.0364155918,-1.4892519866,1.3882929754
 C,0,3.4874289466,-3.5578874361,1.7278623963
 H,0,3.7872066002,-4.2349663006,2.5381032031
 H,0,4.2466789786,-3.6240802872,0.939120524
 H,0,2.5425730092,-3.9325464346,1.3160839103
 C,0,2.2231798091,-2.0362476018,3.3038691797
 H,0,2.4977775822,-2.6037526153,4.2025643532
 H,0,1.2885791386,-2.4618691652,2.9174331544
 H,0,2.0172811756,-1.001772063,3.593489874
 N,0,6.4091110336,-0.239356104,4.9022237015
 H,0,5.6758476813,-0.7069003429,5.4897851518
 C,0,7.639071537,-0.4133395829,5.6806727834
 H,0,8.2407983748,-1.2058475316,5.2125204772
 C,0,7.1270534742,-0.9960137296,7.085503493
 C,0,8.5078745524,0.8292364351,5.8751765898
 H,0,8.9880946919,0.6958566953,6.8512821949
 H,0,7.8512604274,1.7071138748,5.9499575254
 O,0,7.9788539631,-1.0187847137,7.9842509995
 C,0,9.5620560077,1.0221817473,4.7771068247
 H,0,9.1154238523,0.8565353255,3.793309785
 H,0,10.3424847011,0.2570810274,4.8819668688
 C,0,10.2795971379,2.3763834935,4.8074305565
 H,0,10.8587048188,2.5334471996,3.8903958096
 H,0,10.9757275957,2.4224132662,5.6489961503
 N,0,9.4060582924,3.5610552623,4.9974290716
 H,0,9.5046766912,4.0536318241,5.8745239133
 N,0,7.9633830822,3.2993877857,3.175122485
 H,0,7.3995258678,3.7837074153,2.4896864824
 H,0,7.794624516,2.2679580717,3.2183240638
 N,0,8.049896936,5.3088082857,4.325306507
 H,0,8.5413200097,5.9371248797,4.9444316538
 H,0,7.1089871058,5.567745245,4.065734013
 C,0,8.4656831469,4.0250427697,4.1731024319
 O,0,5.9184838048,-1.3617098374,7.0649340986
 H,0,-2.1511131301,5.3018644921,1.1555980263
 Recover connectivity data from disk.
                           ----------------------------
                           !    Current Parameters    !
                           ! (Angstroms and Degrees)  !
 --------------------------                            --------------------------
 ! Name  Definition              Value                                          !
 --------------------------------------------------------------------------------
 ! R1    R(1,2)                  1.0332                                         !
 ! R2    R(1,3)                  1.0395                                         !
 ! R3    R(1,4)                  1.0316                                         !
 ! R4    R(1,5)                  1.5067                                         !
 ! R5    R(5,6)                  1.0931                                         !
 ! R6    R(5,7)                  1.5423                                         !
 ! R7    R(5,8)                  1.5505                                         !
 ! R8    R(7,10)                 1.2344                                         !
 ! R9    R(7,17)                 1.3349                                         !
 ! R10   R(8,9)                  1.0963                                         !
 ! R11   R(8,11)                 1.5223                                         !
 ! R12   R(8,15)                 1.4297                                         !
 ! R13   R(11,12)                1.0947                                         !
 ! R14   R(11,13)                1.0935                                         !
 ! R15   R(11,14)                1.0979                                         !
 ! R16   R(15,16)                0.9714                                         !
 ! R17   R(17,18)                1.0187                                         !
 ! R18   R(17,19)                1.4568                                         !
 ! R19   R(19,20)                1.0923                                         !
 ! R20   R(19,21)                1.542                                          !
 ! R21   R(19,22)                1.569                                          !
 ! R22   R(21,25)                1.2347                                         !
 ! R23   R(21,37)                1.3395                                         !
 ! R24   R(22,23)                1.0959                                         !
 ! R25   R(22,24)                1.0956                                         !
 ! R26   R(22,26)                1.515                                          !
 ! R27   R(26,27)                1.4022                                         !
 ! R28   R(26,29)                1.4028                                         !
 ! R29   R(27,28)                1.087                                          !
 ! R30   R(27,31)                1.395                                          !
 ! R31   R(29,30)                1.0879                                         !
 ! R32   R(29,33)                1.4013                                         !
 ! R33   R(31,32)                1.0861                                         !
 ! R34   R(31,35)                1.3986                                         !
 ! R35   R(33,34)                1.088                                          !
 ! R36   R(33,35)                1.4003                                         !
 ! R37   R(35,36)                1.0868                                         !
 ! R38   R(37,38)                1.019                                          !
 ! R39   R(37,39)                1.4587                                         !
 ! R40   R(39,40)                1.0961                                         !
 ! R41   R(39,41)                1.5437                                         !
 ! R42   R(39,42)                1.5385                                         !
 ! R43   R(41,46)                1.2372                                         !
 ! R44   R(41,47)                1.34                                           !
 ! R45   R(42,43)                1.0945                                         !
 ! R46   R(42,44)                1.0948                                         !
 ! R47   R(42,45)                1.0931                                         !
 ! R48   R(47,48)                1.0192                                         !
 ! R49   R(47,49)                1.4563                                         !
 ! R50   R(49,50)                1.0955                                         !
 ! R51   R(49,51)                1.5425                                         !
 ! R52   R(49,52)                1.5629                                         !
 ! R53   R(51,55)                1.2321                                         !
 ! R54   R(51,62)                1.3528                                         !
 ! R55   R(52,53)                1.0949                                         !
 ! R56   R(52,54)                1.094                                          !
 ! R57   R(52,56)                1.5311                                         !
 ! R58   R(56,57)                1.097                                          !
 ! R59   R(56,58)                1.0968                                         !
 ! R60   R(56,59)                1.5104                                         !
 ! R61   R(59,60)                1.2201                                         !
 ! R62   R(59,61)                1.3462                                         !
 ! R63   R(61,116)               0.9763                                         !
 ! R64   R(62,63)                1.0196                                         !
 ! R65   R(62,64)                1.4551                                         !
 ! R66   R(64,65)                1.0944                                         !
 ! R67   R(64,66)                1.5514                                         !
 ! R68   R(64,67)                1.5327                                         !
 ! R69   R(66,71)                1.2301                                         !
 ! R70   R(66,72)                1.3508                                         !
 ! R71   R(67,68)                1.0955                                         !
 ! R72   R(67,69)                1.0958                                         !
 ! R73   R(67,70)                1.0944                                         !
 ! R74   R(72,73)                1.013                                          !
 ! R75   R(72,74)                1.4561                                         !
 ! R76   R(74,75)                1.0928                                         !
 ! R77   R(74,76)                1.5428                                         !
 ! R78   R(74,77)                1.5506                                         !
 ! R79   R(76,80)                1.2635                                         !
 ! R80   R(76,91)                1.3189                                         !
 ! R81   R(77,78)                1.0994                                         !
 ! R82   R(77,79)                1.0978                                         !
 ! R83   R(77,81)                1.5412                                         !
 ! R84   R(81,82)                1.0988                                         !
 ! R85   R(81,83)                1.5373                                         !
 ! R86   R(81,87)                1.5364                                         !
 ! R87   R(83,84)                1.0976                                         !
 ! R88   R(83,85)                1.0968                                         !
 ! R89   R(83,86)                1.0967                                         !
 ! R90   R(87,88)                1.0978                                         !
 ! R91   R(87,89)                1.0973                                         !
 ! R92   R(87,90)                1.0938                                         !
 ! R93   R(91,92)                1.0495                                         !
 ! R94   R(91,93)                1.466                                          !
 ! R95   R(93,94)                1.0997                                         !
 ! R96   R(93,95)                1.6047                                         !
 ! R97   R(93,96)                1.5286                                         !
 ! R98   R(95,99)                1.2385                                         !
 ! R99   R(95,115)               1.2629                                         !
 ! R100  R(96,97)                1.096                                          !
 ! R101  R(96,98)                1.0988                                         !
 ! R102  R(96,100)               1.5344                                         !
 ! R103  R(100,101)              1.0931                                         !
 ! R104  R(100,102)              1.0979                                         !
 ! R105  R(100,103)              1.5329                                         !
 ! R106  R(103,104)              1.0959                                         !
 ! R107  R(103,105)              1.0931                                         !
 ! R108  R(103,106)              1.4841                                         !
 ! R109  R(106,107)              1.0108                                         !
 ! R110  R(106,114)              1.3338                                         !
 ! R111  R(108,109)              1.0111                                         !
 ! R112  R(108,110)              1.046                                          !
 ! R113  R(108,114)              1.3322                                         !
 ! R114  R(111,112)              1.0097                                         !
 ! R115  R(111,113)              1.0098                                         !
 ! R116  R(111,114)              1.358                                          !
 ! A1    A(2,1,3)              106.6148                                         !
 ! A2    A(2,1,4)              112.4474                                         !
 ! A3    A(2,1,5)              112.1978                                         !
 ! A4    A(3,1,4)              111.9513                                         !
 ! A5    A(3,1,5)              104.8725                                         !
 ! A6    A(4,1,5)              108.5289                                         !
 ! A7    A(1,5,6)              107.8082                                         !
 ! A8    A(1,5,7)              102.816                                          !
 ! A9    A(1,5,8)              106.6911                                         !
 ! A10   A(6,5,7)              113.3104                                         !
 ! A11   A(6,5,8)              111.1837                                         !
 ! A12   A(7,5,8)              114.2578                                         !
 ! A13   A(5,7,10)             116.6213                                         !
 ! A14   A(5,7,17)             117.2631                                         !
 ! A15   A(10,7,17)            126.0267                                         !
 ! A16   A(5,8,9)              107.4557                                         !
 ! A17   A(5,8,11)             112.3463                                         !
 ! A18   A(5,8,15)             107.7172                                         !
 ! A19   A(9,8,11)             110.0277                                         !
 ! A20   A(9,8,15)             105.594                                          !
 ! A21   A(11,8,15)            113.319                                          !
 ! A22   A(8,11,12)            111.2337                                         !
 ! A23   A(8,11,13)            109.788                                          !
 ! A24   A(8,11,14)            111.1909                                         !
 ! A25   A(12,11,13)           107.9372                                         !
 ! A26   A(12,11,14)           108.014                                          !
 ! A27   A(13,11,14)           108.5737                                         !
 ! A28   A(8,15,16)            109.4508                                         !
 ! A29   A(7,17,18)            123.3056                                         !
 ! A30   A(7,17,19)            123.2792                                         !
 ! A31   A(18,17,19)           113.2847                                         !
 ! A32   A(17,19,20)           108.5215                                         !
 ! A33   A(17,19,21)           105.4808                                         !
 ! A34   A(17,19,22)           110.6239                                         !
 ! A35   A(20,19,21)           112.4237                                         !
 ! A36   A(20,19,22)           110.4743                                         !
 ! A37   A(21,19,22)           109.2115                                         !
 ! A38   A(19,21,25)           118.8897                                         !
 ! A39   A(19,21,37)           116.0132                                         !
 ! A40   A(25,21,37)           125.0356                                         !
 ! A41   A(19,22,23)           107.6358                                         !
 ! A42   A(19,22,24)           107.7776                                         !
 ! A43   A(19,22,26)           114.0652                                         !
 ! A44   A(23,22,24)           107.0146                                         !
 ! A45   A(23,22,26)           109.2217                                         !
 ! A46   A(24,22,26)           110.845                                          !
 ! A47   A(22,26,27)           121.5855                                         !
 ! A48   A(22,26,29)           120.0843                                         !
 ! A49   A(27,26,29)           118.2999                                         !
 ! A50   A(26,27,28)           119.5343                                         !
 ! A51   A(26,27,31)           121.0226                                         !
 ! A52   A(28,27,31)           119.442                                          !
 ! A53   A(26,29,30)           119.4063                                         !
 ! A54   A(26,29,33)           121.0605                                         !
 ! A55   A(30,29,33)           119.5095                                         !
 ! A56   A(27,31,32)           119.727                                          !
 ! A57   A(27,31,35)           120.2543                                         !
 ! A58   A(32,31,35)           120.0149                                         !
 ! A59   A(29,33,34)           119.8246                                         !
 ! A60   A(29,33,35)           119.8628                                         !
 ! A61   A(34,33,35)           120.2138                                         !
 ! A62   A(31,35,33)           119.4919                                         !
 ! A63   A(31,35,36)           120.1915                                         !
 ! A64   A(33,35,36)           120.274                                          !
 ! A65   A(21,37,38)           122.7424                                         !
 ! A66   A(21,37,39)           123.8154                                         !
 ! A67   A(38,37,39)           113.1072                                         !
 ! A68   A(37,39,40)           108.4489                                         !
 ! A69   A(37,39,41)           105.2878                                         !
 ! A70   A(37,39,42)           112.1485                                         !
 ! A71   A(40,39,41)           109.905                                          !
 ! A72   A(40,39,42)           109.1205                                         !
 ! A73   A(41,39,42)           111.8274                                         !
 ! A74   A(39,41,46)           120.148                                          !
 ! A75   A(39,41,47)           115.4085                                         !
 ! A76   A(46,41,47)           124.4382                                         !
 ! A77   A(39,42,43)           110.7555                                         !
 ! A78   A(39,42,44)           110.5415                                         !
 ! A79   A(39,42,45)           109.507                                          !
 ! A80   A(43,42,44)           108.4813                                         !
 ! A81   A(43,42,45)           108.3839                                         !
 ! A82   A(44,42,45)           109.1229                                         !
 ! A83   A(41,47,48)           122.3877                                         !
 ! A84   A(41,47,49)           124.541                                          !
 ! A85   A(48,47,49)           113.0022                                         !
 ! A86   A(47,49,50)           108.889                                          !
 ! A87   A(47,49,51)           105.2165                                         !
 ! A88   A(47,49,52)           113.4474                                         !
 ! A89   A(50,49,51)           109.0597                                         !
 ! A90   A(50,49,52)           109.4853                                         !
 ! A91   A(51,49,52)           110.5967                                         !
 ! A92   A(49,51,55)           120.8317                                         !
 ! A93   A(49,51,62)           115.0574                                         !
 ! A94   A(55,51,62)           124.1064                                         !
 ! A95   A(49,52,53)           109.7263                                         !
 ! A96   A(49,52,54)           107.7499                                         !
 ! A97   A(49,52,56)           113.896                                          !
 ! A98   A(53,52,54)           106.4836                                         !
 ! A99   A(53,52,56)           109.9871                                         !
 ! A100  A(54,52,56)           108.7036                                         !
 ! A101  A(52,56,57)           110.5207                                         !
 ! A102  A(52,56,58)           110.7232                                         !
 ! A103  A(52,56,59)           113.5078                                         !
 ! A104  A(57,56,58)           106.3444                                         !
 ! A105  A(57,56,59)           108.0352                                         !
 ! A106  A(58,56,59)           107.3955                                         !
 ! A107  A(56,59,60)           126.3524                                         !
 ! A108  A(56,59,61)           111.9891                                         !
 ! A109  A(60,59,61)           121.6561                                         !
 ! A110  A(59,61,116)          106.8875                                         !
 ! A111  A(51,62,63)           116.2711                                         !
 ! A112  A(51,62,64)           119.6467                                         !
 ! A113  A(63,62,64)           117.5189                                         !
 ! A114  A(62,64,65)           107.7322                                         !
 ! A115  A(62,64,66)           109.2759                                         !
 ! A116  A(62,64,67)           109.7688                                         !
 ! A117  A(65,64,66)           109.1895                                         !
 ! A118  A(65,64,67)           110.2323                                         !
 ! A119  A(66,64,67)           110.5866                                         !
 ! A120  A(64,66,71)           120.7047                                         !
 ! A121  A(64,66,72)           114.8429                                         !
 ! A122  A(71,66,72)           124.4427                                         !
 ! A123  A(64,67,68)           110.1477                                         !
 ! A124  A(64,67,69)           110.4746                                         !
 ! A125  A(64,67,70)           110.744                                          !
 ! A126  A(68,67,69)           108.0661                                         !
 ! A127  A(68,67,70)           108.5685                                         !
 ! A128  A(69,67,70)           108.7691                                         !
 ! A129  A(66,72,73)           120.7205                                         !
 ! A130  A(66,72,74)           124.6122                                         !
 ! A131  A(73,72,74)           114.5199                                         !
 ! A132  A(72,74,75)           107.4958                                         !
 ! A133  A(72,74,76)           108.184                                          !
 ! A134  A(72,74,77)           112.1007                                         !
 ! A135  A(75,74,76)           109.8765                                         !
 ! A136  A(75,74,77)           110.1216                                         !
 ! A137  A(76,74,77)           109.0232                                         !
 ! A138  A(74,76,80)           118.525                                          !
 ! A139  A(74,76,91)           114.5565                                         !
 ! A140  A(80,76,91)           126.8572                                         !
 ! A141  A(74,77,78)           107.4739                                         !
 ! A142  A(74,77,79)           107.7625                                         !
 ! A143  A(74,77,81)           116.2751                                         !
 ! A144  A(78,77,79)           106.4844                                         !
 ! A145  A(78,77,81)           109.2878                                         !
 ! A146  A(79,77,81)           109.1189                                         !
 ! A147  A(77,81,82)           108.3294                                         !
 ! A148  A(77,81,83)           109.2768                                         !
 ! A149  A(77,81,87)           112.3113                                         !
 ! A150  A(82,81,83)           107.6984                                         !
 ! A151  A(82,81,87)           108.3337                                         !
 ! A152  A(83,81,87)           110.75                                           !
 ! A153  A(81,83,84)           111.0817                                         !
 ! A154  A(81,83,85)           111.5705                                         !
 ! A155  A(81,83,86)           110.9149                                         !
 ! A156  A(84,83,85)           107.7314                                         !
 ! A157  A(84,83,86)           107.562                                          !
 ! A158  A(85,83,86)           107.8049                                         !
 ! A159  A(81,87,88)           111.0359                                         !
 ! A160  A(81,87,89)           110.4421                                         !
 ! A161  A(81,87,90)           111.6323                                         !
 ! A162  A(88,87,89)           107.5086                                         !
 ! A163  A(88,87,90)           108.6169                                         !
 ! A164  A(89,87,90)           107.4439                                         !
 ! A165  A(76,91,92)           122.8986                                         !
 ! A166  A(76,91,93)           132.8529                                         !
 ! A167  A(92,91,93)           103.6526                                         !
 ! A168  A(91,93,94)           108.5758                                         !
 ! A169  A(91,93,95)           103.9016                                         !
 ! A170  A(91,93,96)           116.6125                                         !
 ! A171  A(94,93,95)           106.5944                                         !
 ! A172  A(94,93,96)           109.2074                                         !
 ! A173  A(95,93,96)           111.414                                          !
 ! A174  A(93,95,99)           114.9932                                         !
 ! A175  A(93,95,115)          113.343                                          !
 ! A176  A(99,95,115)          131.6602                                         !
 ! A177  A(93,96,97)           105.2739                                         !
 ! A178  A(93,96,98)           108.5698                                         !
 ! A179  A(93,96,100)          113.6813                                         !
 ! A180  A(97,96,98)           107.3643                                         !
 ! A181  A(97,96,100)          110.5875                                         !
 ! A182  A(98,96,100)          111.0261                                         !
 ! A183  A(96,100,101)         110.1406                                         !
 ! A184  A(96,100,102)         109.4137                                         !
 ! A185  A(96,100,103)         114.7429                                         !
 ! A186  A(101,100,102)        105.712                                          !
 ! A187  A(101,100,103)        110.0573                                         !
 ! A188  A(102,100,103)        106.3206                                         !
 ! A189  A(100,103,104)        110.9422                                         !
 ! A190  A(100,103,105)        110.5197                                         !
 ! A191  A(100,103,106)        115.6077                                         !
 ! A192  A(104,103,105)        107.5575                                         !
 ! A193  A(104,103,106)        107.6833                                         !
 ! A194  A(105,103,106)        104.0433                                         !
 ! A195  A(103,106,107)        116.274                                          !
 ! A196  A(103,106,114)        127.8445                                         !
 ! A197  A(107,106,114)        115.8201                                         !
 ! A198  A(109,108,110)        114.2264                                         !
 ! A199  A(109,108,114)        117.2051                                         !
 ! A200  A(110,108,114)        124.5395                                         !
 ! A201  A(112,111,113)        116.8412                                         !
 ! A202  A(112,111,114)        120.5278                                         !
 ! A203  A(113,111,114)        119.9261                                         !
 ! A204  A(106,114,108)        122.6358                                         !
 ! A205  A(106,114,111)        118.3884                                         !
 ! A206  A(108,114,111)        118.9106                                         !
 ! D1    D(2,1,5,6)             42.3031                                         !
 ! D2    D(2,1,5,7)            -77.652                                          !
 ! D3    D(2,1,5,8)            161.8118                                         !
 ! D4    D(3,1,5,6)            157.6369                                         !
 ! D5    D(3,1,5,7)             37.6819                                         !
 ! D6    D(3,1,5,8)            -82.8543                                         !
 ! D7    D(4,1,5,6)            -82.5661                                         !
 ! D8    D(4,1,5,7)            157.4788                                         !
 ! D9    D(4,1,5,8)             36.9426                                         !
 ! D10   D(1,5,7,10)           -36.3972                                         !
 ! D11   D(1,5,7,17)           140.3826                                         !
 ! D12   D(6,5,7,10)          -152.472                                          !
 ! D13   D(6,5,7,17)            24.3079                                         !
 ! D14   D(8,5,7,10)            78.7906                                         !
 ! D15   D(8,5,7,17)          -104.4295                                         !
 ! D16   D(1,5,8,9)             69.776                                          !
 ! D17   D(1,5,8,11)          -169.0647                                         !
 ! D18   D(1,5,8,15)           -43.57                                           !
 ! D19   D(6,5,8,9)           -172.9255                                         !
 ! D20   D(6,5,8,11)           -51.7663                                         !
 ! D21   D(6,5,8,15)            73.7284                                         !
 ! D22   D(7,5,8,9)            -43.124                                          !
 ! D23   D(7,5,8,11)            78.0353                                         !
 ! D24   D(7,5,8,15)          -156.47                                           !
 ! D25   D(5,7,17,18)           10.5309                                         !
 ! D26   D(5,7,17,19)         -165.0349                                         !
 ! D27   D(10,7,17,18)        -173.0291                                         !
 ! D28   D(10,7,17,19)          11.4051                                         !
 ! D29   D(5,8,11,12)          -59.2749                                         !
 ! D30   D(5,8,11,13)         -178.677                                          !
 ! D31   D(5,8,11,14)           61.1542                                         !
 ! D32   D(9,8,11,12)           60.3977                                         !
 ! D33   D(9,8,11,13)          -59.0044                                         !
 ! D34   D(9,8,11,14)         -179.1732                                         !
 ! D35   D(15,8,11,12)         178.3477                                         !
 ! D36   D(15,8,11,13)          58.9456                                         !
 ! D37   D(15,8,11,14)         -61.2231                                         !
 ! D38   D(5,8,15,16)          -98.2245                                         !
 ! D39   D(9,8,15,16)          147.1869                                         !
 ! D40   D(11,8,15,16)          26.6897                                         !
 ! D41   D(7,17,19,20)         -33.6266                                         !
 ! D42   D(7,17,19,21)        -154.3051                                         !
 ! D43   D(7,17,19,22)          87.7216                                         !
 ! D44   D(18,17,19,20)        150.4072                                         !
 ! D45   D(18,17,19,21)         29.7287                                         !
 ! D46   D(18,17,19,22)        -88.2446                                         !
 ! D47   D(17,19,21,25)        -24.2996                                         !
 ! D48   D(17,19,21,37)        158.4068                                         !
 ! D49   D(20,19,21,25)       -142.3904                                         !
 ! D50   D(20,19,21,37)         40.316                                          !
 ! D51   D(22,19,21,25)         94.6184                                         !
 ! D52   D(22,19,21,37)        -82.6752                                         !
 ! D53   D(17,19,22,23)         77.7943                                         !
 ! D54   D(17,19,22,24)       -167.0946                                         !
 ! D55   D(17,19,22,26)        -43.5594                                         !
 ! D56   D(20,19,22,23)       -162.019                                          !
 ! D57   D(20,19,22,24)        -46.9079                                         !
 ! D58   D(20,19,22,26)         76.6273                                         !
 ! D59   D(21,19,22,23)        -37.8736                                         !
 ! D60   D(21,19,22,24)         77.2374                                         !
 ! D61   D(21,19,22,26)       -159.2274                                         !
 ! D62   D(19,21,37,38)         -0.339                                          !
 ! D63   D(19,21,37,39)        172.5536                                         !
 ! D64   D(25,21,37,38)       -177.4449                                         !
 ! D65   D(25,21,37,39)         -4.5523                                         !
 ! D66   D(19,22,26,27)        -84.1696                                         !
 ! D67   D(19,22,26,29)         93.7921                                         !
 ! D68   D(23,22,26,27)        155.3592                                         !
 ! D69   D(23,22,26,29)        -26.6791                                         !
 ! D70   D(24,22,26,27)         37.6909                                         !
 ! D71   D(24,22,26,29)       -144.3474                                         !
 ! D72   D(22,26,27,28)         -2.4896                                         !
 ! D73   D(22,26,27,31)        177.126                                          !
 ! D74   D(29,26,27,28)        179.5135                                         !
 ! D75   D(29,26,27,31)         -0.8709                                         !
 ! D76   D(22,26,29,30)          4.6234                                         !
 ! D77   D(22,26,29,33)       -177.1547                                         !
 ! D78   D(27,26,29,30)       -177.3486                                         !
 ! D79   D(27,26,29,33)          0.8733                                         !
 ! D80   D(26,27,31,32)        179.4648                                         !
 ! D81   D(26,27,31,35)          0.1769                                         !
 ! D82   D(28,27,31,32)         -0.9192                                         !
 ! D83   D(28,27,31,35)        179.7929                                         !
 ! D84   D(26,29,33,34)       -176.5772                                         !
 ! D85   D(26,29,33,35)         -0.1825                                         !
 ! D86   D(30,29,33,34)          1.6429                                         !
 ! D87   D(30,29,33,35)        178.0377                                         !
 ! D88   D(27,31,35,33)          0.533                                          !
 ! D89   D(27,31,35,36)        178.1662                                         !
 ! D90   D(32,31,35,33)       -178.7529                                         !
 ! D91   D(32,31,35,36)         -1.1197                                         !
 ! D92   D(29,33,35,31)         -0.5288                                         !
 ! D93   D(29,33,35,36)       -178.16                                           !
 ! D94   D(34,33,35,31)        175.8517                                         !
 ! D95   D(34,33,35,36)         -1.7795                                         !
 ! D96   D(21,37,39,40)        -41.6939                                         !
 ! D97   D(21,37,39,41)       -159.2916                                         !
 ! D98   D(21,37,39,42)         78.877                                          !
 ! D99   D(38,37,39,40)        131.8093                                         !
 ! D100  D(38,37,39,41)         14.2116                                         !
 ! D101  D(38,37,39,42)       -107.6199                                         !
 ! D102  D(37,39,41,46)        -15.2104                                         !
 ! D103  D(37,39,41,47)        165.5895                                         !
 ! D104  D(40,39,41,46)       -131.8186                                         !
 ! D105  D(40,39,41,47)         48.9813                                         !
 ! D106  D(42,39,41,46)        106.829                                          !
 ! D107  D(42,39,41,47)        -72.3711                                         !
 ! D108  D(37,39,42,43)       -179.1072                                         !
 ! D109  D(37,39,42,44)         60.6266                                         !
 ! D110  D(37,39,42,45)        -59.6309                                         !
 ! D111  D(40,39,42,43)        -58.9261                                         !
 ! D112  D(40,39,42,44)       -179.1923                                         !
 ! D113  D(40,39,42,45)         60.5502                                         !
 ! D114  D(41,39,42,43)         62.8786                                         !
 ! D115  D(41,39,42,44)        -57.3876                                         !
 ! D116  D(41,39,42,45)       -177.6451                                         !
 ! D117  D(39,41,47,48)         -0.9324                                         !
 ! D118  D(39,41,47,49)        175.831                                          !
 ! D119  D(46,41,47,48)        179.9063                                         !
 ! D120  D(46,41,47,49)         -3.3302                                         !
 ! D121  D(41,47,49,50)        -50.2448                                         !
 ! D122  D(41,47,49,51)       -167.0365                                         !
 ! D123  D(41,47,49,52)         71.9423                                         !
 ! D124  D(48,47,49,50)        126.7863                                         !
 ! D125  D(48,47,49,51)          9.9946                                         !
 ! D126  D(48,47,49,52)       -111.0266                                         !
 ! D127  D(47,49,51,55)        -12.8667                                         !
 ! D128  D(47,49,51,62)        167.8796                                         !
 ! D129  D(50,49,51,55)       -129.5418                                         !
 ! D130  D(50,49,51,62)         51.2044                                         !
 ! D131  D(52,49,51,55)        110.0039                                         !
 ! D132  D(52,49,51,62)        -69.2498                                         !
 ! D133  D(47,49,52,53)        129.2586                                         !
 ! D134  D(47,49,52,54)         13.7101                                         !
 ! D135  D(47,49,52,56)       -106.9597                                         !
 ! D136  D(50,49,52,53)       -108.8861                                         !
 ! D137  D(50,49,52,54)        135.5654                                         !
 ! D138  D(50,49,52,56)         14.8955                                         !
 ! D139  D(51,49,52,53)         11.3138                                         !
 ! D140  D(51,49,52,54)       -104.2348                                         !
 ! D141  D(51,49,52,56)        135.0954                                         !
 ! D142  D(49,51,62,63)          9.7577                                         !
 ! D143  D(49,51,62,64)        160.6625                                         !
 ! D144  D(55,51,62,63)       -169.4683                                         !
 ! D145  D(55,51,62,64)        -18.5636                                         !
 ! D146  D(49,52,56,57)         51.816                                          !
 ! D147  D(49,52,56,58)        169.3884                                         !
 ! D148  D(49,52,56,59)        -69.7383                                         !
 ! D149  D(53,52,56,57)        175.4564                                         !
 ! D150  D(53,52,56,58)        -66.9711                                         !
 ! D151  D(53,52,56,59)         53.9021                                         !
 ! D152  D(54,52,56,57)        -68.3186                                         !
 ! D153  D(54,52,56,58)         49.2538                                         !
 ! D154  D(54,52,56,59)        170.1271                                         !
 ! D155  D(52,56,59,60)          6.6377                                         !
 ! D156  D(52,56,59,61)       -173.9245                                         !
 ! D157  D(57,56,59,60)       -116.2949                                         !
 ! D158  D(57,56,59,61)         63.1429                                         !
 ! D159  D(58,56,59,60)        129.3655                                         !
 ! D160  D(58,56,59,61)        -51.1967                                         !
 ! D161  D(56,59,61,116)      -179.5413                                         !
 ! D162  D(60,59,61,116)        -0.0733                                         !
 ! D163  D(51,62,64,65)         52.7442                                         !
 ! D164  D(51,62,64,66)        -65.7722                                         !
 ! D165  D(51,62,64,67)        172.7931                                         !
 ! D166  D(63,62,64,65)       -156.7058                                         !
 ! D167  D(63,62,64,66)         84.7777                                         !
 ! D168  D(63,62,64,67)        -36.657                                          !
 ! D169  D(62,64,66,71)        -30.7163                                         !
 ! D170  D(62,64,66,72)        150.3662                                         !
 ! D171  D(65,64,66,71)       -148.32                                           !
 ! D172  D(65,64,66,72)         32.7625                                         !
 ! D173  D(67,64,66,71)         90.2219                                         !
 ! D174  D(67,64,66,72)        -88.6956                                         !
 ! D175  D(62,64,67,68)       -178.7519                                         !
 ! D176  D(62,64,67,69)         61.9342                                         !
 ! D177  D(62,64,67,70)        -58.6416                                         !
 ! D178  D(65,64,67,68)        -60.2369                                         !
 ! D179  D(65,64,67,69)       -179.5507                                         !
 ! D180  D(65,64,67,70)         59.8735                                         !
 ! D181  D(66,64,67,68)         60.6031                                         !
 ! D182  D(66,64,67,69)        -58.7108                                         !
 ! D183  D(66,64,67,70)       -179.2865                                         !
 ! D184  D(64,66,72,73)          3.5181                                         !
 ! D185  D(64,66,72,74)        178.8592                                         !
 ! D186  D(71,66,72,73)       -175.3533                                         !
 ! D187  D(71,66,72,74)         -0.0122                                         !
 ! D188  D(66,72,74,75)        -20.4951                                         !
 ! D189  D(66,72,74,76)       -139.0999                                         !
 ! D190  D(66,72,74,77)        100.6566                                         !
 ! D191  D(73,72,74,75)        155.1032                                         !
 ! D192  D(73,72,74,76)         36.4985                                         !
 ! D193  D(73,72,74,77)        -83.7451                                         !
 ! D194  D(72,74,76,80)        -19.5454                                         !
 ! D195  D(72,74,76,91)        163.1078                                         !
 ! D196  D(75,74,76,80)       -136.6256                                         !
 ! D197  D(75,74,76,91)         46.0276                                         !
 ! D198  D(77,74,76,80)        102.6049                                         !
 ! D199  D(77,74,76,91)        -74.742                                          !
 ! D200  D(72,74,77,78)         61.2789                                         !
 ! D201  D(72,74,77,79)        175.686                                          !
 ! D202  D(72,74,77,81)        -61.5143                                         !
 ! D203  D(75,74,77,78)       -179.0945                                         !
 ! D204  D(75,74,77,79)        -64.6875                                         !
 ! D205  D(75,74,77,81)         58.1122                                         !
 ! D206  D(76,74,77,78)        -58.4753                                         !
 ! D207  D(76,74,77,79)         55.9318                                         !
 ! D208  D(76,74,77,81)        178.7315                                         !
 ! D209  D(74,76,91,92)         -4.0881                                         !
 ! D210  D(74,76,91,93)        165.5216                                         !
 ! D211  D(80,76,91,92)        178.8255                                         !
 ! D212  D(80,76,91,93)        -11.5649                                         !
 ! D213  D(74,77,81,82)         54.7329                                         !
 ! D214  D(74,77,81,83)        171.8068                                         !
 ! D215  D(74,77,81,87)        -64.8792                                         !
 ! D216  D(78,77,81,82)        -67.1075                                         !
 ! D217  D(78,77,81,83)         49.9665                                         !
 ! D218  D(78,77,81,87)        173.2804                                         !
 ! D219  D(79,77,81,82)        176.8211                                         !
 ! D220  D(79,77,81,83)        -66.1049                                         !
 ! D221  D(79,77,81,87)         57.209                                          !
 ! D222  D(77,81,83,84)         62.1803                                         !
 ! D223  D(77,81,83,85)        -58.0439                                         !
 ! D224  D(77,81,83,86)       -178.2478                                         !
 ! D225  D(82,81,83,84)        179.6523                                         !
 ! D226  D(82,81,83,85)         59.4281                                         !
 ! D227  D(82,81,83,86)        -60.7758                                         !
 ! D228  D(87,81,83,84)        -62.0547                                         !
 ! D229  D(87,81,83,85)        177.7211                                         !
 ! D230  D(87,81,83,86)         57.5172                                         !
 ! D231  D(77,81,87,88)        -57.1357                                         !
 ! D232  D(77,81,87,89)       -176.3016                                         !
 ! D233  D(77,81,87,90)         64.2278                                         !
 ! D234  D(82,81,87,88)       -176.7453                                         !
 ! D235  D(82,81,87,89)         64.0888                                         !
 ! D236  D(82,81,87,90)        -55.3818                                         !
 ! D237  D(83,81,87,88)         65.3487                                         !
 ! D238  D(83,81,87,89)        -53.8172                                         !
 ! D239  D(83,81,87,90)       -173.2878                                         !
 ! D240  D(76,91,93,94)        -66.9354                                         !
 ! D241  D(76,91,93,95)        179.8883                                         !
 ! D242  D(76,91,93,96)         56.8841                                         !
 ! D243  D(92,91,93,94)        104.0994                                         !
 ! D244  D(92,91,93,95)         -9.0768                                         !
 ! D245  D(92,91,93,96)       -132.081                                          !
 ! D246  D(91,93,95,99)       -168.8072                                         !
 ! D247  D(91,93,95,115)        11.7991                                         !
 ! D248  D(94,93,95,99)         76.5984                                         !
 ! D249  D(94,93,95,115)      -102.7954                                         !
 ! D250  D(96,93,95,99)        -42.4543                                         !
 ! D251  D(96,93,95,115)       138.152                                          !
 ! D252  D(91,93,96,97)        148.7054                                         !
 ! D253  D(91,93,96,98)         33.9902                                         !
 ! D254  D(91,93,96,100)       -90.1101                                         !
 ! D255  D(94,93,96,97)        -87.7997                                         !
 ! D256  D(94,93,96,98)        157.4851                                         !
 ! D257  D(94,93,96,100)        33.3848                                         !
 ! D258  D(95,93,96,97)         29.6832                                         !
 ! D259  D(95,93,96,98)        -85.032                                          !
 ! D260  D(95,93,96,100)       150.8677                                         !
 ! D261  D(93,96,100,101)       44.9736                                         !
 ! D262  D(93,96,100,102)      -70.8168                                         !
 ! D263  D(93,96,100,103)      169.8106                                         !
 ! D264  D(97,96,100,101)      163.1392                                         !
 ! D265  D(97,96,100,102)       47.3488                                         !
 ! D266  D(97,96,100,103)      -72.0238                                         !
 ! D267  D(98,96,100,101)      -77.7871                                         !
 ! D268  D(98,96,100,102)      166.4224                                         !
 ! D269  D(98,96,100,103)       47.0498                                         !
 ! D270  D(96,100,103,104)    -168.2176                                         !
 ! D271  D(96,100,103,105)      72.5654                                         !
 ! D272  D(96,100,103,106)     -45.255                                          !
 ! D273  D(101,100,103,104)    -43.3369                                         !
 ! D274  D(101,100,103,105)   -162.5539                                         !
 ! D275  D(101,100,103,106)     79.6257                                         !
 ! D276  D(102,100,103,104)     70.6983                                         !
 ! D277  D(102,100,103,105)    -48.5188                                         !
 ! D278  D(102,100,103,106)   -166.3391                                         !
 ! D279  D(100,103,106,107)    111.934                                          !
 ! D280  D(100,103,106,114)    -65.0755                                         !
 ! D281  D(104,103,106,107)   -123.398                                          !
 ! D282  D(104,103,106,114)     59.5924                                         !
 ! D283  D(105,103,106,107)     -9.4365                                         !
 ! D284  D(105,103,106,114)    173.554                                          !
 ! D285  D(103,106,114,108)     15.874                                          !
 ! D286  D(103,106,114,111)   -161.1553                                         !
 ! D287  D(107,106,114,108)   -161.1471                                         !
 ! D288  D(107,106,114,111)     21.8236                                         !
 ! D289  D(109,108,114,106)   -167.8559                                         !
 ! D290  D(109,108,114,111)      9.1586                                         !
 ! D291  D(110,108,114,106)     36.0906                                         !
 ! D292  D(110,108,114,111)   -146.8949                                         !
 ! D293  D(112,111,114,106)      9.6382                                         !
 ! D294  D(112,111,114,108)   -167.504                                          !
 ! D295  D(113,111,114,106)   -151.1431                                         !
 ! D296  D(113,111,114,108)     31.7146                                         !
 --------------------------------------------------------------------------------
 Symmetry turned off by external request.
 Stoichiometry    C36H59N10O11(1+)
 Framework group  C1[X(C36H59N10O11)]
 Deg. of freedom   342
 Full point group                 C1      NOp   1
                          Input orientation:                          
 ---------------------------------------------------------------------
 Center     Atomic      Atomic             Coordinates (Angstroms)
 Number     Number       Type             X           Y           Z
 ---------------------------------------------------------------------
      1          7           0       -8.477953   -5.711422   -5.426387
      2          1           0       -8.656886   -5.992672   -4.448460
      3          1           0       -8.866716   -4.753665   -5.536080
      4          1           0       -8.883314   -6.372428   -6.106825
      5          6           0       -7.006655   -5.567203   -5.717091
      6          1           0       -6.488638   -6.405458   -5.243874
      7          6           0       -6.665005   -4.202927   -5.084184
      8          6           0       -6.851031   -5.610910   -7.259129
      9          1           0       -7.278836   -4.684161   -7.659241
     10          8           0       -7.528286   -3.324256   -5.164372
     11          6           0       -5.397175   -5.742804   -7.690604
     12          1           0       -4.796255   -4.905971   -7.320408
     13          1           0       -5.333827   -5.745925   -8.782296
     14          1           0       -4.953616   -6.673030   -7.311894
     15          8           0       -7.685018   -6.662906   -7.750957
     16          1           0       -7.148300   -7.458930   -7.898698
     17          7           0       -5.497305   -4.100362   -4.445604
     18          1           0       -4.770684   -4.812932   -4.490563
     19          6           0       -5.173770   -3.004149   -3.542289
     20          1           0       -5.659107   -2.097179   -3.909537
     21          6           0       -3.635631   -2.896578   -3.559959
     22          6           0       -5.651793   -3.330364   -2.083900
     23          1           0       -4.927192   -4.025406   -1.644643
     24          1           0       -5.602022   -2.404316   -1.500561
     25          8           0       -2.971524   -3.891878   -3.864515
     26          6           0       -7.036519   -3.940551   -2.009609
     27          6           0       -8.190728   -3.144388   -2.006844
     28          1           0       -8.094858   -2.061674   -2.018014
     29          6           0       -7.190196   -5.334686   -1.984467
     30          1           0       -6.307149   -5.968763   -1.942318
     31          6           0       -9.461307   -3.720210   -1.997989
     32          1           0      -10.341123   -3.083448   -1.987191
     33          6           0       -8.462540   -5.921750   -1.975528
     34          1           0       -8.559163   -7.002840   -1.899634
     35          6           0       -9.604406   -5.111385   -1.987956
     36          1           0      -10.594148   -5.558741   -1.951006
     37          7           0       -3.124766   -1.717767   -3.180886
     38          1           0       -3.706527   -0.929562   -2.900421
     39          6           0       -1.699776   -1.476281   -2.983670
     40          1           0       -1.269326   -2.342337   -2.467851
     41          6           0       -1.619921   -0.230543   -2.075524
     42          6           0       -0.958095   -1.262492   -4.314477
     43          1           0        0.110241   -1.099234   -4.141253
     44          1           0       -1.360850   -0.392564   -4.843286
     45          1           0       -1.073845   -2.149049   -4.943379
     46          8           0       -2.615294    0.486646   -1.915564
     47          7           0       -0.423157   -0.001235   -1.517966
     48          1           0        0.376520   -0.614476   -1.670162
     49          6           0       -0.102066    1.160322   -0.700391
     50          1           0       -0.413834    2.065726   -1.232563
     51          6           0        1.435245    1.154261   -0.574417
     52          6           0       -0.769628    1.130088    0.712478
     53          1           0       -0.013290    1.313485    1.482555
     54          1           0       -1.145856    0.116932    0.881967
     55          8           0        2.092109    0.165872   -0.905728
     56          6           0       -1.928966    2.117420    0.871927
     57          1           0       -2.653198    1.994983    0.057056
     58          1           0       -2.476472    1.926049    1.802815
     59          6           0       -1.490683    3.562607    0.894787
     60          8           0       -0.362836    3.979631    0.688400
     61          8           0       -2.513088    4.395174    1.166556
     62          7           0        1.973206    2.288112   -0.069339
     63          1           0        1.316865    2.965276    0.318365
     64          6           0        3.318081    2.261619    0.485537
     65          1           0        3.981010    1.825088   -0.267960
     66          6           0        3.331035    1.369302    1.754552
     67          6           0        3.767178    3.687336    0.824586
     68          1           0        4.787862    3.676891    1.222372
     69          1           0        3.110689    4.125424    1.584727
     70          1           0        3.746910    4.322375   -0.066529
     71          8           0        2.331616    1.273539    2.465285
     72          7           0        4.507192    0.753246    2.003157
     73          1           0        5.315942    0.926491    1.418198
     74          6           0        4.762401   -0.111701    3.146357
     75          1           0        4.015540    0.122684    3.908865
     76          6           0        6.174934    0.202110    3.681694
     77          6           0        4.686865   -1.613944    2.769674
     78          1           0        5.463682   -1.804628    2.015507
     79          1           0        4.965198   -2.196301    3.657697
     80          8           0        6.991968    0.791614    2.919219
     81          6           0        3.329575   -2.117321    2.240957
     82          1           0        3.036416   -1.489252    1.388293
     83          6           0        3.487429   -3.557887    1.727862
     84          1           0        3.787207   -4.234966    2.538103
     85          1           0        4.246679   -3.624080    0.939121
     86          1           0        2.542573   -3.932546    1.316084
     87          6           0        2.223180   -2.036248    3.303869
     88          1           0        2.497778   -2.603753    4.202564
     89          1           0        1.288579   -2.461869    2.917433
     90          1           0        2.017281   -1.001772    3.593490
     91          7           0        6.409111   -0.239356    4.902224
     92          1           0        5.675848   -0.706900    5.489785
     93          6           0        7.639072   -0.413340    5.680673
     94          1           0        8.240798   -1.205848    5.212520
     95          6           0        7.127053   -0.996014    7.085503
     96          6           0        8.507875    0.829236    5.875177
     97          1           0        8.988095    0.695857    6.851282
     98          1           0        7.851260    1.707114    5.949958
     99          8           0        7.978854   -1.018785    7.984251
    100          6           0        9.562056    1.022182    4.777107
    101          1           0        9.115424    0.856535    3.793310
    102          1           0       10.342485    0.257081    4.881967
    103          6           0       10.279597    2.376383    4.807431
    104          1           0       10.858705    2.533447    3.890396
    105          1           0       10.975728    2.422413    5.648996
    106          7           0        9.406058    3.561055    4.997429
    107          1           0        9.504677    4.053632    5.874524
    108          7           0        7.963383    3.299388    3.175122
    109          1           0        7.399526    3.783707    2.489686
    110          1           0        7.794625    2.267958    3.218324
    111          7           0        8.049897    5.308808    4.325307
    112          1           0        8.541320    5.937125    4.944432
    113          1           0        7.108987    5.567745    4.065734
    114          6           0        8.465683    4.025043    4.173102
    115          8           0        5.918484   -1.361710    7.064934
    116          1           0       -2.151113    5.301864    1.155598
 ---------------------------------------------------------------------
 Rotational constants (GHZ):           0.0845553           0.0113278           0.0109400
 Standard basis: 6-31G(d) (6D, 7F)
   973 basis functions,  1832 primitive gaussians,   973 cartesian basis functions
   216 alpha electrons      216 beta electrons
       nuclear repulsion energy      7866.5440470851 Hartrees.
 NAtoms=  116 NActive=  116 NUniq=  116 SFac= 1.00D+00 NAtFMM=   60 NAOKFM=T Big=T
 Integral buffers will be    131072 words long.
 Raffenetti 2 integral format.
 Two-electron integral symmetry is turned off.
 One-electron integrals computed using PRISM.
 NBasis=   973 RedAO= T EigKep=  4.71D-04  NBF=   973
 NBsUse=   973 1.00D-06 EigRej= -1.00D+00 NBFU=   973
 Initial guess from the checkpoint file:  "conf-123.chk"
 B after Tr=     0.000000    0.000000    0.000000
         Rot=    1.000000    0.000000    0.000000    0.000000 Ang=   0.00 deg.
 Requested convergence on RMS density matrix=1.00D-08 within 128 cycles.
 Requested convergence on MAX density matrix=1.00D-06.
 Requested convergence on             energy=1.00D-06.
 No special actions if energy rises.
 SCF Done:  E(RB3LYP) =  -2782.25921369     A.U. after    1 cycles
            NFock=  1  Conv=0.83D-08     -V/T= 2.0093
 Hyperfine terms turned off by default for NAtoms > 100.

 **********************************************************************

            Population analysis using the SCF Density.

 **********************************************************************

 Alpha  occ. eigenvalues --  -19.29816 -19.26275 -19.25476 -19.21373 -19.21305
 Alpha  occ. eigenvalues --  -19.19658 -19.18308 -19.16250 -19.16066 -19.06467
 Alpha  occ. eigenvalues --  -19.05377 -14.58820 -14.49069 -14.47928 -14.47477
 Alpha  occ. eigenvalues --  -14.45529 -14.45120 -14.43071 -14.41052 -14.40439
 Alpha  occ. eigenvalues --  -14.37455 -10.43386 -10.42899 -10.39801 -10.39175
 Alpha  occ. eigenvalues --  -10.39130 -10.38634 -10.36600 -10.34910 -10.34777
 Alpha  occ. eigenvalues --  -10.33278 -10.32477 -10.31778 -10.31272 -10.30475
 Alpha  occ. eigenvalues --  -10.30258 -10.30206 -10.30134 -10.30066 -10.29943
 Alpha  occ. eigenvalues --  -10.29871 -10.29435 -10.29378 -10.29141 -10.26866
 Alpha  occ. eigenvalues --  -10.26062 -10.25835 -10.25320 -10.25195 -10.24387
 Alpha  occ. eigenvalues --  -10.22885 -10.22386 -10.21755 -10.21578 -10.20666
 Alpha  occ. eigenvalues --  -10.20167 -10.19335  -1.18566  -1.17460  -1.16982
 Alpha  occ. eigenvalues --   -1.13459  -1.12626  -1.11798  -1.11402  -1.10023
 Alpha  occ. eigenvalues --   -1.08306  -1.07891  -1.06597  -1.05609  -1.01656
 Alpha  occ. eigenvalues --   -1.01203  -0.99742  -0.99699  -0.99513  -0.98226
 Alpha  occ. eigenvalues --   -0.96775  -0.96275  -0.94327  -0.92847  -0.90886
 Alpha  occ. eigenvalues --   -0.89779  -0.87214  -0.86005  -0.85032  -0.84954
 Alpha  occ. eigenvalues --   -0.84754  -0.84208  -0.83113  -0.82856  -0.79516
 Alpha  occ. eigenvalues --   -0.79091  -0.78089  -0.77384  -0.76369  -0.74232
 Alpha  occ. eigenvalues --   -0.74131  -0.73437  -0.72564  -0.71720  -0.71248
 Alpha  occ. eigenvalues --   -0.70933  -0.70697  -0.70598  -0.70465  -0.68986
 Alpha  occ. eigenvalues --   -0.68935  -0.68379  -0.67392  -0.66578  -0.66122
 Alpha  occ. eigenvalues --   -0.65648  -0.64616  -0.64542  -0.63984  -0.63420
 Alpha  occ. eigenvalues --   -0.62782  -0.62651  -0.61590  -0.60889  -0.60446
 Alpha  occ. eigenvalues --   -0.60125  -0.59700  -0.59312  -0.58487  -0.58368
 Alpha  occ. eigenvalues --   -0.58105  -0.57666  -0.57177  -0.56606  -0.56388
 Alpha  occ. eigenvalues --   -0.56075  -0.55542  -0.55358  -0.55308  -0.54758
 Alpha  occ. eigenvalues --   -0.54700  -0.54112  -0.53463  -0.53306  -0.53152
 Alpha  occ. eigenvalues --   -0.53000  -0.52463  -0.52275  -0.51852  -0.51386
 Alpha  occ. eigenvalues --   -0.51062  -0.50965  -0.50850  -0.50753  -0.50362
 Alpha  occ. eigenvalues --   -0.50173  -0.49891  -0.49744  -0.48754  -0.48585
 Alpha  occ. eigenvalues --   -0.48470  -0.48163  -0.47570  -0.47419  -0.47344
 Alpha  occ. eigenvalues --   -0.47320  -0.46880  -0.46682  -0.46536  -0.46467
 Alpha  occ. eigenvalues --   -0.46032  -0.45652  -0.45379  -0.44883  -0.44738
 Alpha  occ. eigenvalues --   -0.44535  -0.44371  -0.44280  -0.43874  -0.43470
 Alpha  occ. eigenvalues --   -0.43038  -0.43007  -0.42823  -0.42679  -0.42538
 Alpha  occ. eigenvalues --   -0.41686  -0.41588  -0.41203  -0.41130  -0.40714
 Alpha  occ. eigenvalues --   -0.40283  -0.39940  -0.38990  -0.38858  -0.38795
 Alpha  occ. eigenvalues --   -0.38730  -0.38207  -0.37655  -0.36664  -0.35969
 Alpha  occ. eigenvalues --   -0.35927  -0.35707  -0.35695  -0.35180  -0.35085
 Alpha  occ. eigenvalues --   -0.35058  -0.35005  -0.34920  -0.34712  -0.33889
 Alpha  occ. eigenvalues --   -0.33846  -0.32926  -0.32068  -0.31774  -0.30721
 Alpha  occ. eigenvalues --   -0.29525  -0.29395  -0.28398  -0.21506  -0.21437
 Alpha  occ. eigenvalues --   -0.19795
 Alpha virt. eigenvalues --   -0.12831  -0.11535  -0.11185  -0.08603  -0.07850
 Alpha virt. eigenvalues --   -0.07113  -0.05819  -0.05352  -0.04880  -0.04870
 Alpha virt. eigenvalues --   -0.04186  -0.03864  -0.02375  -0.02202  -0.01595
 Alpha virt. eigenvalues --   -0.01388  -0.00996  -0.00533  -0.00381   0.00155
 Alpha virt. eigenvalues --    0.00730   0.01458   0.01564   0.01733   0.02456
 Alpha virt. eigenvalues --    0.02942   0.03098   0.03473   0.03897   0.04386
 Alpha virt. eigenvalues --    0.04820   0.04940   0.05554   0.05610   0.05860
 Alpha virt. eigenvalues --    0.06163   0.06310   0.06530   0.06708   0.07007
 Alpha virt. eigenvalues --    0.07131   0.07289   0.07428   0.07561   0.07959
 Alpha virt. eigenvalues --    0.08400   0.08455   0.08536   0.08932   0.09089
 Alpha virt. eigenvalues --    0.09466   0.09630   0.10034   0.10136   0.10253
 Alpha virt. eigenvalues --    0.10450   0.10531   0.10748   0.10769   0.10924
 Alpha virt. eigenvalues --    0.11556   0.12009   0.12144   0.12259   0.12318
 Alpha virt. eigenvalues --    0.12653   0.12836   0.13016   0.13519   0.13645
 Alpha virt. eigenvalues --    0.13718   0.14180   0.14255   0.14405   0.14491
 Alpha virt. eigenvalues --    0.14808   0.15163   0.15552   0.15777   0.15983
 Alpha virt. eigenvalues --    0.16178   0.16669   0.17035   0.17321   0.17704
 Alpha virt. eigenvalues --    0.18067   0.18564   0.19042   0.19145   0.19794
 Alpha virt. eigenvalues --    0.20004   0.20310   0.20780   0.21417   0.21641
 Alpha virt. eigenvalues --    0.21787   0.22123   0.22406   0.22655   0.22852
 Alpha virt. eigenvalues --    0.23328   0.23457   0.23547   0.24181   0.24827
 Alpha virt. eigenvalues --    0.25059   0.25215   0.25840   0.26178   0.27295
 Alpha virt. eigenvalues --    0.27691   0.27897   0.28293   0.28776   0.29998
 Alpha virt. eigenvalues --    0.30613   0.31347   0.32405   0.32770   0.33328
 Alpha virt. eigenvalues --    0.34772   0.35218   0.35500   0.35902   0.36104
 Alpha virt. eigenvalues --    0.36662   0.37099   0.38112   0.40033   0.40769
 Alpha virt. eigenvalues --    0.41005   0.42393   0.42555   0.42641   0.43287
 Alpha virt. eigenvalues --    0.43295   0.43559   0.44263   0.44909   0.44951
 Alpha virt. eigenvalues --    0.45176   0.45289   0.45444   0.45979   0.46215
 Alpha virt. eigenvalues --    0.46343   0.46668   0.46931   0.47223   0.47661
 Alpha virt. eigenvalues --    0.47815   0.47939   0.47976   0.48244   0.48385
 Alpha virt. eigenvalues --    0.48622   0.48981   0.49243   0.49563   0.49649
 Alpha virt. eigenvalues --    0.49759   0.50218   0.50757   0.51110   0.51298
 Alpha virt. eigenvalues --    0.51481   0.51629   0.51827   0.51959   0.52256
 Alpha virt. eigenvalues --    0.52608   0.52723   0.53517   0.53771   0.54194
 Alpha virt. eigenvalues --    0.54376   0.54521   0.54895   0.55050   0.55671
 Alpha virt. eigenvalues --    0.55940   0.56839   0.57067   0.57263   0.57424
 Alpha virt. eigenvalues --    0.57598   0.58539   0.58719   0.59256   0.59328
 Alpha virt. eigenvalues --    0.59703   0.60032   0.60144   0.60237   0.60645
 Alpha virt. eigenvalues --    0.60818   0.60848   0.61034   0.61453   0.61663
 Alpha virt. eigenvalues --    0.62017   0.62375   0.63163   0.63422   0.63881
 Alpha virt. eigenvalues --    0.64256   0.64690   0.64731   0.64940   0.65228
 Alpha virt. eigenvalues --    0.65508   0.66004   0.66631   0.66885   0.68218
 Alpha virt. eigenvalues --    0.68352   0.68692   0.68929   0.69356   0.69553
 Alpha virt. eigenvalues --    0.69770   0.70181   0.70280   0.70663   0.71007
 Alpha virt. eigenvalues --    0.71472   0.71860   0.71968   0.72292   0.72530
 Alpha virt. eigenvalues --    0.72730   0.72886   0.73160   0.73363   0.73438
 Alpha virt. eigenvalues --    0.73524   0.73959   0.74378   0.74658   0.74841
 Alpha virt. eigenvalues --    0.75078   0.75289   0.75750   0.76198   0.76265
 Alpha virt. eigenvalues --    0.76344   0.76504   0.76746   0.76961   0.77127
 Alpha virt. eigenvalues --    0.77379   0.77735   0.77896   0.78779   0.78935
 Alpha virt. eigenvalues --    0.79079   0.79350   0.79429   0.79633   0.79827
 Alpha virt. eigenvalues --    0.80444   0.80788   0.81035   0.81188   0.81227
 Alpha virt. eigenvalues --    0.81361   0.81792   0.82028   0.82312   0.82446
 Alpha virt. eigenvalues --    0.82605   0.83030   0.83220   0.83332   0.83736
 Alpha virt. eigenvalues --    0.83892   0.84112   0.84169   0.84393   0.84588
 Alpha virt. eigenvalues --    0.84917   0.85132   0.85621   0.85711   0.86053
 Alpha virt. eigenvalues --    0.86265   0.86437   0.86505   0.86950   0.87047
 Alpha virt. eigenvalues --    0.87486   0.87747   0.87856   0.88224   0.88536
 Alpha virt. eigenvalues --    0.88784   0.88974   0.89338   0.89826   0.89985
 Alpha virt. eigenvalues --    0.90153   0.90380   0.90772   0.90937   0.91048
 Alpha virt. eigenvalues --    0.91590   0.91726   0.92215   0.92676   0.92892
 Alpha virt. eigenvalues --    0.93427   0.93583   0.94569   0.94868   0.95133
 Alpha virt. eigenvalues --    0.95752   0.95777   0.96099   0.96791   0.97526
 Alpha virt. eigenvalues --    0.97657   0.98088   0.98172   0.98806   0.99165
 Alpha virt. eigenvalues --    0.99877   1.00535   1.00582   1.01013   1.01308
 Alpha virt. eigenvalues --    1.01637   1.02181   1.03064   1.03848   1.04034
 Alpha virt. eigenvalues --    1.04827   1.05334   1.05720   1.06402   1.06725
 Alpha virt. eigenvalues --    1.06764   1.07263   1.07499   1.07722   1.08912
 Alpha virt. eigenvalues --    1.09077   1.09977   1.10509   1.11121   1.11807
 Alpha virt. eigenvalues --    1.12545   1.12801   1.12932   1.14084   1.14421
 Alpha virt. eigenvalues --    1.15359   1.15570   1.15868   1.16277   1.16889
 Alpha virt. eigenvalues --    1.18067   1.18805   1.19550   1.19916   1.20416
 Alpha virt. eigenvalues --    1.20447   1.21510   1.21731   1.22010   1.22393
 Alpha virt. eigenvalues --    1.23105   1.23369   1.24268   1.25379   1.25809
 Alpha virt. eigenvalues --    1.26106   1.26348   1.26778   1.27658   1.27786
 Alpha virt. eigenvalues --    1.28826   1.29495   1.30531   1.31243   1.31971
 Alpha virt. eigenvalues --    1.32755   1.33034   1.33802   1.33899   1.34158
 Alpha virt. eigenvalues --    1.35543   1.35716   1.36374   1.37034   1.37708
 Alpha virt. eigenvalues --    1.37799   1.38445   1.38760   1.38924   1.39514
 Alpha virt. eigenvalues --    1.40131   1.40224   1.41242   1.41687   1.41822
 Alpha virt. eigenvalues --    1.42045   1.42214   1.42851   1.43551   1.44147
 Alpha virt. eigenvalues --    1.44675   1.45107   1.45640   1.46321   1.47167
 Alpha virt. eigenvalues --    1.47885   1.48405   1.49118   1.49615   1.50606
 Alpha virt. eigenvalues --    1.51070   1.51358   1.52552   1.53466   1.53851
 Alpha virt. eigenvalues --    1.55690   1.56439   1.56704   1.57301   1.57722
 Alpha virt. eigenvalues --    1.59291   1.59940   1.60484   1.61226   1.61722
 Alpha virt. eigenvalues --    1.61855   1.62360   1.62915   1.63164   1.63669
 Alpha virt. eigenvalues --    1.64374   1.64519   1.64978   1.65147   1.65433
 Alpha virt. eigenvalues --    1.65573   1.65862   1.66568   1.66721   1.67472
 Alpha virt. eigenvalues --    1.67953   1.68034   1.68466   1.69018   1.69222
 Alpha virt. eigenvalues --    1.69764   1.70002   1.70764   1.71065   1.71305
 Alpha virt. eigenvalues --    1.71658   1.71768   1.71989   1.72896   1.73494
 Alpha virt. eigenvalues --    1.73668   1.73961   1.74416   1.74585   1.74926
 Alpha virt. eigenvalues --    1.75132   1.75917   1.76170   1.76577   1.76767
 Alpha virt. eigenvalues --    1.77116   1.77549   1.77781   1.78031   1.78802
 Alpha virt. eigenvalues --    1.79215   1.79356   1.80023   1.80290   1.80998
 Alpha virt. eigenvalues --    1.81039   1.81301   1.81655   1.81881   1.82384
 Alpha virt. eigenvalues --    1.82625   1.83066   1.83557   1.83984   1.84075
 Alpha virt. eigenvalues --    1.85150   1.85255   1.85355   1.85983   1.86171
 Alpha virt. eigenvalues --    1.86310   1.87037   1.87318   1.87402   1.88336
 Alpha virt. eigenvalues --    1.88667   1.88898   1.89364   1.89573   1.89756
 Alpha virt. eigenvalues --    1.90331   1.90564   1.90969   1.91150   1.91754
 Alpha virt. eigenvalues --    1.91973   1.92215   1.92472   1.93186   1.93922
 Alpha virt. eigenvalues --    1.94062   1.94503   1.94707   1.95407   1.96050
 Alpha virt. eigenvalues --    1.96112   1.96679   1.97348   1.97360   1.98389
 Alpha virt. eigenvalues --    1.98430   1.98887   1.99153   1.99487   1.99650
 Alpha virt. eigenvalues --    2.00139   2.00710   2.00801   2.01200   2.01692
 Alpha virt. eigenvalues --    2.01949   2.03264   2.03492   2.03800   2.04006
 Alpha virt. eigenvalues --    2.04647   2.05438   2.05542   2.06138   2.06462
 Alpha virt. eigenvalues --    2.06658   2.07160   2.07610   2.08235   2.08552
 Alpha virt. eigenvalues --    2.08755   2.09473   2.09605   2.10022   2.10815
 Alpha virt. eigenvalues --    2.11657   2.11829   2.13675   2.14096   2.14222
 Alpha virt. eigenvalues --    2.15101   2.16466   2.16553   2.16774   2.17151
 Alpha virt. eigenvalues --    2.17907   2.18121   2.18430   2.18848   2.20013
 Alpha virt. eigenvalues --    2.20037   2.20149   2.20926   2.21283   2.22231
 Alpha virt. eigenvalues --    2.22841   2.23424   2.23667   2.24055   2.24387
 Alpha virt. eigenvalues --    2.24738   2.25869   2.26649   2.27640   2.27947
 Alpha virt. eigenvalues --    2.28006   2.28549   2.29202   2.29882   2.30046
 Alpha virt. eigenvalues --    2.30806   2.31073   2.31971   2.32306   2.33688
 Alpha virt. eigenvalues --    2.34572   2.35002   2.35291   2.35606   2.35963
 Alpha virt. eigenvalues --    2.36637   2.37251   2.37586   2.38338   2.38582
 Alpha virt. eigenvalues --    2.39006   2.40062   2.40655   2.41143   2.41602
 Alpha virt. eigenvalues --    2.42580   2.42889   2.43227   2.43736   2.45075
 Alpha virt. eigenvalues --    2.45624   2.45896   2.46595   2.47301   2.47511
 Alpha virt. eigenvalues --    2.48451   2.48623   2.49207   2.50256   2.50597
 Alpha virt. eigenvalues --    2.52113   2.52611   2.53053   2.53621   2.53958
 Alpha virt. eigenvalues --    2.54810   2.54919   2.55842   2.57305   2.57522
 Alpha virt. eigenvalues --    2.58334   2.58891   2.59323   2.59922   2.60521
 Alpha virt. eigenvalues --    2.61538   2.61835   2.62258   2.62901   2.63327
 Alpha virt. eigenvalues --    2.64084   2.65058   2.65454   2.65880   2.66134
 Alpha virt. eigenvalues --    2.67057   2.67673   2.68016   2.69089   2.69468
 Alpha virt. eigenvalues --    2.71811   2.72895   2.73228   2.74791   2.76142
 Alpha virt. eigenvalues --    2.76397   2.77766   2.78907   2.79469   2.80577
 Alpha virt. eigenvalues --    2.80770   2.82024   2.83254   2.84578   2.85119
 Alpha virt. eigenvalues --    2.86266   2.87256   2.88517   2.89744   2.90534
 Alpha virt. eigenvalues --    2.90756   2.92714   2.93481   2.94086   2.94629
 Alpha virt. eigenvalues --    2.96563   2.96893   2.97239   3.00504   3.00787
 Alpha virt. eigenvalues --    3.03648   3.04192   3.05534   3.08525   3.11938
 Alpha virt. eigenvalues --    3.12457   3.15896   3.16593   3.24263   3.29746
 Alpha virt. eigenvalues --    3.68208   3.68779   3.71441   3.77247   3.85640
 Alpha virt. eigenvalues --    3.89765   3.90251   3.93316   3.94593   3.97115
 Alpha virt. eigenvalues --    3.97699   4.00765   4.01520   4.02575   4.03807
 Alpha virt. eigenvalues --    4.04579   4.06489   4.07974   4.08708   4.09930
 Alpha virt. eigenvalues --    4.10471   4.11463   4.12436   4.13528   4.14940
 Alpha virt. eigenvalues --    4.15733   4.17502   4.17705   4.19057   4.20398
 Alpha virt. eigenvalues --    4.24223   4.25374   4.26789   4.28218   4.28524
 Alpha virt. eigenvalues --    4.29438   4.31653   4.32865   4.34242   4.35856
 Alpha virt. eigenvalues --    4.36145   4.38630   4.40404   4.40893   4.46725
 Alpha virt. eigenvalues --    4.47790   4.50538   4.51075   4.52191   4.52862
 Alpha virt. eigenvalues --    4.54625   4.55758   4.57233   4.61904   4.62486
 Alpha virt. eigenvalues --    4.64149   4.66797
          Condensed to atoms (all electrons):
 Mulliken charges:
               1
     1  N   -0.744948
     2  H    0.409643
     3  H    0.421229
     4  H    0.418587
     5  C   -0.132589
     6  H    0.192515
     7  C    0.662094
     8  C    0.133588
     9  H    0.191785
    10  O   -0.532082
    11  C   -0.502002
    12  H    0.193651
    13  H    0.207313
    14  H    0.164557
    15  O   -0.632150
    16  H    0.422404
    17  N   -0.605003
    18  H    0.362679
    19  C   -0.063465
    20  H    0.197316
    21  C    0.635816
    22  C   -0.369095
    23  H    0.179553
    24  H    0.183041
    25  O   -0.548015
    26  C    0.170853
    27  C   -0.149758
    28  H    0.153924
    29  C   -0.198899
    30  H    0.144469
    31  C   -0.129793
    32  H    0.162855
    33  C   -0.196643
    34  H    0.155857
    35  C   -0.151267
    36  H    0.159240
    37  N   -0.617354
    38  H    0.361239
    39  C   -0.046193
    40  H    0.185829
    41  C    0.624715
    42  C   -0.449844
    43  H    0.169918
    44  H    0.164476
    45  H    0.182690
    46  O   -0.552943
    47  N   -0.632644
    48  H    0.364087
    49  C   -0.028012
    50  H    0.182587
    51  C    0.600337
    52  C   -0.299341
    53  H    0.215203
    54  H    0.160637
    55  O   -0.541129
    56  C   -0.375260
    57  H    0.218777
    58  H    0.188620
    59  C    0.594767
    60  O   -0.485991
    61  O   -0.552442
    62  N   -0.614108
    63  H    0.390041
    64  C   -0.052074
    65  H    0.170837
    66  C    0.634095
    67  C   -0.466426
    68  H    0.130481
    69  H    0.174391
    70  H    0.173092
    71  O   -0.537377
    72  N   -0.594662
    73  H    0.333735
    74  C   -0.073604
    75  H    0.193123
    76  C    0.613589
    77  C   -0.256588
    78  H    0.132717
    79  H    0.165775
    80  O   -0.630215
    81  C   -0.076982
    82  H    0.142433
    83  C   -0.442257
    84  H    0.147876
    85  H    0.137476
    86  H    0.130729
    87  C   -0.463562
    88  H    0.148798
    89  H    0.124394
    90  H    0.173975
    91  N   -0.603631
    92  H    0.375408
    93  C   -0.063831
    94  H    0.150786
    95  C    0.585656
    96  C   -0.268782
    97  H    0.189524
    98  H    0.105149
    99  O   -0.574641
   100  C   -0.314281
   101  H    0.177245
   102  H    0.164597
   103  C   -0.151175
   104  H    0.180603
   105  H    0.176503
   106  N   -0.587347
   107  H    0.360042
   108  N   -0.780269
   109  H    0.352707
   110  H    0.459352
   111  N   -0.760471
   112  H    0.368076
   113  H    0.369172
   114  C    0.773135
   115  O   -0.610739
   116  H    0.417522
 Sum of Mulliken charges =   1.00000
 Mulliken charges with hydrogens summed into heavy atoms:
               1
     1  N    0.504510
     5  C    0.059926
     7  C    0.662094
     8  C    0.325373
    10  O   -0.532082
    11  C    0.063519
    15  O   -0.209746
    17  N   -0.242324
    19  C    0.133851
    21  C    0.635816
    22  C   -0.006501
    25  O   -0.548015
    26  C    0.170853
    27  C    0.004165
    29  C   -0.054430
    31  C    0.033062
    33  C   -0.040786
    35  C    0.007973
    37  N   -0.256115
    39  C    0.139636
    41  C    0.624715
    42  C    0.067239
    46  O   -0.552943
    47  N   -0.268556
    49  C    0.154575
    51  C    0.600337
    52  C    0.076500
    55  O   -0.541129
    56  C    0.032137
    59  C    0.594767
    60  O   -0.485991
    61  O   -0.134920
    62  N   -0.224067
    64  C    0.118763
    66  C    0.634095
    67  C    0.011538
    71  O   -0.537377
    72  N   -0.260927
    74  C    0.119519
    76  C    0.613589
    77  C    0.041904
    80  O   -0.630215
    81  C    0.065451
    83  C   -0.026176
    87  C   -0.016395
    91  N   -0.228223
    93  C    0.086955
    95  C    0.585656
    96  C    0.025892
    99  O   -0.574641
   100  C    0.027562
   103  C    0.205932
   106  N   -0.227306
   108  N    0.031790
   111  N   -0.023224
   114  C    0.773135
   115  O   -0.610739
 Electronic spatial extent (au):  <R**2>=          94879.2211
 Charge=              1.0000 electrons
 Dipole moment (field-independent basis, Debye):
    X=            -22.1813    Y=             -4.2250    Z=            -26.6677  Tot=             34.9432
 Quadrupole moment (field-independent basis, Debye-Ang):
   XX=              3.2667   YY=           -110.9621   ZZ=           -310.1891
   XY=            308.6505   XZ=            128.4605   YZ=            219.3035
 Traceless Quadrupole moment (field-independent basis, Debye-Ang):
   XX=            142.5615   YY=             28.3327   ZZ=           -170.8943
   XY=            308.6505   XZ=            128.4605   YZ=            219.3035
 Octapole moment (field-independent basis, Debye-Ang**2):
  XXX=          -1094.4751  YYY=            361.4017  ZZZ=          -1861.9715  XYY=           -706.3297
  XXY=             -5.8880  XXZ=           -992.7306  XZZ=          -1420.1889  YZZ=             60.9956
  YYZ=           -546.8613  XYZ=           -205.5496
 Hexadecapole moment (field-independent basis, Debye-Ang**3):
 XXXX=         -40280.0907 YYYY=         -12439.5777 ZZZZ=         -35105.7091 XXXY=           8179.3144
 XXXZ=          -8215.3526 YYYX=          -2666.6476 YYYZ=           -256.2691 ZZZX=         -21439.9897
 ZZZY=            834.3152 XXYY=          -2151.8831 XXZZ=         -13636.7171 YYZZ=          -2323.7507
 XXYZ=          10501.8088 YYXZ=           1732.8262 ZZXY=           5460.7134
 N-N= 7.866544047085D+03 E-N=-2.218771024601D+04  KE= 2.756489506797D+03
 Unable to Open any file for archive entry.
 1\1\GINC-AMR-104\SP\RB3LYP\6-31G(d)\C36H59N10O11(1+)\KENGMITH\30-Jun-2
 022\0\\# B3LYP/6-31G* guess=read geom=check nosymm integral(ultrafineg
 rid)\\Candidate Structure: Conf:123 Charge calc in gas phase\\1,1\N,0,
 -8.4779532403,-5.7114218404,-5.4263872675\H,0,-8.6568856383,-5.9926722
 643,-4.4484603447\H,0,-8.8667158816,-4.7536653897,-5.5360798382\H,0,-8
 .8833136694,-6.3724280152,-6.1068253608\C,0,-7.0066550183,-5.567203286
 4,-5.7170906086\H,0,-6.488638398,-6.4054580959,-5.243873927\C,0,-6.665
 0054715,-4.2029269675,-5.0841839324\C,0,-6.8510306753,-5.6109098587,-7
 .2591293649\H,0,-7.2788359203,-4.6841613261,-7.6592408812\O,0,-7.52828
 58149,-3.3242558421,-5.1643721159\C,0,-5.3971745367,-5.7428038673,-7.6
 906043712\H,0,-4.7962551701,-4.9059707645,-7.3204084488\H,0,-5.3338267
 088,-5.7459252098,-8.7822960337\H,0,-4.9536164608,-6.6730302701,-7.311
 8944396\O,0,-7.6850179586,-6.662905943,-7.7509567783\H,0,-7.1482996087
 ,-7.4589304464,-7.8986984355\N,0,-5.4973049169,-4.1003623599,-4.445603
 671\H,0,-4.7706838678,-4.8129315757,-4.4905627435\C,0,-5.1737696431,-3
 .0041494608,-3.5422888655\H,0,-5.659107383,-2.0971793406,-3.9095371744
 \C,0,-3.6356308917,-2.8965776286,-3.5599588176\C,0,-5.651792581,-3.330
 3640604,-2.083899993\H,0,-4.9271917672,-4.025405961,-1.6446434778\H,0,
 -5.6020217896,-2.4043155847,-1.5005605606\O,0,-2.9715242575,-3.8918782
 002,-3.8645149857\C,0,-7.036519257,-3.9405513717,-2.0096093005\C,0,-8.
 1907284661,-3.144387729,-2.0068435788\H,0,-8.0948581664,-2.0616741412,
 -2.0180135254\C,0,-7.1901961312,-5.3346859645,-1.9844665934\H,0,-6.307
 1487619,-5.9687625706,-1.9423178541\C,0,-9.4613073781,-3.720210485,-1.
 9979892891\H,0,-10.3411229197,-3.083447829,-1.987190909\C,0,-8.4625399
 902,-5.9217499169,-1.9755278162\H,0,-8.5591631972,-7.002839712,-1.8996
 340633\C,0,-9.6044057778,-5.111385124,-1.9879557023\H,0,-10.5941475297
 ,-5.5587405018,-1.951005807\N,0,-3.1247656138,-1.7177665415,-3.1808856
 397\H,0,-3.7065268424,-0.9295620961,-2.900420925\C,0,-1.6997760619,-1.
 4762809371,-2.9836703118\H,0,-1.269325902,-2.3423374521,-2.4678514552\
 C,0,-1.6199207938,-0.2305426934,-2.0755243092\C,0,-0.9580945202,-1.262
 4916189,-4.3144774349\H,0,0.110240696,-1.0992343476,-4.1412527315\H,0,
 -1.3608500672,-0.3925638607,-4.8432856671\H,0,-1.0738452352,-2.1490494
 763,-4.9433787871\O,0,-2.6152940462,0.4866459524,-1.9155641953\N,0,-0.
 4231574194,-0.0012351267,-1.5179661542\H,0,0.3765199678,-0.6144756027,
 -1.6701619938\C,0,-0.1020656249,1.1603220445,-0.7003909055\H,0,-0.4138
 344244,2.065726398,-1.2325628662\C,0,1.4352448014,1.1542613809,-0.5744
 172042\C,0,-0.7696281581,1.130088456,0.7124778481\H,0,-0.0132903087,1.
 3134852004,1.4825547846\H,0,-1.1458558251,0.1169317221,0.8819667013\O,
 0,2.0921085825,0.1658717176,-0.9057281086\C,0,-1.9289656335,2.11741970
 49,0.8719267221\H,0,-2.6531980329,1.9949829975,0.0570561724\H,0,-2.476
 4723146,1.9260490416,1.8028148116\C,0,-1.4906832617,3.5626073608,0.894
 7873104\O,0,-0.3628359074,3.9796308942,0.6883997621\O,0,-2.5130879875,
 4.3951735489,1.1665557013\N,0,1.9732056782,2.2881121541,-0.0693393325\
 H,0,1.3168650118,2.9652758816,0.3183653025\C,0,3.3180812197,2.26161908
 85,0.4855370423\H,0,3.9810099054,1.8250884943,-0.2679595614\C,0,3.3310
 349054,1.3693021729,1.7545516509\C,0,3.7671779655,3.6873355012,0.82458
 61926\H,0,4.7878621574,3.6768914937,1.2223721241\H,0,3.1106894843,4.12
 54244324,1.5847266542\H,0,3.7469097611,4.3223754664,-0.0665285312\O,0,
 2.3316155572,1.2735387962,2.4652852158\N,0,4.5071918265,0.7532464657,2
 .0031569779\H,0,5.3159415842,0.9264910253,1.4181978041\C,0,4.762400624
 7,-0.1117012214,3.1463573651\H,0,4.0155396928,0.1226838557,3.908865246
 \C,0,6.1749342407,0.2021103618,3.6816937957\C,0,4.6868646101,-1.613944
 4759,2.7696735629\H,0,5.463682339,-1.8046275711,2.015507131\H,0,4.9651
 978564,-2.1963008962,3.6576972797\O,0,6.9919677159,0.7916143928,2.9192
 187726\C,0,3.3295753979,-2.1173205233,2.2409565709\H,0,3.0364155918,-1
 .4892519866,1.3882929754\C,0,3.4874289466,-3.5578874361,1.7278623963\H
 ,0,3.7872066002,-4.2349663006,2.5381032031\H,0,4.2466789786,-3.6240802
 872,0.939120524\H,0,2.5425730092,-3.9325464346,1.3160839103\C,0,2.2231
 798091,-2.0362476018,3.3038691797\H,0,2.4977775822,-2.6037526153,4.202
 5643532\H,0,1.2885791386,-2.4618691652,2.9174331544\H,0,2.0172811756,-
 1.001772063,3.593489874\N,0,6.4091110336,-0.239356104,4.9022237015\H,0
 ,5.6758476813,-0.7069003429,5.4897851518\C,0,7.639071537,-0.4133395829
 ,5.6806727834\H,0,8.2407983748,-1.2058475316,5.2125204772\C,0,7.127053
 4742,-0.9960137296,7.085503493\C,0,8.5078745524,0.8292364351,5.8751765
 898\H,0,8.9880946919,0.6958566953,6.8512821949\H,0,7.8512604274,1.7071
 138748,5.9499575254\O,0,7.9788539631,-1.0187847137,7.9842509995\C,0,9.
 5620560077,1.0221817473,4.7771068247\H,0,9.1154238523,0.8565353255,3.7
 93309785\H,0,10.3424847011,0.2570810274,4.8819668688\C,0,10.2795971379
 ,2.3763834935,4.8074305565\H,0,10.8587048188,2.5334471996,3.8903958096
 \H,0,10.9757275957,2.4224132662,5.6489961503\N,0,9.4060582924,3.561055
 2623,4.9974290716\H,0,9.5046766912,4.0536318241,5.8745239133\N,0,7.963
 3830822,3.2993877857,3.175122485\H,0,7.3995258678,3.7837074153,2.48968
 64824\H,0,7.794624516,2.2679580717,3.2183240638\N,0,8.049896936,5.3088
 082857,4.325306507\H,0,8.5413200097,5.9371248797,4.9444316538\H,0,7.10
 89871058,5.567745245,4.065734013\C,0,8.4656831469,4.0250427697,4.17310
 24319\O,0,5.9184838048,-1.3617098374,7.0649340986\H,0,-2.1511131301,5.
 3018644921,1.1555980263\\Version=ES64L-G16RevC.01\HF=-2782.2592137\RMS
 D=8.257e-09\Dipole=-9.2473584,-0.1000059,-10.6357447\Quadrupole=105.99
 10169,21.064702,-127.0557189,229.4741022,95.5072306,163.0467763\PG=C01
  [X(C36H59N10O11)]\\@
 The archive entry for this job was punched.


 I think that all right-thinking people in this
 country are sick and tired of being told that
 ordinary, decent people are fed up in this country
 with being sick and tired.  I'm certainly not!
 But I'm sick and tired of being told that I am!
                               -- Monty Python
 Job cpu time:       0 days  0 hours  2 minutes 52.5 seconds.
 Elapsed time:       0 days  0 hours  0 minutes 46.3 seconds.
 File lengths (MBytes):  RWF=    608 Int=      0 D2E=      0 Chk=     96 Scr=     16
 Normal termination of Gaussian 16 at Thu Jun 30 14:49:04 2022.
